INSANE! Membrane UpperLeaflet>loPI:POPI:DPPI:PYPI:ERGO=180.0:5.0:3.0:2.0:10.0 LowerLeaflet>PSPI:POPI:POPS:YOPS:POPE:YOPE:POPC:YOPC:ERGO=6.0:14.0:21.0:9.0:9.0:21.0:12.0:48.0:60.0
49428
    1loPI    C1    1   1.389  15.971  10.924  0.0073  0.0908 -0.1275
    1loPI    C2    2   1.368  15.767  11.268 -0.0123  0.0669 -0.1429
    1loPI    C3    3   1.599  16.093  11.242  0.3531 -0.1935 -0.2398
    1loPI   PO4    4   1.352  15.717  10.738  0.2253  0.3037  0.1411
    1loPI   GL1    5   1.569  15.367  10.577 -0.1563 -0.1482 -0.1496
    1loPI   GL2    6   1.760  15.153  10.416  0.1994 -0.0832 -0.0002
    1loPI   C1A    7   1.395  15.454  10.121 -0.1030  0.1478 -0.1409
    1loPI   C2A    8   1.432  15.609   9.798  0.3291 -0.6268  0.0131
    1loPI   C3A    9   1.468  15.486   9.340 -0.3026 -0.0252  0.0227
    1loPI   C4A   10   1.450  15.522   8.915 -0.1578  0.1952 -0.0576
    1loPI   C5A   11   1.582  15.640   8.513 -0.2768  0.2892  0.1306
    1loPI   C6A   12   1.883  15.918   8.416  0.0157  0.1524  0.0766
    1loPI   C1B   13   1.963  15.304  10.064 -0.0388 -0.0245 -0.0511
    1loPI   C2B   14   1.891  15.411   9.801 -0.1076 -0.0911 -0.0906
    1loPI   C3B   15   1.980  15.314   9.408  0.1538  0.0242 -0.1687
    1loPI   C4B   16   1.861  15.304   9.003  0.1420  0.1052  0.1872
    2loPI    C1   17  13.493   7.229  10.898  0.1799 -0.0760  0.4310
    2loPI    C2   18  13.359   7.599  10.826  0.1082 -0.1997 -0.1156
    2loPI    C3   19  13.433   7.483  11.202  0.2793  0.4152  0.0534
    2loPI   PO4   20  13.554   7.174  10.700  0.1191 -0.1671  0.2066
    2loPI   GL1   21  13.285   7.275  10.350  0.0073 -0.4114 -0.2907
    2loPI   GL2   22  13.525   7.561  10.350 -0.1256 -0.0719  0.2924
    2loPI   C1A   23  13.376   7.196   9.928 -0.1108 -0.0621 -0.1613
    2loPI   C2A   24  13.406   7.230   9.425  0.2115 -0.0052  0.1584
    2loPI   C3A   25  13.397   7.246   8.957 -0.0361 -0.0563 -0.1616
    2loPI   C4A   26  13.542   7.296   8.507 -0.1560  0.0765 -0.1261
    2loPI   C5A   27  13.937   7.265   8.259  0.1453  0.3288  0.0557
    2loPI   C6A   28  14.135   7.195   7.916 -0.0472 -0.1781  0.1095
    2loPI   C1B   29  13.783   7.589   9.948 -0.1777  0.0109 -0.0434
    2loPI   C2B   30  13.788   7.512   9.609 -0.1474 -0.0928  0.3277
    2loPI   C3B   31  13.888   7.508   9.294 -0.0393 -0.2210  0.0107
    2loPI   C4B   32  13.797   7.538   8.868  0.1040 -0.3526  0.0524
    3loPI    C1   33   0.227   7.888  11.403  0.1465 -0.1187  0.1713
    3loPI    C2   34  -0.165   7.903  11.479  0.1504 -0.1447  0.1976
    3loPI    C3   35   0.033   8.236  11.379  0.0431 -0.1982 -0.2142
    3loPI   PO4   36   0.212   7.751  11.178  0.1418  0.2485  0.2443
    3loPI   GL1   37   0.540   7.703  10.851  0.0235  0.0243  0.0834
    3loPI   GL2   38   0.303   7.423  10.838  0.1266 -0.0265  0.1504
    3loPI   C1A   39   0.915   7.708  10.566 -0.3284 -0.3136  0.0708
    3loPI   C2A   40   0.838   7.807  10.088 -0.0657 -0.0460  0.0839
    3loPI   C3A   41   0.899   7.836   9.671  0.1333 -0.0244 -0.0471
    3loPI   C4A   42   0.875   7.886   9.341  0.1797 -0.1408  0.0560
    3loPI   C5A   43   0.911   7.827   8.924  0.0918  0.1259  0.0240
    3loPI   C6A   44   0.693   7.666   8.623  0.1020 -0.0723 -0.2636
    3loPI   C1B   45   0.071   7.281  10.423  0.0943  0.0859  0.1162
    3loPI   C2B   46   0.021   7.263   9.952  0.0320  0.0636 -0.0481
    3loPI   C3B   47  -0.001   7.286   9.567 -0.1657  0.0372 -0.1044
    3loPI   C4B   48  -0.012   7.337   9.210  0.0592  0.1194  0.2487
    4loPI    C1   49   8.989  17.076  11.144  0.2235 -0.0140 -0.0550
    4loPI    C2   50   9.093  17.453  11.226 -0.0125  0.0373  0.0157
    4loPI    C3   51   8.978  17.209  11.521  0.2202 -0.1171 -0.0184
    4loPI   PO4   52   9.073  17.102  10.902  0.0594 -0.2862 -0.0394
    4loPI   GL1   53   8.977  17.305  10.592 -0.4236  0.0886 -0.2149
    4loPI   GL2   54   8.663  17.377  10.493  0.0830 -0.1534  0.0403
    4loPI   C1A   55   9.032  17.210  10.190  0.6768 -0.0878 -0.0183
    4loPI   C2A   56   9.003  17.120   9.789 -0.0121  0.2068 -0.1302
    4loPI   C3A   57   9.030  17.109   9.323 -0.0936  0.0861  0.1227
    4loPI   C4A   58   9.056  17.042   8.913  0.0294 -0.2583  0.0805
    4loPI   C5A   59   8.844  17.250   8.430 -0.0087 -0.0005 -0.1029
    4loPI   C6A   60   8.609  17.281   8.077  0.1398  0.1227  0.1689
    4loPI   C1B   61   8.584  17.331  10.023 -0.1617 -0.1830 -0.1978
    4loPI   C2B   62   8.598  17.287   9.592  0.1014 -0.0102  0.2467
    4loPI   C3B   63   8.521  17.377   9.324 -0.0431  0.1934 -0.0112
    4loPI   C4B   64   8.590  17.332   8.940  0.4328  0.0809 -0.1878
    5loPI    C1   65   2.096  13.214  10.926 -0.0653  0.0878  0.0289
    5loPI    C2   66   1.879  12.906  11.059 -0.1200  0.1506  0.0859
    5loPI    C3   67   1.744  13.279  11.104 -0.0134  0.1884  0.0955
    5loPI   PO4   68   2.151  13.189  10.689 -0.3082  0.0723  0.0041
    5loPI   GL1   69   2.006  13.218  10.378  0.3903  0.0203 -0.3754
    5loPI   GL2   70   1.882  12.907  10.365 -0.2575 -0.0160 -0.0814
    5loPI   C1A   71   2.292  13.185  10.044 -0.1677 -0.4009  0.1255
    5loPI   C2A   72   2.288  13.244   9.669  0.1440 -0.0768  0.0349
    5loPI   C3A   73   2.244  13.195   9.182  0.0701  0.1058 -0.0312
    5loPI   C4A   74   2.193  13.192   8.791 -0.1532  0.0047  0.0126
    5loPI   C5A   75   2.402  13.159   8.345  0.1111 -0.1069 -0.0277
    5loPI   C6A   76   2.818  13.113   8.008  0.0619  0.5054 -0.2950
    5loPI   C1B   77   1.834  12.977   9.848  0.0712  0.0401 -0.3882
    5loPI   C2B   78   1.860  12.923   9.459 -0.3086  0.0790  0.1118
    5loPI   C3B   79   1.810  12.961   9.009 -0.2785 -0.1084 -0.0507
    5loPI   C4B   80   1.710  12.923   8.465  0.3705 -0.1850  0.3286
    6loPI    C1   81  10.943  13.248  11.386 -0.1183  0.0628 -0.1492
    6loPI    C2   82  11.299  13.132  11.526 -0.2585 -0.0353  0.1341
    6loPI    C3   83  10.964  12.964  11.667 -0.4159  0.0151 -0.1710
    6loPI   PO4   84  10.918  13.166  11.169 -0.1802  0.2434  0.0406
    6loPI   GL1   85  10.902  13.361  10.804  0.1043 -0.1962 -0.0970
    6loPI   GL2   86  11.026  13.616  10.693  0.1428 -0.1099  0.0972
    6loPI   C1A   87  10.846  13.449  10.250  0.1043 -0.1084  0.1623
    6loPI   C2A   88  10.859  13.469   9.891  0.0045  0.2069 -0.2516
    6loPI   C3A   89  10.849  13.536   9.460 -0.3479 -0.0034  0.0149
    6loPI   C4A   90  10.803  13.619   9.086  0.1173  0.5410  0.3394
    6loPI   C5A   91  10.963  13.677   8.726  0.0741 -0.1026 -0.0176
    6loPI   C6A   92  11.012  14.023   8.558  0.1517  0.0233 -0.0486
    6loPI   C1B   93  11.185  13.750  10.272  0.0621 -0.1460  0.1109
    6loPI   C2B   94  11.301  13.816   9.861  0.0314  0.1260 -0.1193
    6loPI   C3B   95  11.291  13.864   9.501  0.0410 -0.1570  0.2223
    6loPI   C4B   96  11.312  13.907   9.054  0.0780 -0.1169 -0.2162
    7loPI    C1   97   9.368   7.518  10.445 -0.0449 -0.0281  0.1342
    7loPI    C2   98   9.200   7.634  10.790 -0.0916  0.0051  0.1004
    7loPI    C3   99   9.275   7.246  10.724 -0.2823 -0.0256  0.0598
    7loPI   PO4  100   9.203   7.520  10.217  0.1522  0.0673 -0.1397
    7loPI   GL1  101   8.939   7.247  10.068  0.0175  0.1071 -0.0537
    7loPI   GL2  102   9.013   7.118   9.797 -0.0269 -0.0609  0.0585
    7loPI   C1A  103   8.608   7.370   9.737 -0.0778  0.0149  0.1304
    7loPI   C2A  104   8.514   7.367   9.264 -0.0898  0.0108  0.3874
    7loPI   C3A  105   8.607   7.384   8.803  0.0138 -0.0334  0.2272
    7loPI   C4A  106   8.699   7.595   8.451 -0.1894 -0.1216 -0.0130
    7loPI   C5A  107   8.836   7.384   8.077  0.2331  0.2366 -0.1837
    7loPI   C6A  108   8.553   7.059   7.833  0.1015 -0.0122 -0.1617
    7loPI   C1B  109   8.938   7.167   9.334 -0.2740  0.1934  0.2661
    7loPI   C2B  110   8.940   7.075   8.933 -0.0140 -0.1118  0.3715
    7loPI   C3B  111   9.071   7.200   8.492  0.2285  0.0665 -0.0949
    7loPI   C4B  112   9.324   7.440   8.190 -0.3005  0.1130  0.1115
    8loPI    C1  113   2.019  15.330  10.904  0.4028  0.0571 -0.2479
    8loPI    C2  114   2.216  15.558  11.167  0.2169  0.2036 -0.2332
    8loPI    C3  115   1.839  15.647  11.069  0.0255 -0.2886  0.0224
    8loPI   PO4  116   2.157  15.258  10.726 -0.0355  0.1950 -0.3113
    8loPI   GL1  117   2.363  15.368  10.346  0.3193  0.2724  0.0515
    8loPI   GL2  118   2.323  15.688  10.236  0.2837 -0.4400 -0.0155
    8loPI   C1A  119   2.414  15.101   9.933 -0.1132 -0.2559  0.0279
    8loPI   C2A  120   2.414  15.050   9.587 -0.1911 -0.0327  0.1115
    8loPI   C3A  121   2.417  15.061   9.130  0.1213  0.2683  0.2103
    8loPI   C4A  122   2.433  15.077   8.666 -0.0530  0.3512  0.0182
    8loPI   C5A  123   2.350  15.115   8.255  0.1662 -0.0564 -0.2717
    8loPI   C6A  124   2.471  14.959   7.857 -0.1726  0.0304 -0.0122
    8loPI   C1B  125   2.340  15.656   9.777 -0.0561 -0.0468  0.2494
    8loPI   C2B  126   2.401  15.569   9.316  0.0435  0.1587 -0.0489
    8loPI   C3B  127   2.336  15.527   8.919  0.4135 -0.1617 -0.2054
    8loPI   C4B  128   2.096  15.427   8.576 -0.0196  0.2631 -0.1568
    9loPI    C1  129   7.574  10.452  10.876 -0.2799  0.1231  0.0517
    9loPI    C2  130   7.578  10.426  11.275 -0.0821  0.0061  0.0430
    9loPI    C3  131   7.410  10.742  11.098  0.0760  0.1960  0.2266
    9loPI   PO4  132   7.736  10.318  10.765 -0.2875 -0.1475  0.0831
    9loPI   GL1  133   7.772  10.162  10.398 -0.2947 -0.0706 -0.3668
    9loPI   GL2  134   7.510  10.172  10.115 -0.1692 -0.3062 -0.0696
    9loPI   C1A  135   7.982  10.230   9.990  0.2284  0.0016  0.3289
    9loPI   C2A  136   7.930  10.198   9.495  0.0733  0.0165 -0.0903
    9loPI   C3A  137   7.890  10.181   9.182  0.2615 -0.2275  0.0661
    9loPI   C4A  138   7.848  10.180   8.720 -0.2848  0.0182 -0.4122
    9loPI   C5A  139   7.940  10.284   8.303 -0.3647  0.2389 -0.1699
    9loPI   C6A  140   8.191  10.203   7.868 -0.3438  0.1255 -0.2202
    9loPI   C1B  141   7.493  10.345   9.785  0.1060  0.0073 -0.2531
    9loPI   C2B  142   7.416  10.395   9.316 -0.1708  0.1408  0.3323
    9loPI   C3B  143   7.417  10.427   8.950 -0.1802 -0.2788 -0.0519
    9loPI   C4B  144   7.390  10.459   8.487  0.1014 -0.0245  0.1194
   10loPI    C1  145  15.419  13.004  11.626 -0.0093 -0.0040  0.1555
   10loPI    C2  146  15.032  12.909  11.662  0.0303 -0.1375  0.2348
   10loPI    C3  147  15.283  12.846  11.967  0.1322 -0.1350  0.1524
   10loPI   PO4  148  15.335  13.127  11.335  0.2521 -0.2690 -0.1448
   10loPI   GL1  149  15.381  13.281  10.797  0.1350  0.2196 -0.1689
   10loPI   GL2  150  15.552  12.942  10.946 -0.1288  0.0410 -0.1263
   10loPI   C1A  151  15.432  13.221  10.382 -0.2486 -0.1515  0.2023
   10loPI   C2A  152  15.419  13.175   9.987  0.0319  0.1518 -0.0315
   10loPI   C3A  153  15.501  13.204   9.483 -0.1795  0.0554 -0.2827
   10loPI   C4A  154  15.508  13.190   9.047 -0.0221 -0.2233 -0.0646
   10loPI   C5A  155  15.861  12.964   8.805  0.1009  0.1035 -0.1149
   10loPI   C6A  156  16.253  12.805   8.812  0.0040  0.0896 -0.1318
   10loPI   C1B  157  15.763  12.920  10.560 -0.5581  0.0927 -0.0316
   10loPI   C2B  158  15.876  13.020  10.154 -0.1944  0.0109 -0.3072
   10loPI   C3B  159  15.947  12.966   9.703  0.0569 -0.0980 -0.3243
   10loPI   C4B  160  16.080  12.985   9.294  0.1580 -0.3833  0.0041
   11loPI    C1  161  17.616  15.756  11.194 -0.2076 -0.0522  0.0716
   11loPI    C2  162  17.802  15.583  11.503  0.1194 -0.1180 -0.1568
   11loPI    C3  163  17.577  15.363  11.257 -0.2713 -0.0382  0.1202
   11loPI   PO4  164  17.698  15.898  10.957  0.0348 -0.0956 -0.1856
   11loPI   GL1  165  17.513  16.030  10.651  0.0187  0.4151  0.2271
   11loPI   GL2  166  17.877  15.821  10.486 -0.2567 -0.0326 -0.1611
   11loPI   C1A  167  17.338  16.150  10.272 -0.0324  0.1344 -0.2102
   11loPI   C2A  168  17.365  16.277   9.815 -0.0987 -0.0338 -0.1185
   11loPI   C3A  169  17.459  16.325   9.365 -0.0099 -0.2138  0.1528
   11loPI   C4A  170  17.452  16.268   8.966 -0.1196 -0.0514 -0.2569
   11loPI   C5A  171  17.354  16.253   8.590 -0.2240  0.2877 -0.2794
   11loPI   C6A  172  17.375  15.953   8.288  0.2113 -0.2373  0.0433
   11loPI   C1B  173  17.840  15.613  10.053 -0.0128 -0.0491  0.1500
   11loPI   C2B  174  17.929  15.637   9.641  0.1796 -0.2494 -0.1576
   11loPI   C3B  175  17.963  15.657   9.270 -0.0215  0.1326  0.3583
   11loPI   C4B  176  18.068  15.568   8.858 -0.4009  0.0656 -0.4876
   12loPI    C1  177  15.749   4.348  11.160  0.1899  0.0500 -0.1273
   12loPI    C2  178  15.664   4.655  11.404 -0.2102 -0.0880 -0.0854
   12loPI    C3  179  15.551   4.284  11.502  0.0268 -0.2115 -0.2678
   12loPI   PO4  180  15.735   4.400  10.927 -0.1270 -0.4992  0.0427
   12loPI   GL1  181  15.518   4.199  10.588  0.0223 -0.3034 -0.0308
   12loPI   GL2  182  15.267   4.038  10.529  0.4018 -0.0840 -0.0016
   12loPI   C1A  183  15.632   4.242  10.215  0.0706 -0.1323 -0.1166
   12loPI   C2A  184  15.494   4.335   9.729 -0.0832  0.2596  0.1503
   12loPI   C3A  185  15.521   4.279   9.252  0.2035  0.1543  0.0067
   12loPI   C4A  186  15.543   4.303   8.868  0.1669 -0.2729  0.1093
   12loPI   C5A  187  15.376   4.457   8.507  0.1113  0.2139 -0.0707
   12loPI   C6A  188  15.065   4.389   8.498  0.2749  0.3060  0.0715
   12loPI   C1B  189  15.200   4.034  10.093 -0.1729  0.0551 -0.1392
   12loPI   C2B  190  15.120   4.017   9.667 -0.0851  0.1973 -0.0366
   12loPI   C3B  191  15.148   3.997   9.227  0.1392  0.0309  0.1868
   12loPI   C4B  192  15.087   4.009   8.829  0.0298 -0.2234 -0.1427
   13loPI    C1  193   3.334  10.365  11.283  0.1429 -0.1701  0.1469
   13loPI    C2  194   3.685  10.543  11.352  0.0029  0.1882 -0.0431
   13loPI    C3  195   3.373  10.618  11.590  0.0113 -0.0068  0.0307
   13loPI   PO4  196   3.331  10.379  10.997  0.2018 -0.0071  0.0863
   13loPI   GL1  197   3.398  10.094  10.788  0.0942  0.3226 -0.0421
   13loPI   GL2  198   3.739  10.146  10.688 -0.1497  0.1158 -0.0210
   13loPI   C1A  199   3.353  10.229  10.341 -0.1627  0.0920 -0.3590
   13loPI   C2A  200   3.349  10.251   9.892 -0.0289 -0.0453  0.0025
   13loPI   C3A  201   3.248  10.159   9.416 -0.0827  0.1068 -0.0230
   13loPI   C4A  202   3.413  10.142   9.004  0.3258 -0.1538  0.0452
   13loPI   C5A  203   3.713  10.346   8.700  0.2658 -0.1118 -0.0385
   13loPI   C6A  204   4.102  10.308   8.765 -0.0466 -0.0375  0.1700
   13loPI   C1B  205   3.835   9.946  10.328  0.1991 -0.0338  0.1549
   13loPI   C2B  206   3.837   9.995   9.909 -0.0713 -0.0482  0.1205
   13loPI   C3B  207   3.826   9.989   9.460  0.3215  0.1053  0.2357
   13loPI   C4B  208   3.827   9.914   9.027  0.0306  0.0686 -0.0074
   14loPI    C1  209  10.906  12.340  11.297 -0.1606  0.0116 -0.3296
   14loPI    C2  210  11.218  12.412  11.057  0.0829  0.2817  0.0556
   14loPI    C3  211  11.064  12.707  11.279  0.0225 -0.0148  0.4182
   14loPI   PO4  212  10.709  12.223  11.042  0.1943 -0.0419 -0.0218
   14loPI   GL1  213  10.756  12.073  10.583  0.1011 -0.1837 -0.0955
   14loPI   GL2  214  10.852  11.791  10.461  0.2932  0.2044 -0.2373
   14loPI   C1A  215  10.612  12.173  10.112 -0.0647  0.0464  0.0694
   14loPI   C2A  216  10.624  12.162   9.653 -0.0171 -0.2828 -0.1639
   14loPI   C3A  217  10.560  12.251   9.268  0.3054 -0.0440 -0.0456
   14loPI   C4A  218  10.462  12.387   8.957 -0.0568  0.0907 -0.1212
   14loPI   C5A  219  10.403  12.596   8.602  0.0903  0.0008 -0.0273
   14loPI   C6A  220  10.596  12.927   8.507 -0.1190  0.2411  0.1592
   14loPI   C1B  221  11.090  11.937  10.073  0.1519  0.1065 -0.1225
   14loPI   C2B  222  11.089  11.908   9.573  0.1641 -0.0931  0.1137
   14loPI   C3B  223  10.986  12.047   9.162  0.2803  0.0601 -0.1229
   14loPI   C4B  224  10.868  12.113   8.815  0.1245 -0.2569  0.0858
   15loPI    C1  225   4.000  15.398  11.073 -0.0253  0.1784 -0.0401
   15loPI    C2  226   3.906  15.783  11.130 -0.0036  0.1661  0.0820
   15loPI    C3  227   3.876  15.522  11.432 -0.0822  0.0581 -0.0179
   15loPI   PO4  228   3.897  15.297  10.837 -0.0578 -0.3093 -0.0341
   15loPI   GL1  229   4.038  15.356  10.457 -0.0640  0.1562 -0.1082
   15loPI   GL2  230   3.745  15.481  10.267  0.0305  0.3557  0.1823
   15loPI   C1A  231   4.138  15.200  10.041  0.0780 -0.2190 -0.4387
   15loPI   C2A  232   4.204  15.165   9.654  0.1154 -0.1481 -0.1795
   15loPI   C3A  233   4.268  15.240   9.314  0.1103 -0.0492  0.1536
   15loPI   C4A  234   4.259  15.211   8.943 -0.1863  0.0514 -0.0356
   15loPI   C5A  235   4.112  15.252   8.519 -0.3427 -0.1801 -0.0975
   15loPI   C6A  236   3.938  15.383   8.155 -0.3632  0.0939  0.0642
   15loPI   C1B  237   3.716  15.377   9.775 -0.1613 -0.4087 -0.1376
   15loPI   C2B  238   3.818  15.499   9.359 -0.2330 -0.1430 -0.0790
   15loPI   C3B  239   3.793  15.479   8.842  0.0795  0.3354 -0.1240
   15loPI   C4B  240   3.755  15.648   8.522 -0.0826  0.1246  0.0646
   16loPI    C1  241   2.036   9.789  11.620 -0.0423 -0.3136 -0.0656
   16loPI    C2  242   2.350   9.685  11.845  0.0041 -0.0307  0.0046
   16loPI    C3  243   2.029   9.852  12.015  0.0142  0.1281 -0.1296
   16loPI   PO4  244   2.103   9.918  11.417  0.0798  0.0649 -0.1077
   16loPI   GL1  245   2.178   9.780  11.046  0.1509 -0.0704 -0.0063
   16loPI   GL2  246   2.435   9.879  10.948 -0.2976 -0.2231  0.1573
   16loPI   C1A  247   1.978   9.983  10.668  0.1498 -0.1875 -0.2431
   16loPI   C2A  248   1.662   9.975  10.427 -0.1167  0.1929  0.0448
   16loPI   C3A  249   1.571  10.073   9.976 -0.1271  0.1725  0.0612
   16loPI   C4A  250   1.568   9.992   9.610  0.1359 -0.0323 -0.4813
   16loPI   C5A  251   1.638  10.076   9.202 -0.0313  0.1317 -0.0068
   16loPI   C6A  252   1.595   9.922   8.780  0.0984 -0.1307 -0.2157
   16loPI   C1B  253   2.558   9.691  10.445  0.2504 -0.0534 -0.1168
   16loPI   C2B  254   2.538   9.644   9.993  0.1479 -0.2062  0.2006
   16loPI   C3B  255   2.295   9.470   9.687 -0.1784 -0.1450  0.1171
   16loPI   C4B  256   2.091   9.247   9.465 -0.2488 -0.0860 -0.3823
   17loPI    C1  257   1.454   2.529  10.852 -0.2888 -0.3342 -0.3324
   17loPI    C2  258   1.491   2.317  11.188  0.1643  0.3147  0.0503
   17loPI    C3  259   1.128   2.405  11.047 -0.0302 -0.3032  0.1349
   17loPI   PO4  260   1.642   2.405  10.598 -0.1255 -0.0615  0.1638
   17loPI   GL1  261   1.878   2.469  10.226 -0.1613 -0.0654  0.2343
   17loPI   GL2  262   1.897   2.806  10.351 -0.1886  0.0366  0.0520
   17loPI   C1A  263   1.800   2.423   9.842 -0.1505 -0.1583 -0.0519
   17loPI   C2A  264   1.817   2.389   9.443 -0.0876  0.0628  0.2093
   17loPI   C3A  265   1.777   2.402   9.056  0.3847  0.0874 -0.1263
   17loPI   C4A  266   1.792   2.566   8.584 -0.0593  0.0739  0.1331
   17loPI   C5A  267   1.519   2.740   8.399  0.1018 -0.4793  0.0132
   17loPI   C6A  268   1.313   3.163   8.390  0.0310 -0.0082 -0.0738
   17loPI   C1B  269   1.842   3.189  10.316  0.1183  0.1647  0.0848
   17loPI   C2B  270   1.831   3.567  10.056  0.2796 -0.1260 -0.2447
   17loPI   C3B  271   1.761   3.504   9.617  0.0710 -0.1548  0.1991
   17loPI   C4B  272   1.499   3.226   9.462  0.0230  0.1378  0.0573
   18loPI    C1  273  11.961   5.562  10.740 -0.1845 -0.1571 -0.0171
   18loPI    C2  274  11.942   5.186  10.876 -0.0069 -0.1041  0.1592
   18loPI    C3  275  12.248   5.421  10.981 -0.1452  0.1080  0.0942
   18loPI   PO4  276  11.923   5.549  10.501 -0.0666  0.0075  0.1111
   18loPI   GL1  277  11.764   5.610  10.122  0.0856 -0.3469  0.2084
   18loPI   GL2  278  12.037   5.851  10.016  0.0440 -0.1229  0.1189
   18loPI   C1A  279  11.783   5.439   9.689  0.3285 -0.1981  0.0023
   18loPI   C2A  280  11.812   5.609   9.301  0.1534  0.2724 -0.1860
   18loPI   C3A  281  11.803   5.506   8.862 -0.0229  0.1255 -0.2284
   18loPI   C4A  282  11.847   5.496   8.440 -0.0555 -0.0801  0.1745
   18loPI   C5A  283  11.886   5.402   8.029  0.3070  0.2679  0.2528
   18loPI   C6A  284  12.012   5.227   7.585  0.1080  0.1650  0.1382
   18loPI   C1B  285  12.173   5.753   9.573  0.0874 -0.0165 -0.2742
   18loPI   C2B  286  12.185   5.862   9.070 -0.2219  0.1229  0.0054
   18loPI   C3B  287  12.197   5.851   8.617  0.0012 -0.1980  0.0530
   18loPI   C4B  288  12.237   5.767   8.215 -0.4031  0.2584  0.3684
   19loPI    C1  289   0.253   1.179  10.968  0.1543  0.2930 -0.0494
   19loPI    C2  290  -0.142   1.227  10.927  0.0988 -0.0460  0.0531
   19loPI    C3  291   0.054   1.422  11.216  0.0306  0.2220 -0.0780
   19loPI   PO4  292   0.273   1.235  10.659 -0.0315 -0.1135 -0.3004
   19loPI   GL1  293   0.118   1.501  10.358 -0.2319  0.0061 -0.0124
   19loPI   GL2  294   0.177   1.161  10.163  0.1014  0.0446 -0.1167
   19loPI   C1A  295   0.120   1.670   9.924  0.3828 -0.0936 -0.0490
   19loPI   C2A  296   0.189   1.655   9.571 -0.1428  0.1687  0.2295
   19loPI   C3A  297   0.137   1.737   9.132 -0.0463 -0.0185 -0.1930
   19loPI   C4A  298   0.022   1.650   8.685  0.1404 -0.3898  0.1452
   19loPI   C5A  299   0.223   1.569   8.366  0.3257 -0.1150 -0.1079
   19loPI   C6A  300   0.633   1.529   8.311  0.1065  0.0014 -0.0406
   19loPI   C1B  301   0.131   1.170   9.752 -0.4372  0.2998 -0.0464
   19loPI   C2B  302   0.192   1.203   9.326 -0.0390 -0.0994  0.3181
   19loPI   C3B  303   0.171   1.183   8.914  0.1072 -0.1795 -0.1125
   19loPI   C4B  304   0.045   1.085   8.505  0.0710  0.2351  0.0507
   20loPI    C1  305  10.596  15.219  11.279 -0.1491  0.1985  0.0451
   20loPI    C2  306  10.911  15.129  11.508  0.0221  0.2002 -0.1861
   20loPI    C3  307  10.541  15.102  11.657  0.1108 -0.1414 -0.0172
   20loPI   PO4  308  10.719  15.431  11.141  0.1162  0.1621  0.2020
   20loPI   GL1  309  10.695  15.633  10.716 -0.0956  0.1242 -0.0993
   20loPI   GL2  310  10.357  15.533  10.784 -0.1060  0.1140 -0.1285
   20loPI   C1A  311  10.538  15.572  10.256  0.1001 -0.1214 -0.1802
   20loPI   C2A  312  10.634  15.599   9.883 -0.0677 -0.0363 -0.0689
   20loPI   C3A  313  10.677  15.566   9.416  0.2013 -0.1683  0.0474
   20loPI   C4A  314  10.646  15.620   8.951 -0.3147  0.0590 -0.0584
   20loPI   C5A  315  10.595  15.579   8.557 -0.0252  0.1944 -0.0797
   20loPI   C6A  316  10.273  15.459   8.258  0.2058 -0.2978  0.0516
   20loPI   C1B  317  10.205  15.247  10.430 -0.1639 -0.0667 -0.0269
   20loPI   C2B  318  10.042  15.244  10.041  0.1231  0.0542 -0.1539
   20loPI   C3B  319  10.175  15.243   9.603 -0.1526  0.1579  0.2241
   20loPI   C4B  320  10.254  15.355   9.209 -0.2283 -0.0870 -0.0913
   21loPI    C1  321   9.458  17.066  11.453  0.0200 -0.1779 -0.1576
   21loPI    C2  322   9.733  17.224  11.697  0.0160 -0.2110 -0.1317
   21loPI    C3  323   9.369  17.388  11.672 -0.0132 -0.2624 -0.0460
   21loPI   PO4  324   9.574  17.148  11.125  0.0359 -0.0204 -0.2177
   21loPI   GL1  325   9.441  17.381  10.834 -0.2003  0.4360 -0.1159
   21loPI   GL2  326   9.508  17.115  10.655 -0.0541  0.3274  0.0156
   21loPI   C1A  327   9.436  17.536  10.445 -0.0491  0.3586 -0.0004
   21loPI   C2A  328   9.398  17.462  10.015 -0.1836  0.0449 -0.0968
   21loPI   C3A  329   9.345  17.368   9.538  0.1226 -0.0513  0.0118
   21loPI   C4A  330   9.469  17.464   9.182  0.0508  0.3186 -0.0436
   21loPI   C5A  331   9.410  17.387   8.797 -0.2342 -0.0717 -0.0145
   21loPI   C6A  332   9.372  17.781   8.461 -0.1127 -0.1468  0.0443
   21loPI   C1B  333   9.488  16.948  10.199  0.1254 -0.2183  0.1286
   21loPI   C2B  334   9.520  16.926   9.726  0.4037  0.1274 -0.2102
   21loPI   C3B  335   9.481  16.928   9.257 -0.1232 -0.0333 -0.1353
   21loPI   C4B  336   9.566  16.889   8.786 -0.0550 -0.0147  0.0326
   22loPI    C1  337   9.736   5.126  10.900  0.1374  0.0225 -0.1300
   22loPI    C2  338   9.501   5.424  10.775 -0.1197 -0.1707 -0.1163
   22loPI    C3  339   9.857   5.505  10.939 -0.1539  0.1233 -0.1813
   22loPI   PO4  340   9.804   4.936  10.726 -0.0178  0.1063 -0.0626
   22loPI   GL1  341   9.698   4.707  10.357  0.2117  0.3337 -0.2569
   22loPI   GL2  342   9.923   4.471  10.475 -0.2997 -0.1324 -0.1346
   22loPI   C1A  343   9.717   4.845   9.987  0.2976  0.0552 -0.3706
   22loPI   C2A  344   9.644   4.891   9.579 -0.0407  0.1112  0.0360
   22loPI   C3A  345   9.702   4.745   9.127 -0.1163  0.3000  0.2430
   22loPI   C4A  346   9.600   4.920   8.667 -0.0018  0.1116 -0.1999
   22loPI   C5A  347   9.337   4.603   8.345 -0.0072 -0.1568 -0.1938
   22loPI   C6A  348   9.251   4.625   7.927  0.1670  0.3032 -0.1845
   22loPI   C1B  349  10.119   4.373  10.080  0.0966 -0.0404 -0.2886
   22loPI   C2B  350  10.215   4.225   9.715  0.1525  0.1606  0.1515
   22loPI   C3B  351  10.183   4.128   9.259  0.0327 -0.2112 -0.2443
   22loPI   C4B  352  10.257   4.152   8.846 -0.1483  0.1198  0.0047
   23loPI    C1  353   7.651   7.718  11.191 -0.2502 -0.5478 -0.0341
   23loPI    C2  354   7.361   7.841  11.438 -0.0570 -0.1159 -0.0137
   23loPI    C3  355   7.664   7.620  11.578 -0.1136 -0.1415  0.0692
   23loPI   PO4  356   7.542   7.603  10.944 -0.0955 -0.3040 -0.3657
   23loPI   GL1  357   7.346   7.609  10.644 -0.1146 -0.4468  0.1274
   23loPI   GL2  358   7.536   7.351  10.511 -0.1809  0.2939  0.1449
   23loPI   C1A  359   7.259   7.549  10.132  0.1878 -0.2277  0.3164
   23loPI   C2A  360   7.153   7.506   9.650 -0.0104 -0.0722  0.0509
   23loPI   C3A  361   7.221   7.520   9.178  0.0782 -0.1107 -0.0086
   23loPI   C4A  362   7.204   7.491   8.766 -0.1375  0.3987 -0.1362
   23loPI   C5A  363   7.326   7.372   8.478 -0.0776 -0.0986 -0.1792
   23loPI   C6A  364   7.306   6.958   8.192  0.0758 -0.0003 -0.0280
   23loPI   C1B  365   7.688   7.332  10.078 -0.0539 -0.3953 -0.1444
   23loPI   C2B  366   7.677   7.274   9.666  0.1793  0.3071  0.3563
   23loPI   C3B  367   7.697   7.273   9.258  0.5814  0.1570 -0.0750
   23loPI   C4B  368   7.656   7.339   8.842  0.0489  0.0259 -0.1203
   24loPI    C1  369   5.197   1.035  11.358 -0.0338  0.0505  0.0623
   24loPI    C2  370   5.194   0.636  11.392 -0.0991  0.0308 -0.1600
   24loPI    C3  371   5.524   0.843  11.484 -0.0169 -0.0878 -0.1859
   24loPI   PO4  372   5.138   1.053  11.081 -0.0825 -0.0162 -0.1664
   24loPI   GL1  373   5.074   0.930  10.665  0.0518 -0.3939 -0.1158
   24loPI   GL2  374   5.078   1.187  10.529  0.1123  0.2966  0.2286
   24loPI   C1A  375   5.074   0.886  10.147 -0.0076  0.0260  0.1029
   24loPI   C2A  376   5.143   0.985   9.655  0.0943 -0.0894  0.0871
   24loPI   C3A  377   5.343   0.949   9.298  0.0127  0.2029  0.3954
   24loPI   C4A  378   5.325   0.880   8.785  0.1465 -0.2297  0.0577
   24loPI   C5A  379   5.448   1.033   8.397  0.1487 -0.1726 -0.2440
   24loPI   C6A  380   5.294   1.029   7.915 -0.0712 -0.0101 -0.0024
   24loPI   C1B  381   5.162   1.423  10.159  0.3004  0.0570 -0.2431
   24loPI   C2B  382   5.078   1.460   9.713  0.0498 -0.0673 -0.0298
   24loPI   C3B  383   5.166   1.432   9.342 -0.0944 -0.2491  0.0436
   24loPI   C4B  384   5.209   1.315   8.955 -0.2632 -0.1038 -0.0078
   25loPI    C1  385  11.399   3.069  10.892 -0.0464  0.2424  0.0896
   25loPI    C2  386  11.427   3.224  11.260  0.1998  0.0681  0.1470
   25loPI    C3  387  11.674   2.931  11.148  0.0735  0.0655 -0.1320
   25loPI   PO4  388  11.427   3.262  10.688  0.0692  0.1822 -0.0325
   25loPI   GL1  389  11.195   3.256  10.287 -0.1951 -0.1284  0.5224
   25loPI   GL2  390  11.226   3.598  10.229  0.0986 -0.1831 -0.3057
   25loPI   C1A  391  10.926   3.056  10.032 -0.1427  0.0026 -0.0245
   25loPI   C2A  392  10.721   2.948   9.713 -0.0431 -0.1402 -0.0943
   25loPI   C3A  393  10.827   2.934   9.252 -0.3166  0.1133 -0.1380
   25loPI   C4A  394  10.797   2.862   8.834  0.1953  0.0949 -0.0617
   25loPI   C5A  395  10.794   2.925   8.384 -0.1894 -0.1504  0.0629
   25loPI   C6A  396  11.092   2.701   8.092  0.2763  0.0351  0.3799
   25loPI   C1B  397  11.197   3.406   9.712 -0.1419  0.2788 -0.1575
   25loPI   C2B  398  11.252   3.264   9.334  0.0630 -0.2270  0.0767
   25loPI   C3B  399  11.246   3.236   8.847  0.0083  0.2317  0.0792
   25loPI   C4B  400  11.279   3.225   8.374 -0.2989 -0.0130  0.0232
   26loPI    C1  401  11.932   7.774  10.616  0.4394 -0.1786  0.0262
   26loPI    C2  402  11.772   7.635  10.955  0.3070 -0.0631  0.0118
   26loPI    C3  403  11.848   8.026  10.915  0.0379 -0.0295 -0.2037
   26loPI   PO4  404  12.154   7.686  10.568 -0.1481  0.1224  0.2783
   26loPI   GL1  405  12.446   7.647  10.116  0.0795 -0.0880 -0.1097
   26loPI   GL2  406  12.603   7.776  10.270  0.1733  0.1092  0.0776
   26loPI   C1A  407  12.443   7.566   9.649  0.2502  0.2242  0.1539
   26loPI   C2A  408  12.450   7.681   9.226 -0.1930  0.0792  0.0006
   26loPI   C3A  409  12.493   7.641   8.807 -0.1435 -0.0266 -0.2229
   26loPI   C4A  410  12.640   7.501   8.456  0.2083  0.0415  0.0404
   26loPI   C5A  411  13.039   7.294   8.239  0.0206 -0.0201 -0.2873
   26loPI   C6A  412  13.111   7.105   7.896 -0.1297 -0.1112  0.0498
   26loPI   C1B  413  12.772   7.923   9.859 -0.2153  0.1651  0.0694
   26loPI   C2B  414  12.839   7.931   9.529  0.1068 -0.0186  0.1659
   26loPI   C3B  415  12.887   8.005   9.030 -0.1677  0.2240 -0.1487
   26loPI   C4B  416  12.848   8.025   8.581  0.1539  0.0010  0.0887
   27loPI    C1  417  16.953  10.368  11.006  0.1896 -0.1186  0.0658
   27loPI    C2  418  16.972  10.122  11.321 -0.0638 -0.0693  0.1215
   27loPI    C3  419  16.751  10.455  11.340  0.1864  0.1062  0.0063
   27loPI   PO4  420  17.066  10.272  10.839 -0.2316  0.2292 -0.2727
   27loPI   GL1  421  17.146  10.152  10.479 -0.1672 -0.0454 -0.4623
   27loPI   GL2  422  17.274  10.524  10.387  0.2904 -0.0382 -0.3633
   27loPI   C1A  423  17.135  10.002  10.141 -0.2967  0.0048 -0.1161
   27loPI   C2A  424  17.141  10.049   9.737  0.4066 -0.1870  0.0407
   27loPI   C3A  425  17.214  10.113   9.405 -0.0227  0.1857 -0.3344
   27loPI   C4A  426  17.157  10.167   8.943  0.2512  0.1029 -0.0022
   27loPI   C5A  427  17.108  10.194   8.474 -0.0150 -0.0429  0.0938
   27loPI   C6A  428  17.348  10.270   8.081  0.3113  0.0634 -0.1295
   27loPI   C1B  429  17.130  10.464  10.008 -0.0307 -0.0809  0.3091
   27loPI   C2B  430  17.169  10.565   9.603 -0.2870  0.1942 -0.0221
   27loPI   C3B  431  17.126  10.616   9.170 -0.2033 -0.0611  0.2049
   27loPI   C4B  432  17.092  10.625   8.662 -0.2952 -0.0566  0.0106
   28loPI    C1  433   7.729   6.855  10.953  0.1967 -0.2035  0.2179
   28loPI    C2  434   8.051   6.908  11.184  0.2964 -0.0216  0.0399
   28loPI    C3  435   7.717   7.114  11.258  0.2540 -0.1318  0.1594
   28loPI   PO4  436   7.793   6.822  10.718 -0.0608 -0.0353  0.2301
   28loPI   GL1  437   7.942   6.930  10.386 -0.1473  0.5774  0.1400
   28loPI   GL2  438   8.173   6.683  10.284  0.1847  0.0054 -0.1638
   28loPI   C1A  439   7.754   6.859  10.029 -0.0532  0.2566 -0.0549
   28loPI   C2A  440   7.752   6.738   9.619  0.2063  0.0038 -0.2074
   28loPI   C3A  441   7.733   6.682   9.196  0.1977  0.1371 -0.0539
   28loPI   C4A  442   7.716   6.725   8.755 -0.0517 -0.0833 -0.1327
   28loPI   C5A  443   7.758   7.008   8.451  0.2037 -0.0936  0.3319
   28loPI   C6A  444   7.777   7.448   8.391  0.0404  0.1107 -0.0167
   28loPI   C1B  445   8.195   6.604   9.771  0.0677  0.1858  0.4296
   28loPI   C2B  446   8.197   6.563   9.311  0.2169  0.0218  0.0615
   28loPI   C3B  447   8.154   6.572   8.901 -0.3101 -0.1913 -0.1685
   28loPI   C4B  448   8.155   6.630   8.480  0.3247  0.0542  0.0596
   29loPI    C1  449   5.749  13.766  11.063  0.1121  0.2388  0.0593
   29loPI    C2  450   5.887  13.394  11.115 -0.0242  0.1696 -0.0661
   29loPI    C3  451   5.911  13.660  11.413  0.0397  0.0496  0.0365
   29loPI   PO4  452   5.725  13.749  10.853 -0.0108  0.0540 -0.1143
   29loPI   GL1  453   5.443  13.552  10.585 -0.1169 -0.1137 -0.0485
   29loPI   GL2  454   5.343  13.860  10.421  0.0305  0.0851 -0.0028
   29loPI   C1A  455   5.466  13.271  10.243  0.1129 -0.1971  0.2333
   29loPI   C2A  456   5.329  13.345   9.926 -0.2654 -0.0386  0.0837
   29loPI   C3A  457   5.385  13.235   9.455 -0.0864 -0.1403  0.2498
   29loPI   C4A  458   5.424  13.242   9.015 -0.0376  0.0735  0.4001
   29loPI   C5A  459   5.362  13.194   8.574  0.4583  0.1972  0.1289
   29loPI   C6A  460   5.219  12.952   8.208 -0.3589 -0.2994  0.0291
   29loPI   C1B  461   5.235  13.831   9.957 -0.3257  0.1196  0.0926
   29loPI   C2B  462   5.252  13.732   9.505 -0.0468 -0.1864 -0.0824
   29loPI   C3B  463   5.354  13.733   9.156  0.2073  0.0698  0.2633
   29loPI   C4B  464   5.209  13.726   8.826  0.0074 -0.0111  0.1736
   30loPI    C1  465   3.795  12.356  11.513  0.0296  0.1740 -0.1453
   30loPI    C2  466   3.746  12.137  11.843  0.0819  0.1315 -0.1658
   30loPI    C3  467   3.822  12.528  11.873 -0.2915  0.2051 -0.1335
   30loPI   PO4  468   3.689  12.252  11.277 -0.0151 -0.3093 -0.1020
   30loPI   GL1  469   3.729  12.523  10.966 -0.1642 -0.4012  0.0566
   30loPI   GL2  470   3.769  12.270  10.787 -0.0921  0.3059  0.1382
   30loPI   C1A  471   3.636  12.640  10.520 -0.2498 -0.0644  0.2391
   30loPI   C2A  472   3.592  12.599  10.145 -0.0808  0.3045 -0.2055
   30loPI   C3A  473   3.622  12.568   9.703  0.0736  0.0294 -0.0954
   30loPI   C4A  474   3.552  12.581   9.272 -0.3586 -0.1763 -0.1196
   30loPI   C5A  475   3.658  12.626   8.852 -0.0728 -0.1683 -0.0339
   30loPI   C6A  476   3.589  12.479   8.485  0.0787  0.0240 -0.1678
   30loPI   C1B  477   3.730  12.160  10.351 -0.0334  0.1119 -0.1084
   30loPI   C2B  478   3.680  12.102   9.915 -0.2421 -0.1579  0.0951
   30loPI   C3B  479   3.755  12.050   9.441  0.1522 -0.1596  0.0625
   30loPI   C4B  480   3.668  12.140   9.035 -0.0708 -0.1376  0.1399
   31loPI    C1  481  11.562  10.636  10.980 -0.0643 -0.1487 -0.0966
   31loPI    C2  482  11.404  10.507  11.324 -0.0685  0.0301 -0.0305
   31loPI    C3  483  11.743  10.719  11.327 -0.0979  0.0790 -0.1321
   31loPI   PO4  484  11.435  10.634  10.813  0.0236 -0.2890 -0.0479
   31loPI   GL1  485  11.434  10.671  10.390  0.0178  0.0407  0.0161
   31loPI   GL2  486  11.232  10.859  10.159  0.0246  0.1138  0.0291
   31loPI   C1A  487  11.609  10.547  10.015  0.0160  0.3183 -0.1145
   31loPI   C2A  488  11.589  10.684   9.556  0.1683 -0.0695  0.0674
   31loPI   C3A  489  11.482  10.785   9.082 -0.1701 -0.2224  0.0565
   31loPI   C4A  490  11.649  10.820   8.766 -0.1738  0.2710 -0.1603
   31loPI   C5A  491  11.768  10.898   8.398  0.0651  0.1239 -0.1108
   31loPI   C6A  492  11.781  11.345   8.395 -0.2045 -0.0859  0.0851
   31loPI   C1B  493  11.219  10.925   9.803 -0.0188 -0.0609  0.2892
   31loPI   C2B  494  11.097  10.923   9.385 -0.2014  0.0966 -0.1077
   31loPI   C3B  495  11.089  11.042   8.963 -0.2250  0.0022  0.0169
   31loPI   C4B  496  11.260  11.180   8.624  0.2739 -0.0750 -0.0184
   32loPI    C1  497   3.099  15.011  11.210  0.0881  0.0460  0.1457
   32loPI    C2  498   2.770  15.154  11.388  0.0364  0.1081  0.0016
   32loPI    C3  499   3.095  15.069  11.606  0.0253  0.3272  0.1059
   32loPI   PO4  500   3.125  15.151  10.973 -0.2319  0.0240 -0.0603
   32loPI   GL1  501   2.950  15.221  10.566 -0.0056  0.2139 -0.1469
   32loPI   GL2  502   3.027  14.860  10.598 -0.0877 -0.0201 -0.1706
   32loPI   C1A  503   2.862  15.433  10.219 -0.2129 -0.1059 -0.3142
   32loPI   C2A  504   2.814  15.441   9.718 -0.0034  0.4315  0.1147
   32loPI   C3A  505   2.840  15.335   9.353  0.2404  0.0600 -0.1948
   32loPI   C4A  506   2.842  15.385   8.911 -0.2296 -0.0884  0.1454
   32loPI   C5A  507   2.698  15.465   8.512  0.0829 -0.1475  0.1007
   32loPI   C6A  508   2.458  15.814   8.354  0.0402  0.0349 -0.0566
   32loPI   C1B  509   2.864  14.942  10.139 -0.1772  0.0637 -0.1192
   32loPI   C2B  510   2.837  14.872   9.735 -0.0760 -0.0452 -0.2988
   32loPI   C3B  511   2.844  14.809   9.305  0.3658  0.0401  0.0435
   32loPI   C4B  512   2.929  14.847   8.863  0.0655  0.1780  0.3457
   33loPI    C1  513  11.193   1.895  11.109  0.0009 -0.0823 -0.2010
   33loPI    C2  514  11.429   1.992  11.417  0.0975 -0.0402 -0.2880
   33loPI    C3  515  11.172   2.261  11.270 -0.2718 -0.2029  0.0454
   33loPI   PO4  516  11.402   1.821  10.883 -0.1418  0.4315 -0.2471
   33loPI   GL1  517  11.298   1.793  10.477 -0.1167  0.0943  0.1256
   33loPI   GL2  518  11.448   2.021  10.417 -0.0240  0.1464 -0.0074
   33loPI   C1A  519  11.118   1.503  10.213  0.2309  0.1030  0.2580
   33loPI   C2A  520  11.078   1.350   9.857 -0.1390 -0.2042 -0.0269
   33loPI   C3A  521  10.949   1.408   9.380  0.0424  0.3272 -0.0051
   33loPI   C4A  522  10.945   1.396   8.971 -0.0021 -0.0749 -0.0483
   33loPI   C5A  523  10.848   1.389   8.573 -0.0908  0.1258  0.1954
   33loPI   C6A  524  10.788   1.276   8.176  0.2142  0.2364  0.1427
   33loPI   C1B  525  11.477   2.285  10.033 -0.2151  0.0403 -0.1529
   33loPI   C2B  526  11.339   2.366   9.634 -0.0050 -0.0037 -0.2653
   33loPI   C3B  527  11.320   2.237   9.234 -0.0204  0.0087  0.1999
   33loPI   C4B  528  11.379   2.179   8.808 -0.0797 -0.1501 -0.0815
   34loPI    C1  529   0.175  10.453  11.335 -0.1309  0.2042  0.0707
   34loPI    C2  530   0.323  10.275  11.661 -0.0175  0.1937  0.0139
   34loPI    C3  531  -0.071  10.272  11.594 -0.0145 -0.0673 -0.0045
   34loPI   PO4  532   0.336  10.459  11.142  0.0471 -0.1908  0.1389
   34loPI   GL1  533   0.429  10.203  10.782 -0.1023 -0.2143 -0.1263
   34loPI   GL2  534   0.307  10.074  10.482  0.1624 -0.1829  0.0580
   34loPI   C1A  535   0.737  10.375  10.473  0.1151  0.4975 -0.0804
   34loPI   C2A  536   0.683  10.424  10.057  0.0812  0.3502 -0.0234
   34loPI   C3A  537   0.613  10.520   9.667 -0.1860  0.1278 -0.0370
   34loPI   C4A  538   0.633  10.428   9.269 -0.0520 -0.0379 -0.5383
   34loPI   C5A  539   0.542  10.450   8.729 -0.0511  0.2667  0.1237
   34loPI   C6A  540   0.469  10.216   8.446  0.0752 -0.1418  0.0285
   34loPI   C1B  541   0.262  10.073  10.072  0.1779 -0.2536  0.0062
   34loPI   C2B  542   0.213  10.105   9.697 -0.2038 -0.0442 -0.0978
   34loPI   C3B  543   0.189  10.111   9.238 -0.3336 -0.3709  0.0878
   34loPI   C4B  544   0.125  10.214   8.836  0.2393 -0.1147  0.3408
   35loPI    C1  545  14.849   5.644  10.997 -0.4677  0.4173 -0.0326
   35loPI    C2  546  15.135   5.806  11.225 -0.1298  0.0207 -0.1634
   35loPI    C3  547  14.812   5.644  11.396 -0.1142  0.1643  0.0051
   35loPI   PO4  548  14.972   5.660  10.728  0.1551  0.1803 -0.2642
   35loPI   GL1  549  14.770   5.581  10.296 -0.1411 -0.1235 -0.1919
   35loPI   GL2  550  14.786   5.313  10.356 -0.2569  0.2492  0.0515
   35loPI   C1A  551  14.981   5.482   9.841  0.1990 -0.1724  0.2646
   35loPI   C2A  552  14.934   5.515   9.362 -0.1412  0.2138 -0.0114
   35loPI   C3A  553  14.979   5.541   8.912  0.1535  0.0356  0.0864
   35loPI   C4A  554  14.945   5.641   8.521  0.1440  0.0207 -0.1219
   35loPI   C5A  555  14.754   5.977   8.193 -0.0734 -0.0303  0.2972
   35loPI   C6A  556  14.292   6.226   8.036  0.0070  0.0677 -0.1729
   35loPI   C1B  557  14.547   5.235   9.871 -0.2905  0.0458  0.0231
   35loPI   C2B  558  14.539   5.224   9.487  0.1067 -0.2482 -0.0019
   35loPI   C3B  559  14.474   5.347   9.153  0.0586 -0.2592  0.1022
   35loPI   C4B  560  14.583   5.321   8.770  0.1236  0.2751  0.0886
   36loPI    C1  561  11.013   7.753  10.540  0.1935 -0.1064 -0.1311
   36loPI    C2  562  10.927   8.131  10.641  0.2205 -0.1006 -0.1299
   36loPI    C3  563  10.632   7.872  10.566  0.1940 -0.1627  0.1743
   36loPI   PO4  564  11.141   7.804  10.350 -0.3294 -0.1461  0.0130
   36loPI   GL1  565  11.387   7.918  10.081  0.1120 -0.1195  0.0424
   36loPI   GL2  566  11.495   7.624   9.904  0.1884  0.1637  0.0158
   36loPI   C1A  567  11.468   8.027   9.592  0.1582  0.3912  0.2169
   36loPI   C2A  568  11.414   8.178   9.152 -0.0995 -0.0936 -0.0653
   36loPI   C3A  569  11.558   8.495   8.950 -0.2246  0.1967  0.0696
   36loPI   C4A  570  11.606   8.945   8.860 -0.0546  0.1341  0.0884
   36loPI   C5A  571  11.426   9.315   8.531  0.0753 -0.0468 -0.0226
   36loPI   C6A  572  11.514   9.736   8.397 -0.0882  0.0206 -0.0493
   36loPI   C1B  573  11.584   7.520   9.484 -0.0230  0.1197  0.1044
   36loPI   C2B  574  11.577   7.630   9.072  0.1564  0.1354  0.0951
   36loPI   C3B  575  11.356   7.716   8.881 -0.0018 -0.0413 -0.0774
   36loPI   C4B  576  11.011   7.888   8.884  0.1626 -0.1703  0.0260
   37loPI    C1  577   4.000  16.911  11.277  0.1879  0.2226  0.0365
   37loPI    C2  578   4.038  17.033  11.656  0.1188  0.0069  0.1145
   37loPI    C3  579   4.363  16.945  11.441  0.1550  0.0679  0.1439
   37loPI   PO4  580   3.784  16.999  11.213 -0.2525 -0.0527 -0.1873
   37loPI   GL1  581   3.676  16.967  10.812 -0.4202 -0.0642  0.0760
   37loPI   GL2  582   3.914  16.927  10.706  0.0800 -0.0101 -0.1775
   37loPI   C1A  583   3.462  16.988  10.545  0.4374  0.2039  0.0060
   37loPI   C2A  584   3.496  17.053  10.143  0.3176 -0.0141 -0.0961
   37loPI   C3A  585   3.556  16.999   9.746  0.0302  0.0666 -0.0359
   37loPI   C4A  586   3.639  16.930   9.296  0.2134 -0.2722  0.0999
   37loPI   C5A  587   3.658  17.100   8.914 -0.0717  0.0040 -0.0712
   37loPI   C6A  588   3.650  17.081   8.475  0.0752  0.3027  0.0870
   37loPI   C1B  589   3.964  16.864  10.297 -0.0753  0.2516  0.0224
   37loPI   C2B  590   4.107  16.779   9.874 -0.1490 -0.2329  0.0482
   37loPI   C3B  591   4.110  16.895   9.428  0.0050 -0.1111  0.1093
   37loPI   C4B  592   4.120  16.751   8.981  0.0180 -0.0948  0.2280
   38loPI    C1  593   3.102  11.389  11.380  0.0034 -0.1284 -0.0504
   38loPI    C2  594   2.831  11.370  11.674  0.0453 -0.2876 -0.0207
   38loPI    C3  595   3.121  11.096  11.652  0.0844 -0.2355 -0.1702
   38loPI   PO4  596   3.043  11.376  11.145  0.0030 -0.0577  0.2079
   38loPI   GL1  597   3.126  11.420  10.744  0.1023  0.0937  0.0880
   38loPI   GL2  598   2.818  11.496  10.704  0.3350 -0.1264  0.2460
   38loPI   C1A  599   3.234  11.230  10.438 -0.0783 -0.3228 -0.0788
   38loPI   C2A  600   3.261  11.235  10.067 -0.1450  0.0291 -0.3537
   38loPI   C3A  601   3.220  11.175   9.673 -0.0144  0.1247 -0.2095
   38loPI   C4A  602   3.199  11.257   9.196 -0.2932 -0.3003 -0.0251
   38loPI   C5A  603   3.175  11.324   8.801 -0.0070 -0.0306 -0.1077
   38loPI   C6A  604   3.078  11.581   8.473  0.0950  0.1916 -0.0933
   38loPI   C1B  605   2.798  11.359  10.262  0.2243 -0.2301  0.2570
   38loPI   C2B  606   2.804  11.468   9.850  0.0081 -0.1051  0.1426
   38loPI   C3B  607   2.705  11.511   9.393 -0.1136  0.0613  0.1655
   38loPI   C4B  608   2.834  11.548   8.985  0.0409 -0.0173  0.2709
   39loPI    C1  609   0.047  14.992  10.939  0.0506 -0.0576 -0.1308
   39loPI    C2  610   0.267  14.741  11.158  0.1305  0.1040 -0.0237
   39loPI    C3  611   0.116  15.071  11.325 -0.0167  0.1016 -0.1507
   39loPI   PO4  612   0.208  15.025  10.752  0.0240  0.0886  0.0361
   39loPI   GL1  613   0.277  15.310  10.375 -0.0428 -0.3622 -0.1688
   39loPI   GL2  614  -0.002  15.225  10.308  0.2491  0.0678 -0.0069
   39loPI   C1A  615   0.562  15.373  10.071  0.1194 -0.0871 -0.4956
   39loPI   C2A  616   0.524  15.342   9.616 -0.2277 -0.1455  0.3155
   39loPI   C3A  617   0.614  15.459   9.269  0.3447  0.0595 -0.0702
   39loPI   C4A  618   0.728  15.459   8.844  0.1415  0.0152  0.1414
   39loPI   C5A  619   0.847  15.448   8.441 -0.0397  0.0770  0.3841
   39loPI   C6A  620   1.045  15.311   7.997 -0.0272  0.0756 -0.1320
   39loPI   C1B  621   0.082  15.191   9.845  0.1164  0.0534  0.1231
   39loPI   C2B  622   0.048  15.079   9.409 -0.2153 -0.0371  0.0068
   39loPI   C3B  623   0.209  15.023   8.979  0.3335  0.0153  0.1170
   39loPI   C4B  624   0.428  15.173   8.579  0.2445  0.2384  0.0355
   40loPI    C1  625   7.519  16.784  10.953 -0.0335 -0.1636 -0.0030
   40loPI    C2  626   7.914  16.749  11.009 -0.0354 -0.0390  0.0930
   40loPI    C3  627   7.672  16.813  11.322 -0.1130  0.0548  0.0144
   40loPI   PO4  628   7.630  16.650  10.604 -0.2151 -0.3188 -0.0013
   40loPI   GL1  629   7.648  16.760  10.209 -0.5221  0.2482 -0.1228
   40loPI   GL2  630   7.696  17.102  10.228  0.0019  0.1355 -0.1533
   40loPI   C1A  631   7.725  16.694   9.708 -0.2261  0.1865 -0.0453
   40loPI   C2A  632   7.741  16.774   9.323  0.4277  0.0644 -0.2664
   40loPI   C3A  633   7.753  16.729   8.966 -0.1818 -0.0946  0.1433
   40loPI   C4A  634   7.900  16.647   8.549 -0.1255  0.2879 -0.2976
   40loPI   C5A  635   8.021  16.376   8.188  0.3099  0.1378 -0.1057
   40loPI   C6A  636   8.396  16.086   8.042  0.0131 -0.1145  0.2176
   40loPI   C1B  637   7.554  17.230   9.806 -0.1182  0.0951  0.0897
   40loPI   C2B  638   7.637  17.300   9.397  0.2369  0.3194  0.2159
   40loPI   C3B  639   7.671  17.210   8.987  0.0048  0.0456 -0.2607
   40loPI   C4B  640   7.779  17.246   8.608  0.1332 -0.1583 -0.0678
   41loPI    C1  641   0.405   9.775  11.370 -0.0565 -0.0181  0.0432
   41loPI    C2  642   0.632  10.080  11.246 -0.0014 -0.1281 -0.1296
   41loPI    C3  643   0.686   9.926  11.611 -0.0190  0.0580 -0.0477
   41loPI   PO4  644   0.305   9.615  11.112 -0.1279  0.1686 -0.2376
   41loPI   GL1  645   0.404   9.692  10.804 -0.0517  0.1105  0.1089
   41loPI   GL2  646   0.685   9.515  10.626 -0.2923 -0.2336 -0.0362
   41loPI   C1A  647   0.227   9.614  10.401  0.0833  0.1174  0.4529
   41loPI   C2A  648   0.214   9.495  10.053 -0.0402  0.2691  0.0982
   41loPI   C3A  649   0.228   9.622   9.569 -0.0234 -0.1306 -0.2109
   41loPI   C4A  650   0.191   9.664   9.064  0.1886 -0.1795  0.2270
   41loPI   C5A  651   0.100   9.687   8.636 -0.3769 -0.1086  0.0187
   41loPI   C6A  652  -0.242   9.597   8.497  0.0057  0.0398 -0.0560
   41loPI   C1B  653   0.704   9.333  10.231  0.0372 -0.1373  0.0974
   41loPI   C2B  654   0.758   9.405   9.799  0.2562  0.0047  0.2555
   41loPI   C3B  655   0.624   9.382   9.403  0.2037  0.2606 -0.0448
   41loPI   C4B  656   0.647   9.526   8.982 -0.3153  0.0358  0.0451
   42loPI    C1  657  10.339   1.195  11.107  0.0347 -0.3946 -0.1476
   42loPI    C2  658  10.564   0.899  11.254  0.2193 -0.0890  0.2038
   42loPI    C3  659  10.557   1.254  11.438 -0.1527  0.0669 -0.0989
   42loPI   PO4  660  10.327   1.165  10.803 -0.0365  0.2218  0.0524
   42loPI   GL1  661  10.349   1.228  10.370 -0.0639  0.1209  0.0717
   42loPI   GL2  662  10.266   0.810  10.327 -0.1668 -0.1655  0.0328
   42loPI   C1A  663  10.268   1.305   9.995  0.0414 -0.1160 -0.1737
   42loPI   C2A  664  10.080   1.229   9.578 -0.0638  0.2030  0.2602
   42loPI   C3A  665  10.099   1.277   9.169 -0.1670 -0.3113 -0.2207
   42loPI   C4A  666  10.091   1.371   8.757  0.1171 -0.0254 -0.3239
   42loPI   C5A  667  10.220   1.389   8.394  0.4362 -0.0760 -0.0816
   42loPI   C6A  668  10.380   1.450   7.968 -0.1626 -0.0271 -0.1113
   42loPI   C1B  669  10.256   0.784   9.876 -0.0976 -0.2194  0.0981
   42loPI   C2B  670  10.154   0.698   9.445 -0.0195  0.1881  0.0027
   42loPI   C3B  671  10.072   0.780   8.982  0.2233 -0.2836 -0.1030
   42loPI   C4B  672   9.946   0.943   8.618 -0.2621 -0.1759  0.0216
   43loPI    C1  673  14.401  17.575  11.007  0.0668 -0.2112 -0.1089
   43loPI    C2  674  14.591  17.366  11.290  0.0919  0.0849  0.0972
   43loPI    C3  675  14.403  17.707  11.384 -0.0621  0.0885 -0.2095
   43loPI   PO4  676  14.280  17.400  10.884  0.0585  0.0478 -0.0576
   43loPI   GL1  677  14.048  17.532  10.487  0.3740  0.2100  0.2214
   43loPI   GL2  678  13.931  17.767  10.255 -0.0370 -0.2235 -0.0492
   43loPI   C1A  679  14.202  17.357  10.166  0.1073  0.0488  0.1047
   43loPI   C2A  680  14.400  17.187   9.808 -0.0572 -0.3983 -0.3097
   43loPI   C3A  681  14.598  17.106   9.409 -0.0277  0.1004  0.0074
   43loPI   C4A  682  14.622  17.160   9.012 -0.1555  0.2502  0.2532
   43loPI   C5A  683  14.770  17.303   8.595 -0.0211 -0.0553  0.1787
   43loPI   C6A  684  15.067  17.563   8.280  0.1389  0.0180  0.3600
   43loPI   C1B  685  14.104  17.755   9.817 -0.3134 -0.0039  0.3764
   43loPI   C2B  686  14.180  17.832   9.396  0.2656 -0.1279 -0.1398
   43loPI   C3B  687  14.138  17.659   8.942  0.2191 -0.0356 -0.4307
   43loPI   C4B  688  14.342  17.479   8.705 -0.0031  0.0870 -0.0738
   44loPI    C1  689  13.783   4.181  11.144  0.2565  0.1118 -0.1115
   44loPI    C2  690  13.643   3.942  11.433  0.4164  0.0770 -0.0620
   44loPI    C3  691  13.573   4.336  11.447  0.0893  0.0262 -0.1819
   44loPI   PO4  692  13.656   4.135  10.960 -0.0688 -0.3574 -0.0622
   44loPI   GL1  693  13.797   4.156  10.478  0.1600 -0.1414 -0.0073
   44loPI   GL2  694  14.041   4.304  10.588  0.1622  0.1617  0.0211
   44loPI   C1A  695  13.854   4.135  10.061 -0.0875 -0.1221 -0.0367
   44loPI   C2A  696  13.784   4.141   9.612 -0.3769  0.0334  0.0029
   44loPI   C3A  697  13.735   4.175   9.135  0.0628  0.0236  0.0593
   44loPI   C4A  698  13.759   4.284   8.735 -0.1001 -0.0348  0.0604
   44loPI   C5A  699  13.781   4.118   8.301 -0.1649 -0.0938 -0.0253
   44loPI   C6A  700  14.056   4.444   8.128 -0.0578  0.1376 -0.0067
   44loPI   C1B  701  14.228   4.387  10.126 -0.0653 -0.0017 -0.1137
   44loPI   C2B  702  14.203   4.407   9.691  0.3633 -0.3855  0.0142
   44loPI   C3B  703  14.157   4.441   9.232 -0.2441  0.2010  0.4612
   44loPI   C4B  704  14.161   4.520   8.781  0.1194 -0.2848 -0.1781
   45loPI    C1  705   9.096   4.450  11.205  0.0068 -0.0089  0.1370
   45loPI    C2  706   9.331   4.487  11.526 -0.0366 -0.3822  0.2163
   45loPI    C3  707   9.011   4.723  11.485  0.1053 -0.1674  0.3239
   45loPI   PO4  708   9.259   4.371  10.983  0.0029  0.1354  0.1045
   45loPI   GL1  709   9.237   4.434  10.547  0.2477  0.1016  0.0885
   45loPI   GL2  710   9.485   4.276  10.486 -0.0237  0.0935 -0.2714
   45loPI   C1A  711   8.927   4.338  10.192 -0.2625  0.0931 -0.0027
   45loPI   C2A  712   8.865   4.288   9.866 -0.1760  0.0605  0.3484
   45loPI   C3A  713   8.878   4.188   9.526  0.1704  0.0556  0.2636
   45loPI   C4A  714   8.880   4.235   9.113  0.2353 -0.0178  0.1897
   45loPI   C5A  715   8.836   4.181   8.664  0.0718 -0.1228  0.1318
   45loPI   C6A  716   8.551   3.983   8.463 -0.0701 -0.1100  0.2378
   45loPI   C1B  717   9.621   4.269  10.078  0.2271  0.0523 -0.2117
   45loPI   C2B  718   9.701   4.444   9.735  0.0012  0.0779 -0.0311
   45loPI   C3B  719   9.698   4.315   9.303 -0.3390  0.1303 -0.1663
   45loPI   C4B  720   9.748   4.270   8.820 -0.0475 -0.0813 -0.2247
   46loPI    C1  721  16.388  10.909  10.940 -0.0091 -0.0735 -0.0258
   46loPI    C2  722  16.191  10.698  11.217 -0.0749 -0.0682 -0.0681
   46loPI    C3  723  16.141  11.095  11.193 -0.0815 -0.0707 -0.0980
   46loPI   PO4  724  16.677  10.802  10.918  0.0017  0.1054  0.1264
   46loPI   GL1  725  16.771  10.597  10.560 -0.1885 -0.1408  0.1697
   46loPI   GL2  726  16.471  10.568  10.513 -0.1667 -0.1298 -0.1964
   46loPI   C1A  727  16.746  10.728  10.078  0.0077  0.1347 -0.1516
   46loPI   C2A  728  16.600  10.818   9.656  0.1084  0.1964  0.3509
   46loPI   C3A  729  16.683  10.842   9.163  0.0259 -0.4619 -0.1778
   46loPI   C4A  730  16.649  10.851   8.735 -0.0377  0.3560  0.0340
   46loPI   C5A  731  16.588  10.966   8.332  0.0816  0.1086 -0.1078
   46loPI   C6A  732  16.530  10.977   7.897 -0.0224  0.1006  0.3051
   46loPI   C1B  733  16.241  10.493  10.166  0.0882  0.1545  0.1573
   46loPI   C2B  734  16.194  10.497   9.730 -0.2622  0.1677 -0.0844
   46loPI   C3B  735  16.283  10.517   9.297  0.0291  0.3063  0.2286
   46loPI   C4B  736  16.215  10.589   8.804 -0.2910 -0.0218  0.3952
   47loPI    C1  737  13.072  14.977  11.378 -0.0381 -0.0366  0.0855
   47loPI    C2  738  12.942  14.844  11.732  0.1878 -0.1851  0.1146
   47loPI    C3  739  13.057  15.225  11.691  0.2280 -0.1855  0.2194
   47loPI   PO4  740  13.024  14.851  11.153  0.0451  0.0820 -0.1995
   47loPI   GL1  741  13.152  14.910  10.756  0.1492 -0.2497  0.2183
   47loPI   GL2  742  13.408  14.986  10.498 -0.1942  0.0969  0.0408
   47loPI   C1A  743  12.947  15.089  10.390 -0.1441 -0.1033 -0.2747
   47loPI   C2A  744  12.864  15.129  10.024  0.3849  0.3053  0.2512
   47loPI   C3A  745  12.969  15.154   9.632  0.0650  0.1580  0.2317
   47loPI   C4A  746  13.003  15.176   9.172 -0.0824 -0.0832 -0.4049
   47loPI   C5A  747  12.881  15.183   8.733 -0.0083  0.1170  0.1103
   47loPI   C6A  748  12.621  15.552   8.560 -0.2739 -0.0264 -0.3587
   47loPI   C1B  749  13.374  14.876  10.063 -0.0492 -0.0063  0.3956
   47loPI   C2B  750  13.435  14.953   9.582  0.0283 -0.1700 -0.1701
   47loPI   C3B  751  13.463  14.993   9.126 -0.0896  0.1255  0.1592
   47loPI   C4B  752  13.666  14.890   8.774 -0.2965 -0.1452  0.0522
   48loPI    C1  753  12.306   1.625  10.783 -0.3201  0.2676  0.0993
   48loPI    C2  754  12.149   1.323  10.993 -0.2264  0.1417 -0.0097
   48loPI    C3  755  12.358   1.609  11.179  0.0636 -0.0983  0.0421
   48loPI   PO4  756  12.453   1.563  10.590 -0.2369 -0.3236  0.2262
   48loPI   GL1  757  12.541   1.543  10.169 -0.2673  0.2193 -0.0898
   48loPI   GL2  758  12.176   1.676  10.246 -0.1529 -0.0568 -0.1345
   48loPI   C1A  759  12.347   1.657   9.717 -0.0219 -0.0535 -0.1590
   48loPI   C2A  760  12.183   1.904   9.456 -0.0491  0.1399 -0.1554
   48loPI   C3A  761  12.196   1.825   8.975  0.2165  0.1835 -0.0711
   48loPI   C4A  762  12.150   1.473   8.637 -0.1929 -0.2582  0.0613
   48loPI   C5A  763  12.260   0.943   8.589  0.0100  0.0062  0.0992
   48loPI   C6A  764  12.689   0.778   8.374  0.0208 -0.2921 -0.0506
   48loPI   C1B  765  11.709   1.701  10.099  0.0941  0.0512 -0.0528
   48loPI   C2B  766  11.403   1.798   9.902  0.2487  0.2030  0.3477
   48loPI   C3B  767  11.379   1.705   9.536  0.2238 -0.0344 -0.1149
   48loPI   C4B  768  11.448   1.240   9.345 -0.0341  0.0604  0.4907
   49loPI    C1  769   2.219   5.061  11.156 -0.0641 -0.1935 -0.1023
   49loPI    C2  770   2.516   4.831  11.295  0.0367 -0.0189 -0.0249
   49loPI    C3  771   2.155   4.817  11.467 -0.0242 -0.2896 -0.1690
   49loPI   PO4  772   2.196   5.052  10.968  0.0837  0.4328  0.0152
   49loPI   GL1  773   2.189   4.890  10.580 -0.2593  0.0928 -0.3161
   49loPI   GL2  774   1.932   4.880  10.590  0.0938  0.0500 -0.1396
   49loPI   C1A  775   2.549   5.071  10.273 -0.2457 -0.1758 -0.2139
   49loPI   C2A  776   2.587   5.064   9.849 -0.1760 -0.0060 -0.3219
   49loPI   C3A  777   2.483   5.153   9.487 -0.0985 -0.0501  0.0435
   49loPI   C4A  778   2.415   5.096   9.105 -0.0937 -0.2726 -0.4560
   49loPI   C5A  779   2.309   5.110   8.651  0.1530 -0.1363  0.0388
   49loPI   C6A  780   2.038   4.971   8.322  0.4131  0.1431 -0.2071
   49loPI   C1B  781   2.189   4.736  10.091 -0.2405 -0.2598  0.0626
   49loPI   C2B  782   2.077   4.857   9.652 -0.0898 -0.2303 -0.5586
   49loPI   C3B  783   1.984   4.779   9.233  0.0434  0.1651  0.0817
   49loPI   C4B  784   1.967   4.713   8.759  0.0028 -0.2189  0.3413
   50loPI    C1  785  12.325   8.230  10.970 -0.1109  0.2901  0.1148
   50loPI    C2  786  12.597   8.046  11.197 -0.1782  0.1722  0.1005
   50loPI    C3  787  12.237   8.132  11.347 -0.2394  0.0512  0.0253
   50loPI   PO4  788  12.329   8.103  10.739  0.1464 -0.1379 -0.0918
   50loPI   GL1  789  12.301   8.215  10.339  0.2504  0.0688 -0.1496
   50loPI   GL2  790  12.599   8.320  10.239  0.0242  0.4072  0.3483
   50loPI   C1A  791  12.322   8.111   9.882 -0.0434  0.1254 -0.1171
   50loPI   C2A  792  12.334   8.091   9.448  0.0519 -0.1658  0.1336
   50loPI   C3A  793  12.346   8.144   8.880  0.0776 -0.3191 -0.2068
   50loPI   C4A  794  12.187   8.259   8.501  0.0506 -0.0708  0.0098
   50loPI   C5A  795  11.765   8.442   8.369 -0.2746 -0.1990 -0.2395
   50loPI   C6A  796  11.404   8.575   8.410  0.0760  0.1260  0.0186
   50loPI   C1B  797  12.746   8.407   9.712  0.0288  0.3041 -0.0211
   50loPI   C2B  798  12.857   8.387   9.357 -0.0878 -0.0671 -0.0757
   50loPI   C3B  799  13.001   8.442   8.893  0.1386 -0.1316  0.2057
   50loPI   C4B  800  12.993   8.563   8.354 -0.0901  0.1439  0.0616
   51loPI    C1  801  17.800   5.218  11.375 -0.0177  0.0910  0.0696
   51loPI    C2  802  17.455   5.297  11.560 -0.1261  0.1896 -0.1711
   51loPI    C3  803  17.799   5.318  11.762 -0.2442  0.2688  0.0247
   51loPI   PO4  804  17.767   5.323  11.039 -0.2902  0.0944 -0.1518
   51loPI   GL1  805  17.581   5.212  10.641 -0.3146 -0.2699  0.0355
   51loPI   GL2  806  17.433   5.573  10.644  0.1336  0.3019  0.1931
   51loPI   C1A  807  17.634   5.337  10.188 -0.0998  0.3290 -0.1049
   51loPI   C2A  808  17.613   5.380   9.797 -0.0236 -0.3522 -0.1345
   51loPI   C3A  809  17.627   5.398   9.281  0.0020  0.1266 -0.2991
   51loPI   C4A  810  17.770   5.410   8.888 -0.1329 -0.0847  0.1690
   51loPI   C5A  811  17.795   5.125   8.507 -0.1506 -0.0857 -0.1852
   51loPI   C6A  812  17.492   4.952   8.279 -0.2547  0.2205  0.0333
   51loPI   C1B  813  17.170   5.584  10.254 -0.1654 -0.0046 -0.0152
   51loPI   C2B  814  17.146   5.580   9.849  0.1605 -0.1677  0.0221
   51loPI   C3B  815  17.224   5.586   9.439  0.1094  0.1853 -0.0666
   51loPI   C4B  816  17.189   5.555   8.966 -0.3093 -0.0613 -0.1440
   52loPI    C1  817  12.034  17.500  10.869  0.0495  0.0228 -0.0524
   52loPI    C2  818  12.105  17.645  11.235 -0.0948 -0.1516  0.0464
   52loPI    C3  819  11.730  17.566  11.121 -0.0449 -0.1528 -0.1185
   52loPI   PO4  820  12.205  17.620  10.702 -0.1041 -0.3427 -0.0263
   52loPI   GL1  821  12.350  17.516  10.312 -0.1366 -0.2110 -0.1887
   52loPI   GL2  822  12.673  17.576  10.342 -0.1874  0.0027 -0.1077
   52loPI   C1A  823  12.182  17.280  10.001  0.1571  0.0570 -0.1203
   52loPI   C2A  824  12.130  17.434   9.683 -0.4334  0.0922 -0.1731
   52loPI   C3A  825  12.128  17.593   9.259 -0.0244 -0.1460  0.2354
   52loPI   C4A  826  11.826  17.588   8.937  0.3734  0.0552 -0.1565
   52loPI   C5A  827  11.610  17.472   8.615  0.1382 -0.2261 -0.0367
   52loPI   C6A  828  11.210  17.492   8.405  0.1814  0.1342  0.0734
   52loPI   C1B  829  12.461  17.915  10.077  0.0535  0.3476  0.1929
   52loPI   C2B  830  12.288  17.910   9.638 -0.0905 -0.0284 -0.2906
   52loPI   C3B  831  12.327  18.120   9.263  0.2737 -0.2344  0.2916
   52loPI   C4B  832  12.170  17.927   8.858 -0.0508  0.0621  0.2051
   53loPI    C1  833   0.291   6.028  11.217  0.1820 -0.3311 -0.0256
   53loPI    C2  834   0.041   6.247  11.441  0.0681 -0.2213 -0.2559
   53loPI    C3  835   0.330   6.031  11.615  0.2394  0.1805 -0.0279
   53loPI   PO4  836   0.420   6.125  11.012 -0.1182 -0.4103 -0.0546
   53loPI   GL1  837   0.396   6.074  10.569  0.1130  0.1255  0.0715
   53loPI   GL2  838   0.159   6.281  10.579 -0.2123  0.0938 -0.2154
   53loPI   C1A  839   0.517   6.045  10.210  0.0343  0.0493 -0.2599
   53loPI   C2A  840   0.504   6.022   9.801 -0.0817 -0.2866  0.1700
   53loPI   C3A  841   0.631   5.926   9.421  0.3099  0.2132 -0.3662
   53loPI   C4A  842   0.635   5.935   9.037 -0.2504  0.2187 -0.1043
   53loPI   C5A  843   0.534   6.116   8.614  0.1040 -0.2290 -0.0729
   53loPI   C6A  844   0.242   6.437   8.517 -0.1318 -0.0046 -0.0689
   53loPI   C1B  845   0.093   6.311  10.201  0.0904 -0.1185  0.5462
   53loPI   C2B  846   0.047   6.205   9.807  0.0105  0.0919 -0.0723
   53loPI   C3B  847   0.106   6.247   9.410 -0.0945 -0.1560 -0.1804
   53loPI   C4B  848   0.171   6.143   8.995  0.4191 -0.3537 -0.0754
   54loPI    C1  849  10.522   3.855  10.908 -0.3306  0.0897  0.0146
   54loPI    C2  850  10.528   3.524  11.133 -0.1356  0.1787  0.1428
   54loPI    C3  851  10.327   3.846  11.258 -0.2052  0.1572  0.0868
   54loPI   PO4  852  10.448   3.707  10.609  0.2637 -0.0434  0.2121
   54loPI   GL1  853  10.004   3.417  10.425 -0.0667  0.1727 -0.2627
   54loPI   GL2  854   9.805   3.378  10.255  0.0530  0.1422  0.0078
   54loPI   C1A  855  10.246   3.283  10.081  0.0127 -0.0148 -0.1368
   54loPI   C2A  856  10.265   3.090   9.661  0.0728 -0.0794  0.0974
   54loPI   C3A  857  10.384   3.149   9.266  0.0139 -0.1893 -0.1018
   54loPI   C4A  858  10.422   3.144   8.848 -0.0000  0.1571  0.1872
   54loPI   C5A  859  10.367   3.183   8.458 -0.0273 -0.0559 -0.1040
   54loPI   C6A  860  10.340   3.204   7.977  0.2261 -0.1370 -0.2096
   54loPI   C1B  861   9.814   3.349   9.816 -0.1754  0.0713 -0.0150
   54loPI   C2B  862   9.909   3.397   9.430  0.0989  0.2288  0.5333
   54loPI   C3B  863   9.890   3.316   8.981  0.0514  0.0268 -0.0666
   54loPI   C4B  864   9.881   3.352   8.576  0.2050  0.0824 -0.1146
   55loPI    C1  865   8.300   3.845  11.078  0.0280 -0.0699  0.0095
   55loPI    C2  866   8.531   3.672  10.802  0.0328  0.0494 -0.0617
   55loPI    C3  867   8.582   3.584  11.188  0.1649  0.0382 -0.0811
   55loPI   PO4  868   8.302   4.073  11.022  0.3169  0.0008  0.3148
   55loPI   GL1  869   8.314   4.220  10.578  0.0065  0.1288  0.0820
   55loPI   GL2  870   8.049   4.044  10.559  0.0578  0.1379  0.0414
   55loPI   C1A  871   8.447   4.452  10.177  0.0821 -0.0081 -0.4766
   55loPI   C2A  872   8.299   4.401   9.777 -0.0113 -0.1181  0.2920
   55loPI   C3A  873   8.469   4.368   9.381  0.2488  0.2370  0.2856
   55loPI   C4A  874   8.431   4.462   8.923  0.0308  0.0631 -0.0910
   55loPI   C5A  875   8.391   4.457   8.411 -0.0609 -0.3493  0.0998
   55loPI   C6A  876   8.107   4.269   8.029 -0.2363 -0.1986 -0.2075
   55loPI   C1B  877   8.084   4.069  10.126 -0.0160 -0.0792  0.0142
   55loPI   C2B  878   7.953   4.081   9.760 -0.0897  0.3442 -0.1764
   55loPI   C3B  879   8.010   4.067   9.262  0.1502  0.1798 -0.0961
   55loPI   C4B  880   8.017   4.123   8.704 -0.0980  0.2482  0.1607
   56loPI    C1  881  11.823  15.247  11.291 -0.1982 -0.1757  0.1316
   56loPI    C2  882  12.093  15.016  11.475 -0.1279 -0.2729 -0.0906
   56loPI    C3  883  12.134  15.414  11.479 -0.1326 -0.2735  0.1102
   56loPI   PO4  884  11.746  15.294  11.090  0.1084 -0.1515  0.1709
   56loPI   GL1  885  11.615  15.343  10.658 -0.0522  0.0718  0.0234
   56loPI   GL2  886  11.911  15.447  10.532 -0.1574 -0.0258 -0.0272
   56loPI   C1A  887  11.500  15.563  10.291  0.2130  0.0441 -0.2439
   56loPI   C2A  888  11.522  15.736   9.781  0.0362  0.2436 -0.2142
   56loPI   C3A  889  11.530  15.646   9.329 -0.2221  0.2160  0.3830
   56loPI   C4A  890  11.492  15.696   8.946 -0.0055 -0.1118  0.3851
   56loPI   C5A  891  11.523  15.621   8.539  0.1499 -0.4033 -0.2699
   56loPI   C6A  892  11.579  15.819   8.212 -0.0764  0.0148  0.3960
   56loPI   C1B  893  11.946  15.475  10.107 -0.1635 -0.1753 -0.2139
   56loPI   C2B  894  11.903  15.453   9.679  0.3545 -0.0075  0.2447
   56loPI   C3B  895  12.030  15.589   9.283  0.1139  0.0479 -0.0649
   56loPI   C4B  896  12.032  15.523   8.889 -0.1553 -0.2030 -0.1120
   57loPI    C1  897   5.262  16.386  11.333 -0.0128  0.2518 -0.0386
   57loPI    C2  898   4.990  16.418  11.625  0.0371  0.1249  0.0223
   57loPI    C3  899   5.363  16.300  11.710  0.0641  0.1302 -0.0865
   57loPI   PO4  900   5.260  16.535  11.207  0.2172 -0.0532 -0.0394
   57loPI   GL1  901   5.147  16.489  10.846 -0.1488 -0.0536 -0.3590
   57loPI   GL2  902   5.209  16.194  10.837 -0.0383 -0.2113 -0.3010
   57loPI   C1A  903   5.186  16.674  10.444 -0.1097  0.0101  0.2127
   57loPI   C2A  904   5.411  16.827  10.084  0.1233  0.0249  0.0213
   57loPI   C3A  905   5.466  16.680   9.683 -0.1069 -0.0177 -0.0749
   57loPI   C4A  906   5.350  16.637   9.252  0.0178  0.2070  0.1560
   57loPI   C5A  907   5.497  16.685   8.772  0.0013  0.0089 -0.1110
   57loPI   C6A  908   5.202  16.889   8.538 -0.0805  0.0695  0.3751
   57loPI   C1B  909   5.408  16.258  10.477  0.1222  0.0503 -0.0289
   57loPI   C2B  910   5.414  16.124  10.055  0.0046  0.1512 -0.2195
   57loPI   C3B  911   5.472  16.127   9.705 -0.2223 -0.1292 -0.0961
   57loPI   C4B  912   5.411  16.078   9.311  0.3693 -0.2717  0.2720
   58loPI    C1  913   2.333   6.926  11.130 -0.1115  0.0564 -0.1317
   58loPI    C2  914   2.297   7.163  11.451 -0.2396  0.0029 -0.1060
   58loPI    C3  915   2.399   6.779  11.496 -0.1482  0.0230 -0.1386
   58loPI   PO4  916   2.341   7.014  10.917  0.2038  0.1667  0.0259
   58loPI   GL1  917   2.292   7.292  10.570 -0.3086 -0.0471  0.1433
   58loPI   GL2  918   2.040   7.046  10.495 -0.1909  0.1670 -0.3878
   58loPI   C1A  919   2.291   7.207  10.128  0.4289 -0.2532  0.0632
   58loPI   C2A  920   2.311   7.202   9.686 -0.4117 -0.1542  0.2407
   58loPI   C3A  921   2.269   7.190   9.315  0.0063 -0.4052  0.1076
   58loPI   C4A  922   2.316   7.333   8.970 -0.2895 -0.0325 -0.1809
   58loPI   C5A  923   2.119   7.508   8.503 -0.3455  0.0264 -0.0444
   58loPI   C6A  924   1.956   7.892   8.409 -0.0705 -0.1437 -0.2385
   58loPI   C1B  925   1.886   6.958  10.082 -0.0321  0.0179 -0.2577
   58loPI   C2B  926   1.824   6.936   9.653  0.2562 -0.0265 -0.1420
   58loPI   C3B  927   1.816   6.866   9.126 -0.1000  0.0012 -0.0083
   58loPI   C4B  928   1.602   6.882   8.688 -0.1059 -0.0243 -0.0640
   59loPI    C1  929   2.924  14.492  11.063 -0.2366 -0.0111 -0.1983
   59loPI    C2  930   2.673  14.792  10.978 -0.0590  0.1655 -0.1079
   59loPI    C3  931   2.711  14.664  11.355 -0.0995  0.0601 -0.1392
   59loPI   PO4  932   3.175  14.566  10.944 -0.0097 -0.0554  0.1820
   59loPI   GL1  933   3.433  14.325  10.617  0.0981  0.0349 -0.1016
   59loPI   GL2  934   3.482  14.639  10.559  0.3430  0.0509 -0.0813
   59loPI   C1A  935   3.432  14.184  10.254  0.1013 -0.1312  0.3233
   59loPI   C2A  936   3.509  14.082   9.880 -0.0400  0.0260 -0.0395
   59loPI   C3A  937   3.387  14.127   9.441  0.0624  0.1348  0.0872
   59loPI   C4A  938   3.413  14.095   9.018 -0.0282 -0.1388 -0.4442
   59loPI   C5A  939   3.403  14.025   8.582  0.1603 -0.0705  0.1179
   59loPI   C6A  940   3.473  13.867   8.204 -0.0990  0.0487  0.0172
   59loPI   C1B  941   3.372  14.663  10.051  0.1099  0.1010 -0.4268
   59loPI   C2B  942   3.343  14.615   9.565 -0.0331  0.1291 -0.1411
   59loPI   C3B  943   3.383  14.677   9.094  0.1252 -0.0384  0.1961
   59loPI   C4B  944   3.405  14.705   8.634 -0.0666 -0.0697 -0.1709
   60loPI    C1  945   2.930  13.019  11.227  0.3450 -0.0235 -0.1985
   60loPI    C2  946   2.937  13.397  11.357 -0.0187 -0.1556  0.2325
   60loPI    C3  947   3.196  13.131  11.504  0.0468 -0.1417  0.1435
   60loPI   PO4  948   2.687  13.094  10.932 -0.2594 -0.3068 -0.2194
   60loPI   GL1  949   2.668  13.181  10.607  0.1664 -0.1603 -0.0101
   60loPI   GL2  950   2.527  13.508  10.438  0.3029  0.0891 -0.0672
   60loPI   C1A  951   2.725  13.040  10.125 -0.0626  0.1768 -0.1543
   60loPI   C2A  952   2.714  12.984   9.752  0.5264 -0.2384  0.0452
   60loPI   C3A  953   2.762  12.937   9.267  0.3671 -0.1261 -0.3144
   60loPI   C4A  954   2.730  13.020   8.846  0.0229 -0.1116 -0.2765
   60loPI   C5A  955   2.913  13.304   8.515  0.0540  0.0367 -0.1965
   60loPI   C6A  956   3.106  13.515   8.161  0.0126 -0.1252  0.0425
   60loPI   C1B  957   2.663  13.516  10.030 -0.1345  0.1773  0.0865
   60loPI   C2B  958   2.668  13.596   9.573 -0.0145 -0.2004 -0.1785
   60loPI   C3B  959   2.659  13.504   9.211 -0.0162 -0.1654 -0.0508
   60loPI   C4B  960   2.566  13.563   8.766  0.1329  0.2109  0.3159
   61loPI    C1  961  15.730  13.524  11.340 -0.2550 -0.1708  0.0213
   61loPI    C2  962  15.819  13.349  11.689 -0.1602 -0.0636  0.0513
   61loPI    C3  963  15.464  13.528  11.639 -0.1584 -0.0446  0.1066
   61loPI   PO4  964  15.758  13.409  11.138 -0.0824 -0.3085 -0.0182
   61loPI   GL1  965  16.106  13.310  10.833 -0.2655 -0.0326 -0.0373
   61loPI   GL2  966  15.919  13.456  10.679  0.1870 -0.0187 -0.0442
   61loPI   C1A  967  16.265  13.212  10.439  0.1049  0.2086 -0.0364
   61loPI   C2A  968  16.314  13.255   9.960  0.0420  0.1122 -0.1067
   61loPI   C3A  969  16.402  13.300   9.482 -0.0970  0.1344  0.3514
   61loPI   C4A  970  16.383  13.289   9.031  0.3606 -0.2383  0.1139
   61loPI   C5A  971  16.346  13.584   8.594  0.1411  0.1038 -0.1157
   61loPI   C6A  972  16.301  13.648   8.250 -0.0615 -0.0170  0.0279
   61loPI   C1B  973  15.896  13.583  10.178 -0.2143  0.0221 -0.0391
   61loPI   C2B  974  15.986  13.478   9.767 -0.3026 -0.2346  0.2459
   61loPI   C3B  975  15.900  13.456   9.331  0.0038 -0.0362  0.1795
   61loPI   C4B  976  15.913  13.577   8.864 -0.2081  0.1027  0.0846
   62loPI    C1  977  11.648   9.146  10.601  0.0999 -0.0570  0.2019
   62loPI    C2  978  11.727   9.231  10.984  0.2623 -0.1591  0.1924
   62loPI    C3  979  11.627   8.859  10.879  0.2779 -0.1448  0.1265
   62loPI   PO4  980  11.607   9.380  10.391  0.4189 -0.1620  0.3040
   62loPI   GL1  981  11.769   9.535  10.011  0.0488 -0.1387 -0.0237
   62loPI   GL2  982  11.366   9.493   9.909  0.2129 -0.1378 -0.0712
   62loPI   C1A  983  12.039   9.430   9.865  0.0483  0.1817  0.1628
   62loPI   C2A  984  12.261   9.215   9.583 -0.4397  0.1572 -0.2466
   62loPI   C3A  985  12.247   9.031   9.211  0.1030 -0.2928 -0.0151
   62loPI   C4A  986  12.316   9.105   8.847  0.2269 -0.1966 -0.2367
   62loPI   C5A  987  12.366   9.146   8.431  0.3608  0.2865 -0.0427
   62loPI   C6A  988  12.386   8.835   8.219  0.0338 -0.0253 -0.0828
   62loPI   C1B  989  11.557   9.350   9.596 -0.0103 -0.2585 -0.1891
   62loPI   C2B  990  11.859   9.403   9.363 -0.2370  0.0836  0.1933
   62loPI   C3B  991  12.174   9.522   9.140  0.2723 -0.0844 -0.0143
   62loPI   C4B  992  12.312   9.589   8.731  0.1327  0.0450  0.1982
   63loPI    C1  993   0.480   9.113  11.188  0.0432  0.1962 -0.1871
   63loPI    C2  994   0.594   9.332  11.503 -0.1043 -0.0831  0.0661
   63loPI    C3  995   0.206   9.252  11.444 -0.0945  0.1056 -0.2837
   63loPI   PO4  996   0.586   9.190  10.996  0.0607  0.0136 -0.0383
   63loPI   GL1  997   0.346   9.086  10.609 -0.0476  0.0502  0.1028
   63loPI   GL2  998   0.461   8.721  10.635  0.1960 -0.3574  0.2570
   63loPI   C1A  999   0.312   9.034  10.073  0.2075 -0.1923 -0.2388
   63loPI   C2A 1000   0.316   9.085   9.625 -0.3454  0.1622  0.1581
   63loPI   C3A 1001   0.229   9.155   9.186  0.0273  0.0266  0.4085
   63loPI   C4A 1002   0.244   9.249   8.767 -0.1108  0.3984 -0.0132
   63loPI   C5A 1003   0.036   9.212   8.323  0.1497  0.2685  0.1956
   63loPI   C6A 1004  -0.149   9.023   8.017  0.1947 -0.0821  0.1474
   63loPI   C1B 1005   0.363   8.569  10.245 -0.1043  0.0161 -0.2780
   63loPI   C2B 1006   0.383   8.600   9.799  0.0085 -0.0296  0.1041
   63loPI   C3B 1007   0.374   8.635   9.368  0.0863  0.0688 -0.1499
   63loPI   C4B 1008   0.370   8.599   8.955  0.1403  0.0230  0.0304
   64loPI    C1 1009  17.101  15.102  11.079  0.1757 -0.0235  0.2163
   64loPI    C2 1010  17.076  14.704  11.097 -0.0973 -0.0214 -0.0300
   64loPI    C3 1011  16.987  14.924  11.418  0.0477 -0.1566  0.1049
   64loPI   PO4 1012  17.364  15.119  10.881  0.0163 -0.2364 -0.1842
   64loPI   GL1 1013  17.565  14.857  10.469  0.2547 -0.2658 -0.0274
   64loPI   GL2 1014  17.360  15.134  10.356  0.2526 -0.0066 -0.1013
   64loPI   C1A 1015  17.608  14.808   9.937 -0.1375  0.0740 -0.2524
   64loPI   C2A 1016  17.550  14.732   9.482 -0.3592  0.0241  0.1772
   64loPI   C3A 1017  17.629  14.842   9.056  0.2562 -0.1907 -0.0073
   64loPI   C4A 1018  17.327  14.936   8.711 -0.1023  0.0910 -0.1124
   64loPI   C5A 1019  17.374  14.693   8.375  0.1609  0.1695  0.0552
   64loPI   C6A 1020  17.458  14.215   8.278 -0.3059 -0.0689 -0.2193
   64loPI   C1B 1021  17.419  15.281   9.936 -0.0925  0.0182 -0.2289
   64loPI   C2B 1022  17.470  15.337   9.476  0.2197  0.0036 -0.1563
   64loPI   C3B 1023  17.607  15.371   9.014 -0.4084  0.1326 -0.0717
   64loPI   C4B 1024  17.708  15.299   8.602  0.0440  0.0421 -0.0677
   65loPI    C1 1025   4.609  13.127  11.048  0.0538  0.0356 -0.0809
   65loPI    C2 1026   4.542  12.979  11.413 -0.0872 -0.2451 -0.2171
   65loPI    C3 1027   4.622  13.368  11.367  0.1159 -0.2410  0.1297
   65loPI   PO4 1028   4.418  13.039  10.921  0.1488  0.0194  0.1990
   65loPI   GL1 1029   4.024  13.279  10.704  0.0330  0.0062  0.0949
   65loPI   GL2 1030   3.939  13.051  10.800  0.0057  0.1783  0.0901
   65loPI   C1A 1031   4.017  13.405  10.221  0.0723  0.0406  0.0773
   65loPI   C2A 1032   4.032  13.399   9.723  0.1093  0.1000 -0.2861
   65loPI   C3A 1033   3.905  13.360   9.299  0.4210  0.1000  0.0264
   65loPI   C4A 1034   3.963  13.317   8.898 -0.0727 -0.1881  0.1910
   65loPI   C5A 1035   3.807  13.099   8.551  0.0442 -0.2931 -0.0633
   65loPI   C6A 1036   3.629  12.847   8.178 -0.1385  0.0598 -0.1680
   65loPI   C1B 1037   3.604  13.224  10.472  0.1766 -0.3293  0.1937
   65loPI   C2B 1038   3.552  13.099   9.961 -0.2566  0.4688  0.0024
   65loPI   C3B 1039   3.506  13.079   9.584 -0.0878  0.1294  0.0413
   65loPI   C4B 1040   3.518  13.042   9.135 -0.0845  0.1647  0.0355
   66loPI    C1 1041  16.749   9.698  11.112 -0.0487  0.4114  0.1987
   66loPI    C2 1042  16.516   9.789  11.425  0.0453  0.0353  0.3851
   66loPI    C3 1043  16.892   9.666  11.485 -0.0676 -0.4453  0.1530
   66loPI   PO4 1044  16.718   9.827  10.931  0.0340  0.1523  0.0349
   66loPI   GL1 1045  16.635  10.005  10.592  0.2736 -0.0283  0.2426
   66loPI   GL2 1046  16.685   9.779  10.415 -0.2247 -0.1231  0.0300
   66loPI   C1A 1047  16.721  10.281  10.210  0.2049 -0.0410  0.0779
   66loPI   C2A 1048  16.697  10.256   9.838 -0.2020  0.1886  0.0943
   66loPI   C3A 1049  16.743  10.361   9.400  0.0163 -0.1094  0.3591
   66loPI   C4A 1050  16.673  10.343   8.934  0.2066 -0.1025 -0.2997
   66loPI   C5A 1051  16.566  10.402   8.523 -0.0432 -0.1639  0.4229
   66loPI   C6A 1052  16.878  10.595   8.139  0.2083 -0.2586 -0.0107
   66loPI   C1B 1053  16.773   9.748   9.968 -0.1778  0.1334  0.0745
   66loPI   C2B 1054  16.741   9.798   9.538 -0.0055 -0.0906  0.3719
   66loPI   C3B 1055  16.855   9.773   9.121 -0.2684  0.0484 -0.0248
   66loPI   C4B 1056  16.765   9.891   8.722 -0.0686 -0.0373  0.1935
   67loPI    C1 1057   0.583  13.575  11.128 -0.0132 -0.1914 -0.0825
   67loPI    C2 1058   0.530  13.852  11.412 -0.1371 -0.1025 -0.1908
   67loPI    C3 1059   0.446  13.468  11.489  0.1453 -0.1300 -0.0035
   67loPI   PO4 1060   0.455  13.637  10.930  0.0297  0.2504  0.1298
   67loPI   GL1 1061   0.459  13.538  10.499  0.1275 -0.1914  0.0004
   67loPI   GL2 1062   0.676  13.455  10.425  0.2600 -0.1000 -0.0410
   67loPI   C1A 1063   0.238  13.557  10.158 -0.1650  0.1363 -0.0214
   67loPI   C2A 1064   0.284  13.535   9.686  0.1208  0.0981 -0.2299
   67loPI   C3A 1065   0.304  13.551   9.281  0.0264  0.1033 -0.0093
   67loPI   C4A 1066   0.369  13.472   8.864  0.2060  0.0029  0.0389
   67loPI   C5A 1067   0.418  13.451   8.501  0.1539 -0.1064 -0.2083
   67loPI   C6A 1068   0.312  13.633   8.252 -0.0855 -0.0527  0.0909
   67loPI   C1B 1069   0.674  13.397  10.001 -0.2099 -0.2187  0.1747
   67loPI   C2B 1070   0.739  13.363   9.534  0.0080  0.1965 -0.2550
   67loPI   C3B 1071   0.812  13.319   9.137 -0.0993 -0.2604  0.0451
   67loPI   C4B 1072   0.852  13.331   8.714 -0.0676  0.1821  0.0302
   68loPI    C1 1073   5.853  14.750  11.228 -0.1123 -0.1376  0.0690
   68loPI    C2 1074   5.613  15.014  11.410  0.0273  0.1745 -0.1894
   68loPI    C3 1075   6.004  15.008  11.493 -0.0166 -0.1358  0.0131
   68loPI   PO4 1076   5.802  14.763  10.955  0.2094  0.0115  0.1620
   68loPI   GL1 1077   5.964  14.608  10.569 -0.1895 -0.1307  0.3305
   68loPI   GL2 1078   6.228  14.514  10.417 -0.0866 -0.3456 -0.0543
   68loPI   C1A 1079   5.723  14.557  10.233  0.0254 -0.1016  0.3371
   68loPI   C2A 1080   5.634  14.653   9.866 -0.1993  0.4687 -0.1553
   68loPI   C3A 1081   5.483  14.611   9.471  0.0430 -0.0338 -0.0279
   68loPI   C4A 1082   5.569  14.559   9.043  0.1839  0.0724  0.0090
   68loPI   C5A 1083   5.910  14.471   8.754 -0.0121 -0.0882 -0.1890
   68loPI   C6A 1084   6.071  14.533   8.360  0.0930 -0.0998 -0.2286
   68loPI   C1B 1085   6.209  14.394  10.006  0.0151 -0.0880 -0.0006
   68loPI   C2B 1086   6.083  14.427   9.583  0.0629 -0.0374  0.1708
   68loPI   C3B 1087   6.307  14.435   9.243 -0.3849 -0.2580  0.0643
   68loPI   C4B 1088   6.561  14.190   9.013  0.1201  0.0910  0.2772
   69loPI    C1 1089   6.627   2.969  11.257 -0.0578 -0.5742  0.1382
   69loPI    C2 1090   6.274   3.096  11.396 -0.0043 -0.3110  0.0403
   69loPI    C3 1091   6.582   3.046  11.647  0.0984  0.1835  0.0223
   69loPI   PO4 1092   6.636   2.985  10.998  0.1635 -0.3716  0.1686
   69loPI   GL1 1093   6.581   2.798  10.589 -0.0094  0.1877  0.1462
   69loPI   GL2 1094   6.263   2.943  10.394  0.1013  0.0441  0.2108
   69loPI   C1A 1095   6.783   2.757  10.259  0.2418 -0.0805 -0.1467
   69loPI   C2A 1096   6.826   2.671   9.806 -0.2258 -0.0598 -0.0771
   69loPI   C3A 1097   6.673   2.671   9.388 -0.0087  0.1065 -0.0660
   69loPI   C4A 1098   6.811   2.663   9.001 -0.3628  0.0675 -0.2019
   69loPI   C5A 1099   6.711   2.647   8.726  0.0205  0.4592 -0.0544
   69loPI   C6A 1100   6.868   2.807   8.376 -0.3093  0.1490  0.0880
   69loPI   C1B 1101   6.403   2.896   9.971 -0.2626  0.1238  0.1454
   69loPI   C2B 1102   6.296   2.945   9.584 -0.1026 -0.0404 -0.1982
   69loPI   C3B 1103   6.352   2.849   9.080  0.0429 -0.1894  0.0469
   69loPI   C4B 1104   6.229   2.928   8.693  0.0924 -0.2176  0.0076
   70loPI    C1 1105  10.007  12.897  11.476 -0.0274  0.0334  0.0628
   70loPI    C2 1106   9.776  12.591  11.363  0.0273  0.0871 -0.1998
   70loPI    C3 1107  10.071  12.532  11.626 -0.0941 -0.0424 -0.0912
   70loPI   PO4 1108  10.124  12.995  11.261  0.0858  0.1065 -0.1190
   70loPI   GL1 1109  10.142  12.856  10.827 -0.0149  0.4218 -0.1262
   70loPI   GL2 1110  10.412  13.084  10.788 -0.0958  0.0001 -0.2634
   70loPI   C1A 1111  10.072  12.786  10.436 -0.1961 -0.1193  0.3039
   70loPI   C2A 1112  10.146  12.792  10.086  0.1624  0.0727  0.1018
   70loPI   C3A 1113  10.049  12.923   9.740  0.3654  0.0691  0.3710
   70loPI   C4A 1114   9.977  12.944   9.366 -0.0409 -0.0181  0.3094
   70loPI   C5A 1115   9.905  13.108   8.966  0.0690  0.2957  0.4126
   70loPI   C6A 1116  10.171  13.290   8.590  0.1996 -0.1855  0.1476
   70loPI   C1B 1117  10.487  13.130  10.377  0.4111 -0.1051 -0.1723
   70loPI   C2B 1118  10.487  13.128   9.933 -0.1168  0.0443 -0.0588
   70loPI   C3B 1119  10.406  13.273   9.526  0.1219  0.0546  0.1009
   70loPI   C4B 1120  10.311  13.389   9.130  0.1247 -0.2968  0.2139
   71loPI    C1 1121  13.490  10.756  11.021  0.3499  0.0853 -0.2077
   71loPI    C2 1122  13.504  10.952  11.369 -0.2272 -0.3399  0.0728
   71loPI    C3 1123  13.811  10.723  11.257 -0.0342 -0.1967  0.2976
   71loPI   PO4 1124  13.514  10.882  10.778  0.1296  0.1925 -0.0903
   71loPI   GL1 1125  13.731  11.200  10.468 -0.0108  0.0183  0.0572
   71loPI   GL2 1126  14.006  11.209  10.400 -0.0859 -0.2507  0.0974
   71loPI   C1A 1127  13.553  11.538  10.220 -0.0054  0.0605 -0.3906
   71loPI   C2A 1128  13.353  11.559   9.802 -0.0676 -0.4120 -0.0639
   71loPI   C3A 1129  13.465  11.527   9.478  0.1203  0.1611  0.0657
   71loPI   C4A 1130  13.308  11.412   8.999 -0.0620  0.1923 -0.2735
   71loPI   C5A 1131  13.336  11.510   8.601  0.2993  0.1274  0.1916
   71loPI   C6A 1132  13.590  11.280   8.232  0.1083  0.1011 -0.5263
   71loPI   C1B 1133  13.973  11.419   9.956 -0.3159  0.3652 -0.2998
   71loPI   C2B 1134  13.938  11.452   9.550 -0.2317  0.0284 -0.0442
   71loPI   C3B 1135  13.903  11.401   9.153 -0.1260 -0.0760  0.0162
   71loPI   C4B 1136  13.866  11.377   8.739 -0.1080 -0.2876 -0.2388
   72loPI    C1 1137  15.087   0.229  11.247 -0.1353  0.1701  0.3283
   72loPI    C2 1138  15.295  -0.100  11.340 -0.0976  0.0442 -0.1713
   72loPI    C3 1139  14.916  -0.062  11.462 -0.1731 -0.2873 -0.2917
   72loPI   PO4 1140  15.131   0.259  11.016  0.1002  0.0559 -0.2730
   72loPI   GL1 1141  15.079   0.236  10.600 -0.4843  0.0484 -0.0249
   72loPI   GL2 1142  15.312  -0.043  10.694 -0.0756  0.1732 -0.1989
   72loPI   C1A 1143  15.032   0.063  10.173 -0.0535 -0.1140 -0.0162
   72loPI   C2A 1144  15.029  -0.001   9.695  0.4710 -0.2142  0.1674
   72loPI   C3A 1145  15.056   0.055   9.222  0.2165  0.1928  0.2306
   72loPI   C4A 1146  15.251  -0.144   8.729  0.3729 -0.2367 -0.0494
   72loPI   C5A 1147  15.568  -0.244   8.579 -0.0186 -0.2143  0.0348
   72loPI   C6A 1148  15.903  -0.107   8.338 -0.0349  0.0601  0.0707
   72loPI   C1B 1149  15.505  -0.146  10.338  0.1165  0.1824  0.4333
   72loPI   C2B 1150  15.506  -0.218   9.930 -0.2352 -0.1903  0.1105
   72loPI   C3B 1151  15.465  -0.249   9.584 -0.2680  0.1978  0.1110
   72loPI   C4B 1152  15.507  -0.201   9.128  0.1006  0.2061 -0.3427
   73loPI    C1 1153   5.643   0.286  11.301  0.0409 -0.3208  0.1102
   73loPI    C2 1154   5.498   0.356  11.667 -0.0859 -0.0521  0.0115
   73loPI    C3 1155   5.893   0.339  11.608 -0.0652 -0.1049  0.1619
   73loPI   PO4 1156   5.365   0.274  11.056  0.0604 -0.1188  0.0013
   73loPI   GL1 1157   5.349   0.398  10.640  0.1292  0.1341  0.0989
   73loPI   GL2 1158   4.974   0.420  10.530 -0.0387 -0.1446 -0.0769
   73loPI   C1A 1159   5.642   0.435  10.360  0.1497  0.1319  0.0212
   73loPI   C2A 1160   5.709   0.243   9.955  0.2934  0.0165  0.0655
   73loPI   C3A 1161   5.724   0.192   9.461 -0.0590  0.0271 -0.0680
   73loPI   C4A 1162   5.796   0.174   8.984 -0.2293  0.1708  0.2951
   73loPI   C5A 1163   5.829  -0.111   8.556  0.0135  0.0608  0.3341
   73loPI   C6A 1164   5.574  -0.356   8.263 -0.2906  0.1165 -0.1239
   73loPI   C1B 1165   5.145   0.373  10.174 -0.1575 -0.1461  0.0578
   73loPI   C2B 1166   5.254   0.533   9.745 -0.0076  0.1789  0.0336
   73loPI   C3B 1167   5.281   0.381   9.316 -0.1542  0.1659  0.1704
   73loPI   C4B 1168   5.334   0.408   8.816  0.2241 -0.0985  0.1089
   74loPI    C1 1169  14.835   7.680  11.163  0.1247 -0.2048 -0.1095
   74loPI    C2 1170  15.127   7.671  11.436 -0.0441 -0.0986  0.0776
   74loPI    C3 1171  14.851   7.382  11.430 -0.0488 -0.0932  0.0276
   74loPI   PO4 1172  14.922   7.752  10.939  0.1792  0.1010 -0.1478
   74loPI   GL1 1173  14.698   7.688  10.565  0.0430  0.4858  0.0742
   74loPI   GL2 1174  15.040   7.485  10.534 -0.1790  0.1045 -0.4493
   74loPI   C1A 1175  14.753   7.621  10.111  0.2349 -0.0625  0.0791
   74loPI   C2A 1176  14.642   7.683   9.706 -0.0178 -0.0020  0.0507
   74loPI   C3A 1177  14.754   7.709   9.278  0.1608  0.1234 -0.2453
   74loPI   C4A 1178  14.656   8.048   8.887  0.2878 -0.0439 -0.3329
   74loPI   C5A 1179  14.972   8.006   8.597  0.2019  0.0472  0.0797
   74loPI   C6A 1180  15.474   7.987   8.570 -0.1558 -0.1916 -0.0545
   74loPI   C1B 1181  15.158   7.429  10.152  0.0439  0.1724 -0.1776
   74loPI   C2B 1182  15.095   7.422   9.703 -0.1508 -0.1706 -0.0993
   74loPI   C3B 1183  15.183   7.376   9.296 -0.1376  0.0367  0.3086
   74loPI   C4B 1184  15.222   7.509   8.904  0.0359 -0.3147  0.0907
   75loPI    C1 1185   0.536  14.466  10.826  0.2751 -0.0690 -0.3277
   75loPI    C2 1186   0.484  14.095  10.688 -0.0413 -0.1433 -0.0204
   75loPI    C3 1187   0.763  14.168  10.965  0.2375 -0.0896 -0.3104
   75loPI   PO4 1188   0.543  14.640  10.599 -0.4486  0.1205 -0.0590
   75loPI   GL1 1189   0.412  14.884  10.265 -0.1114  0.2333  0.1806
   75loPI   GL2 1190   0.164  14.784  10.199 -0.1015  0.1716 -0.2184
   75loPI   C1A 1191   0.534  14.888   9.865  0.2750  0.1815 -0.0859
   75loPI   C2A 1192   0.626  14.897   9.381  0.0921  0.0414  0.0698
   75loPI   C3A 1193   0.655  14.835   8.977  0.0737  0.1107  0.0294
   75loPI   C4A 1194   0.822  14.927   8.557 -0.0117 -0.2017  0.3946
   75loPI   C5A 1195   0.827  14.583   8.164  0.0572  0.2513 -0.0708
   75loPI   C6A 1196   0.618  14.133   8.209  0.0893 -0.3208 -0.1686
   75loPI   C1B 1197   0.160  14.559   9.681 -0.0669 -0.2024 -0.2749
   75loPI   C2B 1198   0.133  14.599   9.247  0.1310 -0.2581  0.1134
   75loPI   C3B 1199   0.256  14.510   8.867  0.1356 -0.2789  0.0677
   75loPI   C4B 1200   0.413  14.614   8.422  0.2056  0.3676 -0.0053
   76loPI    C1 1201   0.922  13.214  11.053 -0.0657 -0.0335 -0.2567
   76loPI    C2 1202   0.673  13.112  10.757 -0.1266 -0.0040 -0.2159
   76loPI    C3 1203   0.551  13.089  11.137  0.0413 -0.3050 -0.1771
   76loPI   PO4 1204   1.133  13.256  10.777 -0.0936  0.0378 -0.1129
   76loPI   GL1 1205   1.158  13.257  10.336  0.2912 -0.1506 -0.2694
   76loPI   GL2 1206   0.908  13.016  10.237  0.2556 -0.2264 -0.0902
   76loPI   C1A 1207   1.177  13.210   9.869  0.4719  0.3454  0.1501
   76loPI   C2A 1208   1.148  13.168   9.411 -0.1338  0.1196  0.1255
   76loPI   C3A 1209   1.245  13.176   8.911 -0.1493  0.0259  0.1351
   76loPI   C4A 1210   1.327  13.286   8.436 -0.1700 -0.2241  0.0487
   76loPI   C5A 1211   1.189  13.358   7.956  0.1204  0.1464  0.1163
   76loPI   C6A 1212   0.872  13.414   7.651  0.0206  0.2262  0.0609
   76loPI   C1B 1213   0.738  12.892   9.783 -0.1217 -0.2724  0.1262
   76loPI   C2B 1214   0.736  12.852   9.372  0.0810  0.0707  0.1155
   76loPI   C3B 1215   0.878  12.796   8.982 -0.5360  0.4193  0.2520
   76loPI   C4B 1216   0.889  12.840   8.515  0.2265  0.1454  0.1386
   77loPI    C1 1217  13.910  12.173  11.409 -0.1522 -0.1050 -0.0703
   77loPI    C2 1218  13.581  12.057  11.604 -0.2970  0.3269 -0.0475
   77loPI    C3 1219  13.847  12.294  11.785  0.0324 -0.0200 -0.0658
   77loPI   PO4 1220  13.867  12.338  11.137  0.3371 -0.1912 -0.0327
   77loPI   GL1 1221  13.661  12.246  10.818 -0.0816 -0.2400 -0.0291
   77loPI   GL2 1222  13.591  12.623  10.670 -0.2984  0.2121  0.0806
   77loPI   C1A 1223  13.453  11.936  10.510 -0.1075 -0.0783  0.2879
   77loPI   C2A 1224  13.356  12.018  10.013  0.0727  0.0026  0.0920
   77loPI   C3A 1225  13.374  12.015   9.607 -0.1508  0.0041  0.1531
   77loPI   C4A 1226  13.396  11.943   9.200  0.0661 -0.1801  0.0168
   77loPI   C5A 1227  13.340  12.096   8.723  0.0003 -0.2504  0.5086
   77loPI   C6A 1228  13.732  12.357   8.548 -0.0444 -0.0215 -0.0867
   77loPI   C1B 1229  13.692  12.449  10.346 -0.1692 -0.3130  0.3871
   77loPI   C2B 1230  13.727  12.361   9.934 -0.2542 -0.2909  0.1120
   77loPI   C3B 1231  13.743  12.392   9.483  0.0299 -0.1560  0.0334
   77loPI   C4B 1232  13.682  12.338   9.072  0.0196  0.3516  0.0063
   78loPI    C1 1233   9.347  12.721  11.165  0.4619 -0.3488  0.0969
   78loPI    C2 1234   9.380  12.861  11.539  0.3574 -0.0302 -0.0105
   78loPI    C3 1235   9.158  12.537  11.466  0.1818  0.0475  0.1708
   78loPI   PO4 1236   9.247  12.961  11.050 -0.3275  0.0311 -0.0098
   78loPI   GL1 1237   9.329  13.200  10.678 -0.0450 -0.1105 -0.1697
   78loPI   GL2 1238   9.636  13.021  10.687 -0.2267  0.3342  0.0686
   78loPI   C1A 1239   9.111  13.256  10.254 -0.2939  0.0346  0.4061
   78loPI   C2A 1240   9.078  13.217   9.862  0.0164  0.3116 -0.0998
   78loPI   C3A 1241   8.998  13.295   9.457 -0.0003 -0.0249  0.0323
   78loPI   C4A 1242   8.983  13.309   9.002  0.2446  0.0897 -0.0367
   78loPI   C5A 1243   9.038  13.507   8.577 -0.0072 -0.0549 -0.0694
   78loPI   C6A 1244   8.972  13.466   8.164  0.1123 -0.0603  0.1301
   78loPI   C1B 1245   9.549  13.007  10.256  0.2502  0.3333 -0.0869
   78loPI   C2B 1246   9.566  13.062   9.771 -0.2322 -0.0438  0.2513
   78loPI   C3B 1247   9.514  13.056   9.376  0.3061 -0.0932 -0.0529
   78loPI   C4B 1248   9.342  13.012   9.054 -0.0162 -0.1522  0.1328
   79loPI    C1 1249   7.312   0.770  11.167  0.0596  0.1349  0.0779
   79loPI    C2 1250   7.580   0.525  11.336  0.0230  0.1843  0.2093
   79loPI    C3 1251   7.620   0.921  11.373  0.0413  0.1973  0.0598
   79loPI   PO4 1252   7.212   0.623  10.848 -0.3660 -0.1169 -0.0401
   79loPI   GL1 1253   6.851   0.695  10.636 -0.1039  0.2469  0.1376
   79loPI   GL2 1254   6.786   0.496  10.491  0.4399  0.0753  0.0690
   79loPI   C1A 1255   7.131   0.708  10.188  0.0391  0.0445  0.0634
   79loPI   C2A 1256   7.058   0.690   9.681 -0.0613  0.0291 -0.0190
   79loPI   C3A 1257   7.058   0.625   9.229  0.0832  0.0021 -0.1707
   79loPI   C4A 1258   7.098   0.642   8.866  0.1216 -0.3494 -0.0637
   79loPI   C5A 1259   7.180   0.463   8.435 -0.0532 -0.1468 -0.0211
   79loPI   C6A 1260   7.379   0.176   8.114  0.0316 -0.0951  0.1728
   79loPI   C1B 1261   6.690   0.424  10.033  0.0469  0.0105 -0.0067
   79loPI   C2B 1262   6.602   0.287   9.626  0.0020 -0.0904  0.0943
   79loPI   C3B 1263   6.644   0.254   9.232 -0.0192  0.0404 -0.0775
   79loPI   C4B 1264   6.788   0.287   8.793 -0.2096  0.0942  0.0189
   80loPI    C1 1265   0.892   5.200  11.336 -0.0710  0.0698 -0.0594
   80loPI    C2 1266   1.254   5.335  11.441 -0.0853  0.1134 -0.0657
   80loPI    C3 1267   0.946   5.372  11.693 -0.1071  0.1661 -0.0999
   80loPI   PO4 1268   0.869   5.304  11.111  0.0273  0.2054 -0.0356
   80loPI   GL1 1269   0.896   5.344  10.760  0.0050  0.0495  0.0651
   80loPI   GL2 1270   0.830   5.647  10.607 -0.0543  0.0936 -0.2987
   80loPI   C1A 1271   1.134   5.280  10.377  0.2728 -0.0398 -0.2275
   80loPI   C2A 1272   1.200   5.259  10.002 -0.3449 -0.1221  0.0317
   80loPI   C3A 1273   1.086   5.259   9.702 -0.0802 -0.0173 -0.1308
   80loPI   C4A 1274   1.141   5.278   9.235 -0.1151 -0.1827 -0.1747
   80loPI   C5A 1275   1.161   5.189   8.817  0.0788 -0.0676  0.2548
   80loPI   C6A 1276   1.532   5.030   8.479 -0.3434 -0.1226  0.0755
   80loPI   C1B 1277   0.717   5.482  10.157 -0.0722  0.1866  0.0582
   80loPI   C2B 1278   0.635   5.521   9.754 -0.1271  0.1237  0.1286
   80loPI   C3B 1279   0.668   5.442   9.322 -0.2339 -0.1330  0.0066
   80loPI   C4B 1280   0.725   5.325   8.861  0.0422 -0.5479 -0.1091
   81loPI    C1 1281   8.715  12.623  11.071 -0.1287 -0.0052 -0.2204
   81loPI    C2 1282   8.817  12.905  11.336 -0.0637 -0.3360  0.1156
   81loPI    C3 1283   8.452  12.908  11.172 -0.0337 -0.0088  0.0472
   81loPI   PO4 1284   8.914  12.678  10.835 -0.0284  0.0089 -0.1768
   81loPI   GL1 1285   9.179  12.708  10.492 -0.2883 -0.1035  0.1497
   81loPI   GL2 1286   9.346  12.486  10.732 -0.0316  0.0782  0.0347
   81loPI   C1A 1287   9.181  12.697  10.052 -0.0619 -0.0071 -0.1864
   81loPI   C2A 1288   9.169  12.796   9.608 -0.0164  0.1345 -0.0506
   81loPI   C3A 1289   9.056  12.600   9.155 -0.2343 -0.1121 -0.0127
   81loPI   C4A 1290   8.824  12.394   8.853 -0.0240  0.0484  0.0430
   81loPI   C5A 1291   8.764  12.384   8.464 -0.3867 -0.0474  0.3916
   81loPI   C6A 1292   8.806  12.550   8.056 -0.1761  0.0403  0.2252
   81loPI   C1B 1293   9.676  12.523  10.343  0.2028  0.2233  0.0124
   81loPI   C2B 1294   9.711  12.553   9.942  0.1748 -0.0696  0.0761
   81loPI   C3B 1295   9.646  12.582   9.520  0.0311 -0.1714  0.1733
   81loPI   C4B 1296   9.565  12.592   9.120  0.0668  0.0092  0.2476
   82loPI    C1 1297   5.873  11.295  11.108  0.2549 -0.3761  0.2301
   82loPI    C2 1298   5.845  11.662  11.265  0.0551 -0.2283 -0.1395
   82loPI    C3 1299   5.658  11.355  11.441 -0.0399 -0.0945 -0.0048
   82loPI   PO4 1300   5.874  11.342  10.881  0.0387  0.0861 -0.0626
   82loPI   GL1 1301   5.709  11.539  10.589 -0.1127 -0.0669 -0.0513
   82loPI   GL2 1302   5.378  11.671  10.497 -0.0657 -0.0541  0.1197
   82loPI   C1A 1303   5.610  11.232  10.249  0.2724 -0.0169  0.1908
   82loPI   C2A 1304   5.440  11.156   9.777 -0.0796 -0.2418 -0.1198
   82loPI   C3A 1305   5.547  11.230   9.398 -0.0025  0.0262 -0.1554
   82loPI   C4A 1306   5.625  11.212   8.977 -0.0480  0.1479  0.0186
   82loPI   C5A 1307   5.334  11.060   8.566  0.1272  0.0042  0.0529
   82loPI   C6A 1308   5.151  10.641   8.601  0.1208 -0.3748 -0.1021
   82loPI   C1B 1309   5.556  11.789  10.066  0.1282  0.0800 -0.1342
   82loPI   C2B 1310   5.496  11.749   9.598 -0.2178 -0.1234 -0.1979
   82loPI   C3B 1311   5.520  11.683   9.145  0.1934 -0.1854  0.1361
   82loPI   C4B 1312   5.480  11.621   8.696  0.0055 -0.0267 -0.1401
   83loPI    C1 1313  11.978  13.317  11.511 -0.1871 -0.0225 -0.2353
   83loPI    C2 1314  11.713  13.341  11.810 -0.1399 -0.2215 -0.1761
   83loPI    C3 1315  12.068  13.165  11.870 -0.1037 -0.2033 -0.3312
   83loPI   PO4 1316  11.760  13.252  11.288 -0.0332 -0.2978 -0.0407
   83loPI   GL1 1317  11.755  13.214  10.916  0.0992  0.4347  0.4034
   83loPI   GL2 1318  12.140  13.280  10.864 -0.0658 -0.1290 -0.0236
   83loPI   C1A 1319  11.358  13.240  10.513 -0.3038  0.1684 -0.0356
   83loPI   C2A 1320  11.363  13.323  10.062 -0.1248  0.2552  0.3160
   83loPI   C3A 1321  11.267  13.229   9.623  0.3092 -0.1966  0.2272
   83loPI   C4A 1322  11.310  13.401   9.167 -0.1494  0.0930 -0.2803
   83loPI   C5A 1323  11.614  13.345   8.788 -0.2271 -0.0174 -0.3247
   83loPI   C6A 1324  11.949  13.565   8.612 -0.2202 -0.1140  0.1183
   83loPI   C1B 1325  12.243  13.357  10.382  0.0024 -0.0473 -0.2063
   83loPI   C2B 1326  12.269  13.410   9.913  0.2607  0.2593  0.1832
   83loPI   C3B 1327  12.233  13.451   9.530  0.4546  0.0911  0.1162
   83loPI   C4B 1328  12.232  13.379   9.002  0.0269  0.2856 -0.5425
   84loPI    C1 1329  14.554  11.879  10.975 -0.1479 -0.0554  0.2053
   84loPI    C2 1330  14.700  12.075  11.292 -0.0698  0.3164 -0.0537
   84loPI    C3 1331  14.349  11.886  11.318 -0.0724  0.3583  0.2474
   84loPI   PO4 1332  14.537  12.028  10.813 -0.3226 -0.4427  0.1599
   84loPI   GL1 1333  14.288  12.184  10.555 -0.1075 -0.0005  0.5088
   84loPI   GL2 1334  14.108  12.420  10.700 -0.5247  0.3725 -0.1714
   84loPI   C1A 1335  14.234  12.235  10.079 -0.1829  0.2058  0.0368
   84loPI   C2A 1336  14.197  12.231   9.656 -0.1439  0.2269  0.0970
   84loPI   C3A 1337  14.164  12.182   9.174  0.0774  0.1112 -0.1327
   84loPI   C4A 1338  14.193  12.149   8.740 -0.0570  0.4180  0.0001
   84loPI   C5A 1339  14.116  12.280   8.269 -0.0282 -0.0725 -0.1506
   84loPI   C6A 1340  14.108  12.107   7.780  0.2167  0.2081  0.2551
   84loPI   C1B 1341  14.071  12.723  10.445  0.1264  0.1138 -0.1390
   84loPI   C2B 1342  14.162  12.722   9.961  0.3604  0.0162  0.0404
   84loPI   C3B 1343  14.153  12.689   9.477  0.2042  0.0322  0.0605
   84loPI   C4B 1344  14.150  12.723   9.005  0.2198 -0.0239 -0.2257
   85loPI    C1 1345   4.772  15.788  11.035 -0.0886  0.2487  0.0526
   85loPI    C2 1346   5.110  15.910  11.212 -0.0253  0.3362 -0.1259
   85loPI    C3 1347   4.987  15.532  11.255  0.1011  0.3012 -0.0684
   85loPI   PO4 1348   4.773  15.877  10.834 -0.1453  0.0972 -0.1136
   85loPI   GL1 1349   5.000  15.753  10.471 -0.3087 -0.4797  0.0877
   85loPI   GL2 1350   5.411  15.669  10.307  0.2664  0.1621  0.1113
   85loPI   C1A 1351   4.992  15.888  10.024  0.2166  0.0960  0.1277
   85loPI   C2A 1352   5.042  15.893   9.695 -0.1828  0.4085 -0.3890
   85loPI   C3A 1353   5.028  15.819   9.278 -0.0896 -0.0820 -0.1099
   85loPI   C4A 1354   4.979  15.806   8.864 -0.1396 -0.1847  0.0465
   85loPI   C5A 1355   5.063  15.836   8.400  0.3103  0.0391 -0.1982
   85loPI   C6A 1356   5.277  15.618   8.094 -0.1798 -0.0891 -0.2798
   85loPI   C1B 1357   5.444  15.651   9.865  0.0704  0.1181  0.0356
   85loPI   C2B 1358   5.508  15.647   9.474  0.0369  0.0983  0.3458
   85loPI   C3B 1359   5.419  15.595   8.985  0.2563 -0.1841  0.0738
   85loPI   C4B 1360   5.613  15.446   8.656  0.1617  0.1151  0.1013
   86loPI    C1 1361   8.082   5.469  11.195 -0.1806 -0.0106  0.2130
   86loPI    C2 1362   8.133   5.073  11.174  0.0100  0.0345 -0.3181
   86loPI    C3 1363   7.797   5.223  11.330 -0.0120 -0.3295  0.0001
   86loPI   PO4 1364   8.170   5.525  10.929 -0.1441 -0.3253 -0.1969
   86loPI   GL1 1365   8.165   5.596  10.537 -0.0216  0.1699  0.1444
   86loPI   GL2 1366   8.406   5.348  10.396 -0.1477 -0.0302  0.0412
   86loPI   C1A 1367   7.917   5.655  10.204  0.0635  0.0942 -0.0576
   86loPI   C2A 1368   7.894   5.786   9.685  0.2020 -0.0108 -0.3197
   86loPI   C3A 1369   7.814   5.667   9.360  0.0590 -0.0693 -0.2421
   86loPI   C4A 1370   7.803   5.640   9.012 -0.1422  0.0099 -0.0981
   86loPI   C5A 1371   7.783   5.726   8.572 -0.1192  0.2688 -0.0783
   86loPI   C6A 1372   7.984   5.644   8.198  0.0296  0.4234  0.2677
   86loPI   C1B 1373   8.358   5.533  10.015  0.0543  0.3632  0.0668
   86loPI   C2B 1374   8.334   5.420   9.568  0.0843 -0.0288 -0.0130
   86loPI   C3B 1375   8.264   5.541   9.165 -0.1659 -0.0682  0.0488
   86loPI   C4B 1376   8.195   5.476   8.681  0.0535 -0.0676  0.1075
   87loPI    C1 1377   8.740   2.311  11.435  0.0644  0.3025 -0.2720
   87loPI    C2 1378   8.378   2.144  11.454  0.3014 -0.2034 -0.0001
   87loPI    C3 1379   8.421   2.535  11.523 -0.1970 -0.1234 -0.1053
   87loPI   PO4 1380   8.881   2.222  11.218 -0.0986  0.3001 -0.1042
   87loPI   GL1 1381   8.874   2.448  10.756  0.3278 -0.1770 -0.0554
   87loPI   GL2 1382   9.010   2.685  10.610 -0.0090 -0.1400 -0.0626
   87loPI   C1A 1383   8.728   2.386  10.351 -0.1208  0.1454  0.2262
   87loPI   C2A 1384   8.605   2.356   9.912  0.0405  0.0138  0.0429
   87loPI   C3A 1385   8.559   2.367   9.454 -0.1740  0.0538  0.3549
   87loPI   C4A 1386   8.516   2.376   9.054 -0.2180 -0.0122  0.0434
   87loPI   C5A 1387   8.464   2.323   8.620  0.0746 -0.2381 -0.2157
   87loPI   C6A 1388   8.183   2.260   8.435  0.2186  0.0034 -0.1267
   87loPI   C1B 1389   9.065   2.673  10.166  0.3561  0.1314 -0.1621
   87loPI   C2B 1390   9.036   2.581   9.743  0.0031  0.0891 -0.0568
   87loPI   C3B 1391   8.947   2.680   9.325 -0.2103  0.0366 -0.1029
   87loPI   C4B 1392   9.045   2.797   8.969  0.2174  0.3474  0.1504
   88loPI    C1 1393   1.593   5.764  11.337 -0.1883  0.0151  0.1668
   88loPI    C2 1394   1.702   5.998  11.642 -0.1637 -0.2027  0.3280
   88loPI    C3 1395   1.653   5.606  11.700 -0.0966 -0.2560  0.0363
   88loPI   PO4 1396   1.740   5.844  11.119 -0.0017 -0.0869  0.0719
   88loPI   GL1 1397   1.734   5.980  10.787 -0.2036  0.0758  0.0012
   88loPI   GL2 1398   1.995   5.829  10.683 -0.2979  0.0369 -0.0752
   88loPI   C1A 1399   1.593   6.052  10.390  0.0157 -0.1034  0.3089
   88loPI   C2A 1400   1.510   6.081   9.930  0.3468  0.1073  0.1267
   88loPI   C3A 1401   1.419   6.153   9.559 -0.0387 -0.1077 -0.2112
   88loPI   C4A 1402   1.387   6.040   9.125 -0.1520  0.0145  0.1103
   88loPI   C5A 1403   1.529   6.187   8.732 -0.0804  0.0885  0.1113
   88loPI   C6A 1404   1.228   6.548   8.560 -0.0579  0.0559  0.0854
   88loPI   C1B 1405   2.028   5.768  10.211 -0.2526  0.3791 -0.1225
   88loPI   C2B 1406   1.969   5.835   9.811 -0.1817 -0.0577  0.1062
   88loPI   C3B 1407   1.841   5.899   9.359  0.3898  0.0508 -0.1107
   88loPI   C4B 1408   1.964   5.853   8.931  0.0051  0.1379  0.0797
   89loPI    C1 1409  13.589  16.766  11.052 -0.2213 -0.2427  0.2046
   89loPI    C2 1410  13.586  17.080  11.300 -0.0250  0.1148 -0.2312
   89loPI    C3 1411  13.920  16.985  11.102 -0.0956 -0.3473 -0.1405
   89loPI   PO4 1412  13.345  16.866  10.830  0.1063 -0.1371 -0.0450
   89loPI   GL1 1413  13.252  17.079  10.466  0.0582 -0.0480 -0.0070
   89loPI   GL2 1414  12.975  17.165  10.541  0.2342  0.0309  0.3634
   89loPI   C1A 1415  13.185  16.865  10.099 -0.0623 -0.0850 -0.1123
   89loPI   C2A 1416  13.273  16.544   9.783 -0.0799 -0.1540 -0.0532
   89loPI   C3A 1417  13.297  16.456   9.352 -0.1610 -0.0770  0.1529
   89loPI   C4A 1418  13.103  16.580   8.950 -0.1185 -0.1671  0.0970
   89loPI   C5A 1419  12.851  16.501   8.536  0.0850  0.0272  0.0384
   89loPI   C6A 1420  12.772  16.407   8.147 -0.1525  0.0501  0.0788
   89loPI   C1B 1421  12.703  17.061  10.137 -0.0305 -0.2391 -0.0656
   89loPI   C2B 1422  12.627  17.470   9.876  0.2008 -0.0787  0.4914
   89loPI   C3B 1423  12.637  17.528   9.431 -0.0582 -0.0931 -0.1976
   89loPI   C4B 1424  12.578  17.535   9.025 -0.0168  0.3449 -0.0832
   90loPI    C1 1425  14.270  10.554  11.093 -0.0613  0.0112  0.0563
   90loPI    C2 1426  14.466  10.239  11.244 -0.1352 -0.0767 -0.0299
   90loPI    C3 1427  14.289  10.501  11.489 -0.0570 -0.0916  0.0427
   90loPI   PO4 1428  14.415  10.636  10.904  0.3256  0.1028  0.3764
   90loPI   GL1 1429  14.454  10.762  10.497  0.0777 -0.2837  0.0704
   90loPI   GL2 1430  14.499  11.020  10.586 -0.3110  0.3511 -0.1453
   90loPI   C1A 1431  14.394  10.821  10.125 -0.0470  0.1375 -0.1711
   90loPI   C2A 1432  14.311  10.769   9.704  0.0023  0.1209 -0.0164
   90loPI   C3A 1433  14.357  10.675   9.358  0.0533  0.2290 -0.0378
   90loPI   C4A 1434  14.442  10.646   8.925 -0.0101 -0.1599  0.0700
   90loPI   C5A 1435  14.493  10.804   8.517 -0.1864  0.0608  0.2933
   90loPI   C6A 1436  14.554  10.923   8.152  0.2636  0.1724 -0.0916
   90loPI   C1B 1437  14.452  11.272  10.191  0.1333  0.0750  0.0735
   90loPI   C2B 1438  14.409  11.248   9.781  0.0553  0.0274 -0.0906
   90loPI   C3B 1439  14.348  11.164   9.403  0.4136 -0.0356  0.3765
   90loPI   C4B 1440  14.398  11.180   8.975  0.2718  0.0002  0.1430
   91loPI    C1 1441  10.598  17.517  10.911 -0.0172 -0.0143 -0.1138
   91loPI    C2 1442  10.566  17.427  11.299 -0.4026 -0.0239 -0.1442
   91loPI    C3 1443  10.682  17.793  11.188  0.0364 -0.1212 -0.0228
   91loPI   PO4 1444  10.375  17.472  10.839  0.0119 -0.3903 -0.2297
   91loPI   GL1 1445  10.335  17.659  10.517 -0.1248 -0.0405  0.2238
   91loPI   GL2 1446  10.228  18.005  10.364 -0.2312  0.1145  0.1575
   91loPI   C1A 1447  10.334  17.526  10.120  0.0991  0.1444 -0.2690
   91loPI   C2A 1448  10.345  17.496   9.632 -0.1153 -0.1025 -0.1696
   91loPI   C3A 1449  10.379  17.582   9.290 -0.2023  0.2579  0.0426
   91loPI   C4A 1450  10.338  17.662   8.825 -0.0276 -0.1833  0.1535
   91loPI   C5A 1451  10.350  17.619   8.399 -0.1616 -0.0940 -0.1302
   91loPI   C6A 1452  10.501  17.661   8.005  0.0472  0.0471 -0.0589
   91loPI   C1B 1453   9.943  17.822  10.122 -0.0018  0.1243 -0.1278
   91loPI   C2B 1454   9.823  17.684   9.753 -0.0003 -0.0442 -0.0795
   91loPI   C3B 1455   9.907  17.724   9.234 -0.2399  0.0471 -0.0636
   91loPI   C4B 1456   9.792  17.767   8.747  0.2649 -0.1764  0.1684
   92loPI    C1 1457   7.657   8.964  11.018 -0.0510  0.1978  0.0925
   92loPI    C2 1458   7.984   9.064  11.225  0.0484 -0.0579  0.0631
   92loPI    C3 1459   7.783   8.732  11.318 -0.0240 -0.0666 -0.1198
   92loPI   PO4 1460   7.539   9.161  10.971 -0.0303 -0.0671 -0.0204
   92loPI   GL1 1461   7.511   9.336  10.462  0.0392 -0.0017 -0.0870
   92loPI   GL2 1462   7.416   9.604  10.344  0.2294  0.2389  0.3182
   92loPI   C1A 1463   7.611   9.285  10.026  0.0296  0.0925 -0.0343
   92loPI   C2A 1464   7.571   9.314   9.596 -0.1497  0.1071  0.2218
   92loPI   C3A 1465   7.516   9.377   9.239  0.1512  0.0314  0.0034
   92loPI   C4A 1466   7.545   9.411   8.771  0.4134 -0.1119 -0.0065
   92loPI   C5A 1467   7.753   9.591   8.427 -0.0306 -0.0779  0.2710
   92loPI   C6A 1468   8.039   9.753   8.106 -0.1273 -0.2240 -0.5193
   92loPI   C1B 1469   7.246   9.614   9.816  0.2467  0.0571  0.0185
   92loPI   C2B 1470   7.029   9.518   9.534  0.1683 -0.1659 -0.0765
   92loPI   C3B 1471   6.975   9.491   9.200  0.1301 -0.2635  0.0009
   92loPI   C4B 1472   7.103   9.648   8.852 -0.0596  0.4637 -0.0014
   93loPI    C1 1473   0.253   8.747  11.362 -0.0039 -0.1221  0.1206
   93loPI    C2 1474  -0.074   8.792  11.588 -0.0708 -0.1492  0.0296
   93loPI    C3 1475   0.221   8.550  11.709  0.0245  0.0633  0.2300
   93loPI   PO4 1476   0.202   8.641  11.086 -0.1168 -0.0663 -0.0544
   93loPI   GL1 1477  -0.202   8.510  10.769 -0.2384  0.0697  0.1968
   93loPI   GL2 1478  -0.145   8.790  10.734 -0.0741 -0.1714  0.0764
   93loPI   C1A 1479  -0.069   8.289  10.421  0.0340  0.1664  0.0025
   93loPI   C2A 1480  -0.010   8.267  10.030  0.3176 -0.0297 -0.0442
   93loPI   C3A 1481  -0.059   8.283   9.552  0.0793 -0.1046  0.0484
   93loPI   C4A 1482  -0.030   8.292   9.029 -0.4496  0.1723  0.1481
   93loPI   C5A 1483  -0.014   8.192   8.559  0.0882 -0.2091 -0.0276
   93loPI   C6A 1484  -0.120   8.037   8.131  0.0959 -0.1712  0.3026
   93loPI   C1B 1485  -0.112   8.775  10.223 -0.0234  0.0144 -0.3275
   93loPI   C2B 1486  -0.134   8.748   9.796 -0.0463 -0.1858  0.0860
   93loPI   C3B 1487  -0.174   8.812   9.396  0.1342  0.0080 -0.3130
   93loPI   C4B 1488  -0.160   8.916   8.961 -0.0225  0.4563 -0.2430
   94loPI    C1 1489   6.566   9.746  11.190 -0.0706  0.0897 -0.0761
   94loPI    C2 1490   6.941   9.882  11.222 -0.0195 -0.0534 -0.0613
   94loPI    C3 1491   6.640  10.079  11.398  0.0688 -0.0235  0.0578
   94loPI   PO4 1492   6.540   9.609  11.036 -0.1933  0.0871  0.2996
   94loPI   GL1 1493   6.398   9.451  10.631  0.1361  0.0287  0.0025
   94loPI   GL2 1494   6.176   9.372  10.435  0.2791  0.0665 -0.2978
   94loPI   C1A 1495   6.544   9.800  10.235 -0.1398 -0.0638  0.1752
   94loPI   C2A 1496   6.650   9.777   9.751 -0.1612 -0.1241  0.1174
   94loPI   C3A 1497   6.580   9.881   9.410 -0.1650 -0.1876  0.0886
   94loPI   C4A 1498   6.554   9.826   8.947 -0.1666  0.0476 -0.0221
   94loPI   C5A 1499   6.601   9.800   8.527  0.1728 -0.2548  0.3788
   94loPI   C6A 1500   6.654  10.148   8.187  0.0534 -0.1688 -0.3312
   94loPI   C1B 1501   6.322   9.443  10.026 -0.1091  0.1248 -0.0646
   94loPI   C2B 1502   6.201   9.570   9.590  0.1767  0.0913  0.0865
   94loPI   C3B 1503   6.172   9.481   9.168  0.0681 -0.2180  0.1012
   94loPI   C4B 1504   6.484   9.379   8.894 -0.0755 -0.1190  0.0721
   95loPI    C1 1505  13.108  11.923  11.476 -0.0188 -0.0297 -0.0950
   95loPI    C2 1506  12.877  12.012  11.790 -0.1495 -0.1509 -0.1554
   95loPI    C3 1507  12.844  11.655  11.613  0.0656 -0.1587 -0.1822
   95loPI   PO4 1508  13.095  12.117  11.329 -0.0156  0.4157  0.0997
   95loPI   GL1 1509  12.840  12.173  10.900 -0.1285  0.3563  0.0981
   95loPI   GL2 1510  13.147  12.207  10.861 -0.1992  0.0046 -0.2598
   95loPI   C1A 1511  12.801  12.104  10.499  0.0775 -0.0466  0.3278
   95loPI   C2A 1512  12.828  12.205  10.073  0.1347  0.2022 -0.2788
   95loPI   C3A 1513  12.878  12.237   9.611  0.0761 -0.1322  0.0483
   95loPI   C4A 1514  12.871  12.303   9.263  0.1631  0.1919  0.0701
   95loPI   C5A 1515  12.933  12.396   8.865 -0.2311  0.1877 -0.0357
   95loPI   C6A 1516  12.863  12.060   8.469 -0.2318 -0.0964 -0.0894
   95loPI   C1B 1517  13.195  12.376  10.436  0.1814  0.2770 -0.1291
   95loPI   C2B 1518  13.285  12.611  10.123  0.0439 -0.0828  0.2109
   95loPI   C3B 1519  13.323  12.685   9.677 -0.1830 -0.1049  0.3372
   95loPI   C4B 1520  13.256  12.612   9.212 -0.0341 -0.0129  0.0046
   96loPI    C1 1521   3.712   1.107  10.912  0.2573 -0.2155 -0.0157
   96loPI    C2 1522   3.776   1.467  10.748 -0.2175 -0.2317 -0.2523
   96loPI    C3 1523   3.572   1.437  11.091 -0.0496 -0.2673 -0.1545
   96loPI   PO4 1524   3.668   0.942  10.696 -0.0431 -0.3678 -0.1698
   96loPI   GL1 1525   3.828   0.953  10.362 -0.1969 -0.2406 -0.0359
   96loPI   GL2 1526   3.917   1.289  10.282  0.0037 -0.1332  0.0126
   96loPI   C1A 1527   3.834   0.937   9.929  0.1510 -0.3016 -0.1547
   96loPI   C2A 1528   3.754   1.030   9.546  0.0432 -0.0920  0.0221
   96loPI   C3A 1529   3.838   1.072   9.117  0.2978 -0.2408  0.2022
   96loPI   C4A 1530   3.826   1.007   8.748 -0.2019  0.2301  0.2799
   96loPI   C5A 1531   3.879   0.922   8.354  0.1010 -0.2273  0.3455
   96loPI   C6A 1532   3.786   0.868   7.992  0.0773  0.2865  0.1870
   96loPI   C1B 1533   3.678   1.541   9.919 -0.1022 -0.0377 -0.1195
   96loPI   C2B 1534   3.700   1.514   9.483 -0.1199  0.0062 -0.0006
   96loPI   C3B 1535   3.635   1.543   9.104  0.2561  0.0627 -0.7300
   96loPI   C4B 1536   3.849   1.463   8.787 -0.0781  0.0668  0.0789
   97loPI    C1 1537   1.300  13.519  11.207 -0.1134 -0.2680 -0.1528
   97loPI    C2 1538   1.057  13.837  11.217  0.1167 -0.0899 -0.1584
   97loPI    C3 1539   0.993  13.529  11.463 -0.0380  0.0122 -0.0698
   97loPI   PO4 1540   1.408  13.671  10.887  0.1672  0.0551  0.0832
   97loPI   GL1 1541   1.517  13.586  10.494  0.2755 -0.0333 -0.3555
   97loPI   GL2 1542   1.263  13.746  10.422 -0.1216  0.2089  0.1017
   97loPI   C1A 1543   1.581  13.358  10.137 -0.0379 -0.0376  0.2733
   97loPI   C2A 1544   1.578  13.364   9.631 -0.1811  0.1304  0.2058
   97loPI   C3A 1545   1.631  13.352   9.215  0.1414 -0.0027 -0.0692
   97loPI   C4A 1546   1.699  13.446   8.795  0.0526  0.0895 -0.1379
   97loPI   C5A 1547   1.907  13.397   8.355  0.0615 -0.2660 -0.0410
   97loPI   C6A 1548   1.747  13.162   7.989 -0.0022  0.1515  0.0577
   97loPI   C1B 1549   1.087  13.710  10.105  0.0131 -0.1989 -0.0668
   97loPI   C2B 1550   1.136  13.678   9.660 -0.2002  0.1642  0.0952
   97loPI   C3B 1551   1.172  13.643   9.258  0.2095  0.1053 -0.0503
   97loPI   C4B 1552   1.229  13.648   8.910 -0.1758 -0.3585 -0.3355
   98loPI    C1 1553  11.030   4.168  11.118  0.0649  0.1476  0.0057
   98loPI    C2 1554  10.847   3.851  11.278  0.1591  0.0909  0.0020
   98loPI    C3 1555  10.848   4.200  11.473  0.1587  0.0574  0.0623
   98loPI   PO4 1556  10.968   4.181  10.845 -0.1775  0.0192 -0.1980
   98loPI   GL1 1557  10.975   4.073  10.479  0.1876 -0.1269  0.0331
   98loPI   GL2 1558  10.778   3.898  10.260  0.2519  0.0248  0.2404
   98loPI   C1A 1559  11.228   4.055  10.091  0.0189  0.1202 -0.1598
   98loPI   C2A 1560  11.129   3.916   9.632  0.0099  0.3517  0.0599
   98loPI   C3A 1561  11.132   3.886   9.265 -0.2174 -0.2745  0.0753
   98loPI   C4A 1562  11.172   3.734   8.879 -0.0628 -0.1154 -0.1652
   98loPI   C5A 1563  11.121   3.723   8.383  0.1639  0.0848  0.1383
   98loPI   C6A 1564  10.825   3.337   8.133 -0.1366  0.3333  0.1214
   98loPI   C1B 1565  10.663   4.126   9.855  0.3737  0.0152 -0.1154
   98loPI   C2B 1566  10.652   4.043   9.389 -0.2201 -0.3244 -0.0505
   98loPI   C3B 1567  10.712   3.951   8.949 -0.1379 -0.1652  0.3998
   98loPI   C4B 1568  10.658   3.994   8.493 -0.1135  0.2515  0.0379
   99loPI    C1 1569  14.177  11.500  11.066  0.0410 -0.0180  0.0336
   99loPI    C2 1570  13.930  11.248  11.254  0.0734 -0.0366  0.0513
   99loPI    C3 1571  13.897  11.642  11.314  0.0555 -0.0397  0.0624
   99loPI   PO4 1572  14.157  11.403  10.866  0.2151  0.2893  0.0820
   99loPI   GL1 1573  14.347  11.603  10.576  0.2720  0.0086  0.0050
   99loPI   GL2 1574  13.948  11.684  10.534  0.1172 -0.2860 -0.0681
   99loPI   C1A 1575  14.337  11.730  10.167 -0.0237  0.0228  0.2281
   99loPI   C2A 1576  14.296  11.787   9.754  0.2562  0.0545  0.3413
   99loPI   C3A 1577  14.315  11.713   9.338 -0.2290  0.1927 -0.0005
   99loPI   C4A 1578  14.297  11.690   8.875  0.3185 -0.0626  0.3933
   99loPI   C5A 1579  14.163  11.707   8.436  0.3208  0.4219 -0.0211
   99loPI   C6A 1580  13.974  11.548   8.035  0.0433 -0.0623 -0.2322
   99loPI   C1B 1581  13.895  11.968  10.308  0.0305  0.1640  0.0163
   99loPI   C2B 1582  13.811  11.864   9.800  0.0399  0.0348  0.0467
   99loPI   C3B 1583  13.826  11.906   9.395  0.0293 -0.0156 -0.2003
   99loPI   C4B 1584  13.828  11.871   8.927  0.1087 -0.1972  0.1081
  100loPI    C1 1585   6.794  13.420  11.312  0.0970  0.2691  0.0459
  100loPI    C2 1586   6.413  13.518  11.387 -0.0556 -0.1410 -0.1618
  100loPI    C3 1587   6.577  13.201  11.567  0.2150  0.0769 -0.0169
  100loPI   PO4 1588   6.815  13.302  11.054 -0.1992  0.2625 -0.0991
  100loPI   GL1 1589   6.985  13.101  10.816 -0.3739  0.1794  0.2201
  100loPI   GL2 1590   7.088  12.860  10.658 -0.2151 -0.0116 -0.0407
  100loPI   C1A 1591   6.828  13.175  10.447  0.2403  0.2510  0.1944
  100loPI   C2A 1592   6.769  13.128  10.048  0.2825  0.1443 -0.0478
  100loPI   C3A 1593   6.733  13.064   9.634 -0.0615 -0.3579  0.1295
  100loPI   C4A 1594   6.722  13.211   9.271  0.0725  0.0789 -0.1392
  100loPI   C5A 1595   6.866  13.267   8.841 -0.2502  0.0157  0.0208
  100loPI   C6A 1596   7.290  13.343   8.508  0.1647  0.2386 -0.0273
  100loPI   C1B 1597   7.274  12.876  10.305 -0.5113  0.2420  0.1664
  100loPI   C2B 1598   7.247  12.898   9.853 -0.0556  0.0385 -0.0701
  100loPI   C3B 1599   7.169  12.867   9.515 -0.0307 -0.0427  0.1041
  100loPI   C4B 1600   7.155  12.936   9.081  0.0212 -0.2219 -0.1451
  101loPI    C1 1601   6.528  11.887  11.032  0.0236 -0.1537  0.1081
  101loPI    C2 1602   6.722  12.029  11.352 -0.2036  0.1821  0.1019
  101loPI    C3 1603   6.447  11.741  11.396  0.1536 -0.1631  0.1338
  101loPI   PO4 1604   6.493  12.124  10.906  0.0439  0.2180  0.0399
  101loPI   GL1 1605   6.350  12.292  10.595  0.0236 -0.0920 -0.0941
  101loPI   GL2 1606   6.400  12.644  10.733 -0.0076  0.0924 -0.3555
  101loPI   C1A 1607   6.310  12.301  10.133 -0.1617 -0.1313  0.2468
  101loPI   C2A 1608   6.376  12.368   9.743 -0.1440  0.3333 -0.1977
  101loPI   C3A 1609   6.322  12.337   9.374  0.1308  0.2266  0.0012
  101loPI   C4A 1610   6.312  12.268   8.942 -0.1986  0.2679  0.0037
  101loPI   C5A 1611   6.448  12.482   8.529  0.1493  0.1994 -0.0215
  101loPI   C6A 1612   6.532  12.593   8.223  0.2072 -0.2432 -0.3144
  101loPI   C1B 1613   6.365  12.869  10.362 -0.2697  0.0870  0.1661
  101loPI   C2B 1614   6.343  12.840   9.985  0.0322 -0.2375 -0.1464
  101loPI   C3B 1615   6.326  12.881   9.550  0.0835 -0.0738  0.2277
  101loPI   C4B 1616   6.334  12.927   9.084 -0.1573 -0.1187 -0.1782
  102loPI    C1 1617   2.502  16.741  11.244  0.0874  0.0495 -0.1947
  102loPI    C2 1618   2.834  16.759  11.022  0.2363 -0.0323  0.0183
  102loPI    C3 1619   2.811  16.501  11.327  0.0912  0.1809  0.1905
  102loPI   PO4 1620   2.299  16.715  11.065 -0.0598  0.2777 -0.2545
  102loPI   GL1 1621   2.453  16.880  10.662 -0.0740 -0.0212 -0.2692
  102loPI   GL2 1622   2.142  16.993  10.655 -0.0749 -0.1973 -0.0950
  102loPI   C1A 1623   2.590  16.838  10.239  0.0128  0.1808  0.1235
  102loPI   C2A 1624   2.661  16.923   9.828  0.1474  0.1411 -0.0295
  102loPI   C3A 1625   2.722  16.896   9.376 -0.1148  0.1527  0.2647
  102loPI   C4A 1626   2.680  16.871   8.950  0.1772  0.0461 -0.1829
  102loPI   C5A 1627   2.454  17.110   8.586  0.1670 -0.0467 -0.0328
  102loPI   C6A 1628   2.351  17.290   8.224 -0.2422 -0.1583 -0.0743
  102loPI   C1B 1629   2.236  17.157  10.253 -0.1971 -0.0900 -0.2794
  102loPI   C2B 1630   2.118  17.177   9.840  0.1532 -0.4366 -0.0161
  102loPI   C3B 1631   2.270  17.107   9.482  0.0133 -0.2570 -0.1040
  102loPI   C4B 1632   2.238  17.070   9.021  0.0863  0.0984  0.2254
  103loPI    C1 1633   7.893   8.236  11.228  0.1585  0.1641 -0.0717
  103loPI    C2 1634   7.735   8.189  11.593  0.1373  0.1775 -0.0792
  103loPI    C3 1635   8.056   7.976  11.485  0.0836  0.1005 -0.0880
  103loPI   PO4 1636   7.685   8.179  11.004 -0.3636 -0.1698 -0.2152
  103loPI   GL1 1637   7.626   8.052  10.623  0.4059  0.0998  0.0299
  103loPI   GL2 1638   7.687   8.329  10.426  0.1184  0.0809  0.3027
  103loPI   C1A 1639   7.667   7.866  10.287  0.1276 -0.0911  0.0330
  103loPI   C2A 1640   7.626   7.751   9.836 -0.0345  0.1321  0.1646
  103loPI   C3A 1641   7.589   7.817   9.404  0.1886  0.4317 -0.1348
  103loPI   C4A 1642   7.571   7.818   8.991  0.0798  0.2299  0.0161
  103loPI   C5A 1643   7.511   7.842   8.557  0.0318 -0.2621  0.2640
  103loPI   C6A 1644   7.358   7.771   8.198 -0.1352 -0.0821  0.1117
  103loPI   C1B 1645   7.616   8.308   9.910 -0.0861 -0.0693 -0.3344
  103loPI   C2B 1646   7.572   8.395   9.539  0.1110 -0.0548 -0.0565
  103loPI   C3B 1647   7.562   8.349   9.111 -0.0289  0.0486  0.0507
  103loPI   C4B 1648   7.563   8.412   8.685 -0.3424 -0.1562  0.0632
  104loPI    C1 1649  15.644  10.867  11.360  0.0852 -0.0069 -0.1424
  104loPI    C2 1650  15.926  10.943  11.634 -0.1457  0.0097  0.0949
  104loPI    C3 1651  15.718  11.244  11.471 -0.2584 -0.0258  0.1719
  104loPI   PO4 1652  15.694  10.757  11.172 -0.0571  0.1414  0.0317
  104loPI   GL1 1653  15.486  10.849  10.689  0.1630 -0.2509  0.0609
  104loPI   GL2 1654  15.304  10.680  10.528 -0.0581 -0.3356 -0.2327
  104loPI   C1A 1655  15.695  11.117  10.344 -0.5060  0.2424  0.0113
  104loPI   C2A 1656  15.762  11.218   9.885  0.1299  0.1238 -0.1231
  104loPI   C3A 1657  15.639  11.204   9.443 -0.1551  0.1303 -0.0684
  104loPI   C4A 1658  15.709  11.198   8.992  0.0250 -0.0027  0.3610
  104loPI   C5A 1659  15.924  11.259   8.528 -0.0813 -0.0387  0.0363
  104loPI   C6A 1660  16.100  10.931   8.441  0.0127 -0.0417  0.0712
  104loPI   C1B 1661  15.323  10.900  10.157  0.1600 -0.2967 -0.2539
  104loPI   C2B 1662  15.342  10.924   9.740 -0.0685  0.0959  0.2902
  104loPI   C3B 1663  15.289  10.888   9.325  0.0616  0.1813  0.0877
  104loPI   C4B 1664  15.284  10.871   8.857  0.3977  0.1166  0.0705
  105loPI    C1 1665   5.118   5.810  11.323  0.0647  0.0287  0.0196
  105loPI    C2 1666   5.133   5.615  11.672  0.1866 -0.0772 -0.0441
  105loPI    C3 1667   5.331   5.959  11.627  0.2194 -0.0938 -0.0272
  105loPI   PO4 1668   5.160   5.656  11.170  0.0190 -0.0737  0.5080
  105loPI   GL1 1669   5.198   5.697  10.663 -0.0222  0.3033  0.1599
  105loPI   GL2 1670   5.234   5.941  10.531 -0.1546 -0.0577 -0.1347
  105loPI   C1A 1671   5.133   5.515  10.296 -0.0766  0.1381  0.1332
  105loPI   C2A 1672   5.273   5.510   9.848 -0.1684 -0.1196  0.0773
  105loPI   C3A 1673   5.181   5.397   9.357  0.1671  0.0923 -0.0095
  105loPI   C4A 1674   5.275   5.348   8.929  0.2221  0.0761 -0.1809
  105loPI   C5A 1675   5.094   5.165   8.549 -0.2307  0.0429 -0.1714
  105loPI   C6A 1676   4.662   5.197   8.531  0.0473 -0.1981  0.1302
  105loPI   C1B 1677   5.163   5.987  10.023  0.0018  0.1556  0.2184
  105loPI   C2B 1678   5.062   5.951   9.585 -0.1016 -0.1325 -0.0844
  105loPI   C3B 1679   5.110   5.987   9.204  0.2576 -0.0126  0.1950
  105loPI   C4B 1680   5.138   5.829   8.790  0.0640 -0.0027 -0.2166
  106loPI    C1 1681   4.397   1.260  11.111 -0.0409 -0.0840  0.0282
  106loPI    C2 1682   4.731   1.304  10.896 -0.0534  0.2084  0.0640
  106loPI    C3 1683   4.744   1.336  11.294 -0.1054  0.1041  0.0745
  106loPI   PO4 1684   4.271   1.453  10.967  0.1629  0.0221  0.4317
  106loPI   GL1 1685   4.304   1.585  10.525  0.1221 -0.0739 -0.3679
  106loPI   GL2 1686   4.536   1.299  10.396 -0.0321  0.0334 -0.4206
  106loPI   C1A 1687   4.219   1.607  10.133  0.0641 -0.1573  0.1971
  106loPI   C2A 1688   4.126   1.338   9.727 -0.1888 -0.0845  0.1318
  106loPI   C3A 1689   4.328   1.322   9.332 -0.2650  0.0151  0.0716
  106loPI   C4A 1690   4.341   1.317   8.895  0.0490 -0.1582 -0.0522
  106loPI   C5A 1691   4.277   1.278   8.486  0.4395  0.0001  0.0414
  106loPI   C6A 1692   4.309   1.598   8.177 -0.1392 -0.0574  0.0709
  106loPI   C1B 1693   4.698   1.186   9.986  0.0221  0.1955  0.0868
  106loPI   C2B 1694   4.648   1.070   9.607  0.2470 -0.0408  0.0241
  106loPI   C3B 1695   4.760   1.154   9.195  0.1141  0.2725  0.3111
  106loPI   C4B 1696   4.903   1.110   8.655 -0.0102 -0.2799 -0.1092
  107loPI    C1 1697  11.984   7.122  10.820 -0.0704  0.0747  0.0502
  107loPI    C2 1698  12.365   7.208  10.907 -0.0764  0.1238  0.0283
  107loPI    C3 1699  12.081   7.260  11.183 -0.0687  0.0969  0.0413
  107loPI   PO4 1700  11.882   7.263  10.550 -0.0156  0.0363  0.0285
  107loPI   GL1 1701  11.976   7.450  10.179  0.0843 -0.1100 -0.0318
  107loPI   GL2 1702  11.922   7.744  10.089  0.1373  0.2332  0.0694
  107loPI   C1A 1703  11.908   7.286   9.858 -0.1887 -0.0770 -0.3099
  107loPI   C2A 1704  12.036   7.324   9.397 -0.2678 -0.1797  0.1177
  107loPI   C3A 1705  12.084   7.396   9.017 -0.2204  0.2185  0.1252
  107loPI   C4A 1706  12.171   7.340   8.563 -0.2069 -0.0427 -0.1498
  107loPI   C5A 1707  12.120   7.501   8.217  0.1903  0.1962  0.0098
  107loPI   C6A 1708  12.186   7.470   7.745  0.0435  0.2999  0.0991
  107loPI   C1B 1709  11.997   7.798   9.708 -0.0570 -0.1089  0.1212
  107loPI   C2B 1710  11.989   7.855   9.227 -0.1024  0.1296  0.1312
  107loPI   C3B 1711  11.981   7.869   8.833 -0.0531 -0.0115  0.0538
  107loPI   C4B 1712  11.784   7.640   8.607  0.3956  0.0136  0.4335
  108loPI    C1 1713  12.355   4.447  11.086 -0.0817  0.2005  0.0788
  108loPI    C2 1714  12.720   4.608  11.105 -0.0863  0.2079  0.1045
  108loPI    C3 1715  12.547   4.466  11.436  0.0236 -0.0853  0.0397
  108loPI   PO4 1716  12.362   4.334  10.798  0.0785 -0.0500  0.4006
  108loPI   GL1 1717  12.169   4.493  10.308 -0.0689  0.2618  0.4775
  108loPI   GL2 1718  12.413   4.279  10.233  0.1350 -0.2951 -0.0672
  108loPI   C1A 1719  11.907   4.519   9.938  0.2718  0.0241 -0.0330
  108loPI   C2A 1720  11.959   4.376   9.508 -0.2245 -0.0845  0.0235
  108loPI   C3A 1721  11.954   4.466   9.118 -0.1071  0.3597  0.2564
  108loPI   C4A 1722  12.013   4.403   8.664 -0.4238  0.0350  0.1512
  108loPI   C5A 1723  12.079   4.365   8.281 -0.2417  0.0264 -0.1427
  108loPI   C6A 1724  11.988   4.700   7.852  0.0401  0.2628 -0.0583
  108loPI   C1B 1725  12.341   4.264   9.802 -0.3070 -0.0439 -0.3408
  108loPI   C2B 1726  12.524   4.192   9.400  0.3257  0.2689 -0.1698
  108loPI   C3B 1727  12.392   4.191   9.014 -0.1204 -0.0126 -0.2866
  108loPI   C4B 1728  12.493   4.288   8.583 -0.2363  0.0522 -0.0317
  109loPI    C1 1729  12.717   5.585  10.705  0.0331  0.1548 -0.0547
  109loPI    C2 1730  12.380   5.783  10.618 -0.0194  0.1322  0.0942
  109loPI    C3 1731  12.538   5.808  10.985  0.1354  0.1335  0.0282
  109loPI   PO4 1732  12.818   5.510  10.430 -0.0902 -0.1428 -0.1601
  109loPI   GL1 1733  12.646   5.466  10.115  0.0061  0.3756  0.2570
  109loPI   GL2 1734  12.526   5.734  10.146  0.3963  0.0332 -0.2052
  109loPI   C1A 1735  12.755   5.465   9.737 -0.1222 -0.1154  0.3503
  109loPI   C2A 1736  12.721   5.558   9.253  0.1770 -0.0298  0.0219
  109loPI   C3A 1737  12.701   5.547   8.819 -0.1326  0.2991  0.0482
  109loPI   C4A 1738  12.756   5.678   8.345 -0.2161 -0.0080  0.0442
  109loPI   C5A 1739  12.955   5.977   8.174 -0.3408 -0.0660 -0.1342
  109loPI   C6A 1740  13.308   6.300   8.230  0.0862 -0.2244  0.2170
  109loPI   C1B 1741  12.635   5.936   9.725 -0.3651  0.0558 -0.0618
  109loPI   C2B 1742  12.535   6.092   9.338 -0.1474  0.0558  0.0772
  109loPI   C3B 1743  12.656   6.053   8.960  0.0952  0.0974 -0.4104
  109loPI   C4B 1744  12.598   6.107   8.537  0.0657 -0.1609 -0.1978
  110loPI    C1 1745   9.777   6.475  10.920 -0.1089  0.0050  0.4668
  110loPI    C2 1746  10.062   6.755  10.943  0.0054 -0.0577 -0.0558
  110loPI    C3 1747   9.794   6.717  11.237  0.3646  0.1860  0.3124
  110loPI   PO4 1748   9.817   6.421  10.671  0.2450  0.3131  0.0315
  110loPI   GL1 1749   9.986   6.220  10.386  0.0657 -0.0786 -0.0789
  110loPI   GL2 1750  10.342   6.212  10.346  0.3578 -0.0738 -0.1524
  110loPI   C1A 1751   9.933   6.259  10.005  0.1684  0.1057  0.0955
  110loPI   C2A 1752   9.585   6.287   9.751 -0.0787 -0.1236  0.1215
  110loPI   C3A 1753   9.510   5.885   9.473  0.1468  0.0284 -0.0918
  110loPI   C4A 1754   9.489   5.800   8.982 -0.1555  0.0443 -0.2145
  110loPI   C5A 1755   9.598   5.992   8.564  0.1353 -0.1596 -0.0993
  110loPI   C6A 1756   9.667   6.197   8.200 -0.0166 -0.0160 -0.0004
  110loPI   C1B 1757  10.373   6.064   9.980  0.1135 -0.0009 -0.0036
  110loPI   C2B 1758  10.399   6.164   9.605 -0.1399  0.0914  0.0124
  110loPI   C3B 1759  10.398   6.146   9.192  0.0729 -0.1411  0.0771
  110loPI   C4B 1760  10.483   6.054   8.749  0.4831 -0.0343  0.1060
  111loPI    C1 1761  10.633   9.536  10.602  0.0102  0.0331  0.2319
  111loPI    C2 1762  10.591   9.924  10.514 -0.3091 -0.0431  0.0298
  111loPI    C3 1763  10.531   9.796  10.888 -0.2625  0.0932  0.0845
  111loPI   PO4 1764  10.504   9.451  10.391  0.1350 -0.2485  0.0333
  111loPI   GL1 1765  10.506   9.666  10.075 -0.0122  0.1080 -0.0855
  111loPI   GL2 1766  10.403   9.970  10.025 -0.0515 -0.0522  0.2130
  111loPI   C1A 1767  10.676   9.491   9.738 -0.1007 -0.0288  0.3446
  111loPI   C2A 1768  10.442   9.401   9.403 -0.1685  0.1746 -0.1309
  111loPI   C3A 1769  10.048   9.441   9.185 -0.0026  0.0518 -0.2640
  111loPI   C4A 1770   9.888   9.325   8.909  0.0845  0.0216  0.1734
  111loPI   C5A 1771   9.941   9.483   8.531 -0.1535  0.0780 -0.1534
  111loPI   C6A 1772   9.782   9.502   8.126  0.1990 -0.0371  0.0267
  111loPI   C1B 1773  10.115  10.278   9.906 -0.3356 -0.1664  0.2867
  111loPI   C2B 1774  10.061  10.379   9.643 -0.0610  0.2235  0.1983
  111loPI   C3B 1775   9.966  10.439   9.155 -0.3910 -0.1984  0.2354
  111loPI   C4B 1776   9.691  10.681   8.954 -0.0249 -0.0201  0.1708
  112loPI    C1 1777  17.146   3.005  11.407  0.0394  0.0522  0.1071
  112loPI    C2 1778  16.796   3.187  11.475 -0.2144 -0.3504 -0.0839
  112loPI    C3 1779  16.911   2.882  11.707 -0.1091 -0.3829 -0.1782
  112loPI   PO4 1780  17.072   2.913  11.136  0.2331  0.0273  0.0056
  112loPI   GL1 1781  17.213   3.050  10.700 -0.1858  0.1324 -0.0420
  112loPI   GL2 1782  16.988   3.208  10.440 -0.2796  0.1273 -0.2400
  112loPI   C1A 1783  17.464   3.070  10.291 -0.0546  0.1816  0.2126
  112loPI   C2A 1784  17.534   2.955   9.832  0.1689  0.1905 -0.1018
  112loPI   C3A 1785  17.371   2.997   9.463  0.3897 -0.2121 -0.1689
  112loPI   C4A 1786  17.396   2.963   9.000 -0.0073 -0.0316 -0.1395
  112loPI   C5A 1787  17.489   2.940   8.651  0.5444 -0.1348 -0.0450
  112loPI   C6A 1788  17.201   2.748   8.292  0.0728  0.1381  0.2252
  112loPI   C1B 1789  17.084   3.178   9.976 -0.1457 -0.1790  0.1332
  112loPI   C2B 1790  16.898   3.145   9.495 -0.0987  0.0512  0.0677
  112loPI   C3B 1791  16.945   3.166   9.085 -0.0222  0.2212 -0.3292
  112loPI   C4B 1792  17.035   3.225   8.691  0.0704  0.2033 -0.0789
  113loPI    C1 1793   9.882  11.229  11.315  0.1496  0.1931  0.0554
  113loPI    C2 1794  10.169  10.960  11.388 -0.0190  0.0357  0.1465
  113loPI    C3 1795  10.242  11.350  11.441  0.3352  0.0395 -0.3124
  113loPI   PO4 1796   9.799  11.103  11.030 -0.1183 -0.5872 -0.0476
  113loPI   GL1 1797   9.706  11.086  10.574 -0.0679 -0.0246  0.1121
  113loPI   GL2 1798   9.739  11.474  10.520 -0.0386 -0.1108  0.1557
  113loPI   C1A 1799   9.520  11.173  10.204  0.2009 -0.0683  0.0707
  113loPI   C2A 1800   9.536  11.295   9.725 -0.1510  0.0260 -0.3498
  113loPI   C3A 1801   9.806  11.620   9.476 -0.2127  0.0487 -0.3072
  113loPI   C4A 1802   9.696  11.652   9.048  0.1759 -0.0815 -0.1160
  113loPI   C5A 1803   9.713  11.829   8.639 -0.1946  0.1487  0.4333
  113loPI   C6A 1804   9.882  11.845   8.308 -0.0141  0.1480  0.2898
  113loPI   C1B 1805   9.899  11.452  10.115 -0.0171  0.0764 -0.1560
  113loPI   C2B 1806  10.177  11.802   9.934  0.3204  0.1413  0.0325
  113loPI   C3B 1807  10.193  11.958   9.530 -0.1270  0.0698 -0.3392
  113loPI   C4B 1808  10.149  12.008   9.070 -0.3338 -0.1397  0.0804
  114loPI    C1 1809  13.852   9.036  11.014  0.1765 -0.0929  0.0698
  114loPI    C2 1810  14.184   8.979  11.230  0.0762 -0.0251  0.2441
  114loPI    C3 1811  13.829   9.006  11.413 -0.0284 -0.1158  0.0575
  114loPI   PO4 1812  13.988   8.980  10.711  0.0554  0.1805  0.2980
  114loPI   GL1 1813  14.036   8.618  10.415  0.1135 -0.0128 -0.1879
  114loPI   GL2 1814  14.126   8.913  10.287  0.1051 -0.0617  0.0415
  114loPI   C1A 1815  14.096   8.354  10.055  0.0524 -0.1979  0.0638
  114loPI   C2A 1816  14.170   8.362   9.666 -0.0621 -0.0448  0.1779
  114loPI   C3A 1817  14.148   8.339   9.120  0.3976 -0.1069 -0.0403
  114loPI   C4A 1818  14.299   8.406   8.709 -0.5221  0.4109  0.3251
  114loPI   C5A 1819  14.693   8.579   8.536 -0.0325  0.0826  0.3700
  114loPI   C6A 1820  14.964   8.443   8.175 -0.2490  0.1825 -0.0219
  114loPI   C1B 1821  14.087   8.885   9.820  0.0356  0.2263  0.3069
  114loPI   C2B 1822  14.169   8.843   9.431  0.0154  0.1319  0.1122
  114loPI   C3B 1823  14.147   8.818   8.970 -0.2061 -0.1325  0.0518
  114loPI   C4B 1824  14.257   8.851   8.486 -0.2689 -0.3693  0.0019
  115loPI    C1 1825  12.559  10.837  11.012  0.0918  0.1499 -0.1751
  115loPI    C2 1826  12.230  10.615  11.064  0.2517 -0.0359  0.0703
  115loPI    C3 1827  12.228  11.003  11.165  0.0546  0.0097 -0.1013
  115loPI   PO4 1828  12.668  10.784  10.799 -0.0372 -0.0029 -0.4235
  115loPI   GL1 1829  12.826  10.862  10.426 -0.0560  0.0413  0.0578
  115loPI   GL2 1830  13.115  10.816  10.406 -0.3272 -0.0877 -0.1022
  115loPI   C1A 1831  12.687  10.837  10.002  0.0106  0.1074  0.1675
  115loPI   C2A 1832  12.668  10.934   9.540 -0.0587  0.2797 -0.0136
  115loPI   C3A 1833  12.522  10.841   9.024 -0.0554 -0.0466 -0.0027
  115loPI   C4A 1834  12.269  10.528   8.885 -0.0995  0.0965 -0.0606
  115loPI   C5A 1835  12.350  10.160   8.634  0.1789  0.2521  0.1473
  115loPI   C6A 1836  11.978   9.906   8.704  0.0111  0.0002 -0.0669
  115loPI   C1B 1837  13.466  10.845  10.115 -0.0064  0.1034 -0.1508
  115loPI   C2B 1838  13.481  11.107   9.786 -0.2714 -0.0196 -0.1151
  115loPI   C3B 1839  13.468  11.020   9.333 -0.0934 -0.3715  0.1355
  115loPI   C4B 1840  13.510  11.002   8.870 -0.2873 -0.0797 -0.1014
  116loPI    C1 1841   0.910   0.515  10.908 -0.0699 -0.0743 -0.0981
  116loPI    C2 1842   0.808   0.325  11.244  0.0400 -0.0994 -0.0786
  116loPI    C3 1843   1.187   0.436  11.185 -0.0272  0.1348 -0.0793
  116loPI   PO4 1844   0.764   0.438  10.764  0.1819  0.0811 -0.3659
  116loPI   GL1 1845   0.774   0.191  10.396 -0.0732 -0.1036  0.0297
  116loPI   GL2 1846   0.662   0.433  10.221  0.2072 -0.1590  0.2329
  116loPI   C1A 1847   0.759   0.036   9.948 -0.1691  0.0354  0.6168
  116loPI   C2A 1848   0.782  -0.041   9.404  0.3605  0.0563  0.0214
  116loPI   C3A 1849   0.802  -0.026   8.986  0.0632  0.0177  0.2630
  116loPI   C4A 1850   0.844  -0.060   8.542  0.3654  0.1174 -0.1237
  116loPI   C5A 1851   0.885   0.058   8.151 -0.0642 -0.1059 -0.1303
  116loPI   C6A 1852   0.812   0.477   8.001  0.0349 -0.1263 -0.0224
  116loPI   C1B 1853   0.774   0.530   9.751  0.2811 -0.0473  0.2157
  116loPI   C2B 1854   0.617   0.453   9.371 -0.0776  0.1098 -0.1024
  116loPI   C3B 1855   0.673   0.476   8.916  0.0100  0.2557  0.0604
  116loPI   C4B 1856   0.757   0.508   8.499  0.1566 -0.0584 -0.1051
  117loPI    C1 1857   2.786   7.092  11.309  0.1043  0.1502 -0.0756
  117loPI    C2 1858   2.750   7.457  11.469 -0.0194  0.0660  0.0913
  117loPI    C3 1859   2.744   7.134  11.704  0.1229 -0.0429 -0.0526
  117loPI   PO4 1860   2.928   7.080  11.161  0.2731 -0.0408  0.0987
  117loPI   GL1 1861   2.879   6.962  10.683 -0.1383 -0.3575  0.5861
  117loPI   GL2 1862   3.015   7.268  10.701 -0.0829  0.1353 -0.2377
  117loPI   C1A 1863   2.761   7.037  10.350  0.0379  0.0063 -0.1491
  117loPI   C2A 1864   2.799   7.137   9.915 -0.1908 -0.0970  0.0617
  117loPI   C3A 1865   2.771   7.055   9.450  0.2451 -0.0767  0.0237
  117loPI   C4A 1866   2.685   7.039   9.089 -0.0567  0.1203  0.2322
  117loPI   C5A 1867   2.691   7.080   8.576  0.0225  0.0745 -0.0442
  117loPI   C6A 1868   2.700   6.795   8.200 -0.3253 -0.1240 -0.2189
  117loPI   C1B 1869   3.162   7.359  10.289 -0.0815  0.1233  0.2707
  117loPI   C2B 1870   3.248   7.375   9.860 -0.0128 -0.1785  0.0044
  117loPI   C3B 1871   3.261   7.298   9.412 -0.0059  0.2987  0.1279
  117loPI   C4B 1872   3.407   7.412   8.942 -0.2314 -0.0238  0.2033
  118loPI    C1 1873  10.281   5.216  10.893 -0.1780 -0.1419  0.0168
  118loPI    C2 1874  10.614   5.349  11.071 -0.2680  0.2659 -0.1105
  118loPI    C3 1875  10.286   5.278  11.289 -0.1505  0.0233 -0.0090
  118loPI   PO4 1876  10.247   5.301  10.653  0.1572 -0.0184 -0.1569
  118loPI   GL1 1877   9.962   5.305  10.413 -0.3094 -0.0205  0.0386
  118loPI   GL2 1878   9.612   5.180  10.330 -0.0082 -0.3255  0.0432
  118loPI   C1A 1879  10.080   5.239  10.015  0.0277 -0.0292 -0.0453
  118loPI   C2A 1880  10.062   5.300   9.566 -0.1646 -0.1301 -0.4003
  118loPI   C3A 1881  10.075   5.197   9.059  0.0720 -0.0594  0.4483
  118loPI   C4A 1882  10.140   5.090   8.611 -0.0658  0.0959 -0.2296
  118loPI   C5A 1883  10.199   4.926   8.215  0.2257 -0.0591 -0.1452
  118loPI   C6A 1884  10.142   5.169   7.800 -0.2346 -0.3863  0.1191
  118loPI   C1B 1885   9.332   5.236   9.919 -0.0332  0.2758  0.2488
  118loPI   C2B 1886   9.163   5.041   9.597  0.0373  0.0689  0.3207
  118loPI   C3B 1887   9.314   5.045   9.235  0.3907 -0.0575 -0.0005
  118loPI   C4B 1888   9.114   5.085   8.797 -0.0816  0.1334  0.0821
  119loPI    C1 1889   8.345   1.674  11.210 -0.1075 -0.0885  0.1401
  119loPI    C2 1890   8.559   1.382  11.382  0.0969  0.0410  0.1096
  119loPI    C3 1891   8.317   1.611  11.604 -0.0900 -0.1712  0.1282
  119loPI   PO4 1892   8.419   1.759  11.053 -0.0916 -0.0030 -0.2519
  119loPI   GL1 1893   8.593   2.036  10.843 -0.0556 -0.0808  0.0683
  119loPI   GL2 1894   8.343   2.217  10.626  0.1156  0.0412  0.3779
  119loPI   C1A 1895   8.699   1.886  10.275 -0.0402  0.0846  0.0422
  119loPI   C2A 1896   8.726   1.839   9.807  0.0261 -0.2024  0.1329
  119loPI   C3A 1897   8.752   1.856   9.311 -0.0189  0.0250  0.0458
  119loPI   C4A 1898   8.759   1.923   8.880  0.0426 -0.1076  0.0629
  119loPI   C5A 1899   8.771   1.944   8.509 -0.2109  0.0058  0.1600
  119loPI   C6A 1900   8.808   2.339   8.259  0.0675 -0.0020  0.0074
  119loPI   C1B 1901   8.255   2.096  10.123 -0.1112  0.1387 -0.0008
  119loPI   C2B 1902   8.195   2.074   9.704 -0.4417  0.0137 -0.0449
  119loPI   C3B 1903   8.299   2.030   9.278 -0.1248  0.0671  0.1660
  119loPI   C4B 1904   8.156   2.052   8.923 -0.0821  0.1133  0.1883
  120loPI    C1 1905  14.974  17.139  11.013  0.1853 -0.0752  0.0204
  120loPI    C2 1906  14.854  16.926  11.329  0.1095 -0.1156 -0.0350
  120loPI    C3 1907  15.130  17.213  11.374  0.2523 -0.2615  0.0303
  120loPI   PO4 1908  14.791  17.158  10.862 -0.0164 -0.1522 -0.0242
  120loPI   GL1 1909  14.582  17.246  10.465 -0.2895  0.0760  0.0465
  120loPI   GL2 1910  14.527  17.634  10.482 -0.1503 -0.1045 -0.2332
  120loPI   C1A 1911  14.508  16.929  10.227 -0.0153  0.0734 -0.2503
  120loPI   C2A 1912  14.656  16.737   9.890 -0.3954  0.0435  0.0833
  120loPI   C3A 1913  14.673  16.626   9.513 -0.0659 -0.3862 -0.1403
  120loPI   C4A 1914  14.748  16.566   9.125 -0.0202 -0.0732  0.4422
  120loPI   C5A 1915  14.807  16.658   8.694 -0.2466 -0.3719 -0.3774
  120loPI   C6A 1916  15.143  16.715   8.403  0.1520  0.1057  0.3388
  120loPI   C1B 1917  14.633  17.612  10.164 -0.0604  0.0206  0.0229
  120loPI   C2B 1918  14.577  17.628   9.675 -0.0254  0.0653  0.0813
  120loPI   C3B 1919  14.588  17.630   9.161  0.0160 -0.1868 -0.2949
  120loPI   C4B 1920  14.759  17.752   8.809  0.1481  0.1651  0.2417
  121loPI    C1 1921  14.640   0.175  11.075  0.1471 -0.2006 -0.1143
  121loPI    C2 1922  14.301   0.352  11.191  0.1702  0.0081 -0.3552
  121loPI    C3 1923  14.622   0.360  11.429  0.0533 -0.0571 -0.1932
  121loPI   PO4 1924  14.608   0.220  10.790 -0.2212 -0.1142 -0.0296
  121loPI   GL1 1925  14.528   0.261  10.329 -0.2635 -0.1394  0.2449
  121loPI   GL2 1926  14.773   0.602  10.351 -0.1543 -0.1685 -0.2403
  121loPI   C1A 1927  14.504   0.244   9.940 -0.1529  0.1544  0.0945
  121loPI   C2A 1928  14.606   0.224   9.503 -0.1190 -0.1115  0.1408
  121loPI   C3A 1929  14.659   0.316   9.102 -0.0218  0.0026  0.0317
  121loPI   C4A 1930  14.465   0.396   8.755 -0.1564 -0.0211 -0.1348
  121loPI   C5A 1931  14.680   0.561   8.343  0.0635 -0.1416 -0.1976
  121loPI   C6A 1932  14.986   0.788   8.132 -0.4127 -0.1456  0.0103
  121loPI   C1B 1933  14.941   0.486   9.942 -0.0268  0.1541  0.1311
  121loPI   C2B 1934  14.956   0.521   9.579 -0.1038 -0.0483  0.2048
  121loPI   C3B 1935  15.045   0.601   9.219  0.1765  0.2944  0.0086
  121loPI   C4B 1936  15.035   0.566   8.789  0.2449  0.0477  0.0659
  122loPI    C1 1937   3.414   0.048  11.079  0.0521  0.0081  0.0327
  122loPI    C2 1938   3.366   0.248  11.422  0.0110  0.0201  0.0200
  122loPI    C3 1939   3.384  -0.152  11.425  0.0828  0.0234  0.0442
  122loPI   PO4 1940   3.265   0.168  10.900 -0.1790 -0.0881 -0.0195
  122loPI   GL1 1941   3.253   0.206  10.486  0.1582  0.0391  0.1848
  122loPI   GL2 1942   2.960   0.005  10.439  0.3216 -0.0794 -0.0150
  122loPI   C1A 1943   3.327   0.357  10.067  0.1446  0.1895  0.0054
  122loPI   C2A 1944   3.398   0.167   9.646 -0.0766  0.0164 -0.1901
  122loPI   C3A 1945   3.501   0.206   9.201  0.2119 -0.0210 -0.1087
  122loPI   C4A 1946   3.477   0.196   8.810  0.2140  0.1718  0.0679
  122loPI   C5A 1947   3.489   0.223   8.316 -0.0218  0.3336 -0.0302
  122loPI   C6A 1948   3.250   0.326   7.976  0.1283  0.1406  0.0231
  122loPI   C1B 1949   3.067  -0.078  10.036  0.1255 -0.0767 -0.2025
  122loPI   C2B 1950   2.999  -0.136   9.601  0.1809  0.3309  0.0344
  122loPI   C3B 1951   3.058  -0.166   9.153  0.0557 -0.1971  0.0903
  122loPI   C4B 1952   3.195  -0.224   8.671  0.0408  0.0153  0.1851
  123loPI    C1 1953   0.715   3.823  11.528  0.0952 -0.0675  0.0658
  123loPI    C2 1954   0.475   4.114  11.661 -0.1667 -0.1135 -0.2898
  123loPI    C3 1955   0.406   3.734  11.765 -0.0194 -0.0873 -0.0895
  123loPI   PO4 1956   0.765   3.935  11.305  0.0502  0.1627 -0.0586
  123loPI   GL1 1957   0.619   3.832  10.865  0.1075 -0.3243 -0.2513
  123loPI   GL2 1958   0.498   3.624  10.632  0.2203 -0.0474  0.2233
  123loPI   C1A 1959   0.941   3.835  10.459  0.0892  0.0189 -0.1551
  123loPI   C2A 1960   0.923   3.914  10.071  0.1027  0.0628 -0.1347
  123loPI   C3A 1961   0.835   3.908   9.742  0.0529  0.1494  0.2761
  123loPI   C4A 1962   0.867   3.904   9.208 -0.1886 -0.1343 -0.2718
  123loPI   C5A 1963   0.871   3.947   8.783 -0.0722 -0.0892 -0.0744
  123loPI   C6A 1964   0.698   3.759   8.444 -0.1037  0.1687 -0.4371
  123loPI   C1B 1965   0.446   3.607  10.263 -0.2284 -0.2664  0.2300
  123loPI   C2B 1966   0.440   3.617   9.797  0.1991 -0.1330 -0.2036
  123loPI   C3B 1967   0.297   3.639   9.372  0.0364 -0.1324  0.0658
  123loPI   C4B 1968   0.463   3.586   8.906  0.1111  0.0711 -0.0013
  124loPI    C1 1969  17.133  15.614  11.148 -0.0020  0.0013  0.3156
  124loPI    C2 1970  16.783  15.481  11.006  0.1848 -0.0984 -0.0618
  124loPI    C3 1971  16.878  15.424  11.390 -0.2182 -0.0565  0.0475
  124loPI   PO4 1972  17.234  15.613  10.854 -0.0399 -0.0916 -0.0406
  124loPI   GL1 1973  17.162  15.712  10.449  0.0769  0.0086 -0.2275
  124loPI   GL2 1974  17.416  15.662  10.332 -0.0684  0.1480 -0.0292
  124loPI   C1A 1975  16.998  15.426  10.146 -0.0288 -0.1779 -0.0874
  124loPI   C2A 1976  17.005  15.485   9.707 -0.0366 -0.1672 -0.3944
  124loPI   C3A 1977  17.006  15.489   9.302  0.1359  0.1235  0.2807
  124loPI   C4A 1978  17.086  15.348   8.821 -0.0024  0.1833  0.0048
  124loPI   C5A 1979  16.735  15.323   8.533 -0.0570  0.1419  0.0565
  124loPI   C6A 1980  16.400  15.247   8.312 -0.0564  0.0903 -0.0038
  124loPI   C1B 1981  17.374  15.775   9.948  0.2342  0.0816  0.2395
  124loPI   C2B 1982  17.471  15.837   9.513 -0.2214  0.2398  0.0592
  124loPI   C3B 1983  17.512  15.860   9.158  0.4513  0.0517 -0.1622
  124loPI   C4B 1984  17.451  15.812   8.749 -0.3689 -0.1054  0.0799
  125loPI    C1 1985   6.373   5.320  11.037 -0.1393  0.0302 -0.0626
  125loPI    C2 1986   5.983   5.409  11.060 -0.0785  0.2540  0.1485
  125loPI    C3 1987   6.178   5.280  11.385 -0.0184 -0.0472 -0.0030
  125loPI   PO4 1988   6.384   5.211  10.787  0.3605 -0.1770 -0.1300
  125loPI   GL1 1989   6.147   5.020  10.375  0.1894 -0.1052  0.2107
  125loPI   GL2 1990   6.511   4.871  10.305 -0.0969 -0.1473  0.2040
  125loPI   C1A 1991   6.120   5.090   9.928 -0.0349 -0.1286  0.1248
  125loPI   C2A 1992   6.152   4.993   9.518  0.0389  0.0486  0.1336
  125loPI   C3A 1993   6.077   4.936   9.234 -0.1636  0.3453  0.1591
  125loPI   C4A 1994   6.114   4.912   8.823 -0.0621  0.0947 -0.0523
  125loPI   C5A 1995   6.273   5.146   8.506  0.1428 -0.1083  0.0433
  125loPI   C6A 1996   6.658   5.220   8.320  0.2108 -0.0445 -0.0418
  125loPI   C1B 1997   6.619   4.752   9.861  0.1696 -0.1508 -0.2191
  125loPI   C2B 1998   6.555   4.664   9.389  0.1960 -0.4295 -0.0725
  125loPI   C3B 1999   6.579   4.643   9.005 -0.2077  0.0640 -0.4326
  125loPI   C4B 2000   6.506   4.684   8.551  0.1880  0.2669 -0.1101
  126loPI    C1 2001   5.045   7.221  11.396 -0.1326  0.0342 -0.0284
  126loPI    C2 2002   4.916   7.599  11.388  0.0930  0.1124 -0.0353
  126loPI    C3 2003   5.156   7.476  11.683  0.0838 -0.0041 -0.0759
  126loPI   PO4 2004   5.141   7.159  11.118 -0.0888  0.0115  0.1510
  126loPI   GL1 2005   5.219   7.483  10.811 -0.2186 -0.0821 -0.2214
  126loPI   GL2 2006   5.018   7.761  10.885 -0.2025  0.0216  0.1651
  126loPI   C1A 2007   4.963   7.555  10.374 -0.2835  0.1566 -0.1306
  126loPI   C2A 2008   4.878   7.492   9.905  0.2268  0.0256 -0.0332
  126loPI   C3A 2009   4.995   7.219   9.655  0.0194 -0.1453 -0.5031
  126loPI   C4A 2010   5.006   6.944   9.282 -0.1739  0.1560  0.0473
  126loPI   C5A 2011   5.117   6.952   8.843 -0.1949 -0.2000  0.0666
  126loPI   C6A 2012   5.404   7.034   8.525 -0.0604  0.0037  0.2900
  126loPI   C1B 2013   4.966   8.020  10.559 -0.2268 -0.1035 -0.0863
  126loPI   C2B 2014   4.823   8.047  10.197  0.2083  0.0846  0.0390
  126loPI   C3B 2015   4.851   8.028   9.850  0.1174 -0.0060 -0.2181
  126loPI   C4B 2016   5.030   8.097   9.480 -0.3563  0.4057  0.0197
  127loPI    C1 2017  17.207   1.500  10.972  0.0631  0.2424  0.0924
  127loPI    C2 2018  17.243   1.302  11.318 -0.1135  0.0172 -0.0159
  127loPI    C3 2019  17.475   1.620  11.245  0.1637 -0.1390  0.1666
  127loPI   PO4 2020  17.194   1.279  10.809 -0.0103 -0.3234 -0.0450
  127loPI   GL1 2021  17.242   1.158  10.474 -0.0944  0.1327 -0.1980
  127loPI   GL2 2022  17.470   1.302  10.372 -0.1587  0.0619  0.0167
  127loPI   C1A 2023  17.177   1.025  10.023 -0.1404  0.1633  0.1788
  127loPI   C2A 2024  17.192   1.073   9.569  0.1128 -0.0869  0.0557
  127loPI   C3A 2025  17.157   1.107   9.181  0.2754  0.3036  0.1372
  127loPI   C4A 2026  17.093   0.995   8.739  0.0864  0.2304  0.1608
  127loPI   C5A 2027  17.232   0.972   8.353  0.1452  0.1396 -0.2369
  127loPI   C6A 2028  17.036   1.102   7.908  0.1621 -0.2766  0.2399
  127loPI   C1B 2029  17.630   1.377  10.005 -0.1280  0.1677  0.0570
  127loPI   C2B 2030  17.626   1.409   9.546 -0.0234 -0.3103 -0.1249
  127loPI   C3B 2031  17.539   1.388   9.050  0.0445  0.1935 -0.1458
  127loPI   C4B 2032  17.451   1.385   8.557 -0.2427  0.1269 -0.3912
  128loPI    C1 2033   7.533  16.327  11.141 -0.0312 -0.2352  0.0413
  128loPI    C2 2034   7.615  15.975  11.314  0.1238 -0.1952  0.0500
  128loPI    C3 2035   7.602  16.309  11.535  0.0285 -0.1877  0.0333
  128loPI   PO4 2036   7.381  16.279  10.914  0.1749  0.0818 -0.1065
  128loPI   GL1 2037   7.289  16.414  10.354  0.3448 -0.1027 -0.0507
  128loPI   GL2 2038   7.196  16.022  10.246 -0.0017 -0.0421  0.1214
  128loPI   C1A 2039   7.318  16.397   9.892 -0.4446  0.0634 -0.2043
  128loPI   C2A 2040   7.297  16.498   9.383  0.0195 -0.2119 -0.1402
  128loPI   C3A 2041   7.325  16.455   8.943  0.3026 -0.1069 -0.1311
  128loPI   C4A 2042   7.432  16.599   8.532 -0.1764  0.2644  0.4941
  128loPI   C5A 2043   7.441  16.963   8.407 -0.2559 -0.2544  0.1923
  128loPI   C6A 2044   7.613  17.215   8.125  0.0488 -0.0198  0.0041
  128loPI   C1B 2045   7.323  15.884   9.794 -0.0548  0.2074 -0.0367
  128loPI   C2B 2046   7.326  15.903   9.321 -0.1988  0.1516  0.0491
  128loPI   C3B 2047   7.400  15.974   8.912 -0.2033 -0.0119  0.2851
  128loPI   C4B 2048   7.554  15.973   8.558  0.4835 -0.1118 -0.0715
  129loPI    C1 2049  16.097   3.566  11.310  0.0906 -0.1352  0.1133
  129loPI    C2 2050  15.879   3.893  11.385  0.0668 -0.0878 -0.1537
  129loPI    C3 2051  16.236   3.847  11.559 -0.0727 -0.0779  0.1413
  129loPI   PO4 2052  15.996   3.514  11.030  0.2278 -0.1580  0.3818
  129loPI   GL1 2053  16.042   3.488  10.546  0.0925 -0.0490 -0.1762
  129loPI   GL2 2054  15.964   3.257  10.476 -0.2210  0.2647  0.0769
  129loPI   C1A 2055  15.975   3.538  10.080 -0.1077  0.0616  0.0963
  129loPI   C2A 2056  16.081   3.607   9.588 -0.1310 -0.2554  0.1327
  129loPI   C3A 2057  16.026   3.634   9.214 -0.2191  0.0262 -0.0863
  129loPI   C4A 2058  16.156   3.704   8.631  0.2220 -0.3726 -0.1658
  129loPI   C5A 2059  16.288   3.782   8.129  0.0298  0.1893 -0.2391
  129loPI   C6A 2060  16.281   3.736   7.731  0.0524  0.2565  0.2082
  129loPI   C1B 2061  16.024   3.029  10.099  0.2916  0.4163 -0.0084
  129loPI   C2B 2062  16.090   3.127   9.677 -0.2653 -0.0494 -0.0258
  129loPI   C3B 2063  16.046   3.042   9.325 -0.0405 -0.3660  0.2309
  129loPI   C4B 2064  16.164   3.142   8.889 -0.1630  0.1455  0.1550
  130loPI    C1 2065   3.823   5.174  11.484  0.1482  0.0532  0.0877
  130loPI    C2 2066   3.684   4.863  11.693 -0.0353  0.2113  0.2046
  130loPI    C3 2067   3.956   5.108  11.855  0.2259  0.0254  0.0551
  130loPI   PO4 2068   3.686   5.217  11.148 -0.4132 -0.3198  0.1429
  130loPI   GL1 2069   3.626   5.433  10.746 -0.1049 -0.0320  0.1610
  130loPI   GL2 2070   3.878   5.424  10.640 -0.0319  0.0223  0.3408
  130loPI   C1A 2071   3.437   5.350  10.256  0.2360 -0.0003 -0.1764
  130loPI   C2A 2072   3.353   5.191   9.802 -0.0164  0.2978  0.2100
  130loPI   C3A 2073   3.359   5.233   9.300 -0.1839  0.3260 -0.0362
  130loPI   C4A 2074   3.396   5.230   8.871  0.0752  0.1344 -0.2482
  130loPI   C5A 2075   3.279   5.122   8.616  0.0656  0.1603 -0.1678
  130loPI   C6A 2076   3.135   4.913   8.238 -0.1606  0.1059  0.2515
  130loPI   C1B 2077   3.927   5.592  10.267  0.1179  0.0044 -0.0172
  130loPI   C2B 2078   3.779   5.554   9.743  0.1135 -0.0358 -0.1918
  130loPI   C3B 2079   3.772   5.523   9.334  0.3394 -0.2819  0.0852
  130loPI   C4B 2080   3.864   5.447   8.891  0.0434  0.0263 -0.0968
  131loPI    C1 2081  12.715  17.444  10.867 -0.2094 -0.1731  0.0236
  131loPI    C2 2082  12.887  17.453  11.228 -0.3530  0.0234  0.0883
  131loPI    C3 2083  12.535  17.269  11.178 -0.3734  0.0680  0.0670
  131loPI   PO4 2084  12.906  17.571  10.768  0.3156  0.3149 -0.0590
  131loPI   GL1 2085  13.272  17.574  10.486  0.2807 -0.2848  0.2414
  131loPI   GL2 2086  13.527  17.570  10.387  0.1557 -0.0338 -0.0084
  131loPI   C1A 2087  13.109  17.424  10.107  0.0550 -0.2140 -0.4021
  131loPI   C2A 2088  13.008  17.171   9.731 -0.1697  0.0176 -0.3918
  131loPI   C3A 2089  13.123  16.978   9.304  0.0383 -0.0350 -0.0252
  131loPI   C4A 2090  13.364  17.091   8.839 -0.1576  0.0407 -0.2453
  131loPI   C5A 2091  13.268  17.144   8.474 -0.2044 -0.1134 -0.2815
  131loPI   C6A 2092  12.956  17.010   8.312  0.2428  0.0640 -0.1182
  131loPI   C1B 2093  13.596  17.265  10.131  0.0743  0.1221 -0.1592
  131loPI   C2B 2094  13.530  17.112   9.746  0.1392 -0.2817 -0.1012
  131loPI   C3B 2095  13.632  16.914   9.376  0.2022  0.1135 -0.2026
  131loPI   C4B 2096  13.671  16.683   8.983  0.1174  0.2109  0.0862
  132loPI    C1 2097   4.641   7.988  11.228 -0.0916 -0.0059 -0.2291
  132loPI    C2 2098   4.759   7.976  11.610  0.0334  0.1832 -0.2607
  132loPI    C3 2099   4.406   7.821  11.505 -0.1328  0.3884 -0.0188
  132loPI   PO4 2100   4.690   8.252  11.199  0.1125  0.2620  0.0893
  132loPI   GL1 2101   4.478   8.523  10.848  0.0329 -0.1868 -0.1021
  132loPI   GL2 2102   4.685   8.829  10.909  0.0279 -0.1266  0.3494
  132loPI   C1A 2103   4.410   8.760  10.485  0.0459 -0.0402  0.2502
  132loPI   C2A 2104   4.277   8.689  10.106  0.2259  0.0131 -0.0361
  132loPI   C3A 2105   4.351   8.781   9.623 -0.0602 -0.3227 -0.1689
  132loPI   C4A 2106   4.476   8.754   9.205  0.0820  0.4719 -0.1916
  132loPI   C5A 2107   4.816   8.900   8.775  0.0047  0.2688 -0.2554
  132loPI   C6A 2108   4.926   8.749   8.445 -0.1755 -0.0558 -0.0033
  132loPI   C1B 2109   4.903   8.519  10.571  0.1474  0.1734  0.0548
  132loPI   C2B 2110   4.841   8.495  10.054 -0.0355 -0.2189  0.2422
  132loPI   C3B 2111   4.741   8.483   9.640 -0.2515  0.4155  0.1103
  132loPI   C4B 2112   4.963   8.508   9.163 -0.1744 -0.1431 -0.2522
  133loPI    C1 2113  13.182  14.020  11.225 -0.0156 -0.0739  0.2270
  133loPI    C2 2114  12.782  14.027  11.245 -0.0346 -0.1535 -0.0751
  133loPI    C3 2115  12.999  13.989  11.579 -0.2746  0.0296  0.1050
  133loPI   PO4 2116  13.222  14.250  11.064 -0.1049 -0.4890  0.2376
  133loPI   GL1 2117  13.194  14.350  10.668  0.1715  0.1897  0.1732
  133loPI   GL2 2118  13.442  14.483  10.524  0.2861 -0.1660 -0.3995
  133loPI   C1A 2119  12.990  14.578  10.356  0.0280  0.0473  0.1905
  133loPI   C2A 2120  12.994  14.659   9.899  0.0383 -0.1274  0.0568
  133loPI   C3A 2121  13.011  14.663   9.492  0.2972 -0.0203 -0.1453
  133loPI   C4A 2122  13.054  14.721   8.979 -0.1945 -0.1526 -0.1115
  133loPI   C5A 2123  12.864  14.588   8.626  0.0444  0.0089  0.3026
  133loPI   C6A 2124  12.965  14.170   8.514 -0.2999 -0.0262  0.2818
  133loPI   C1B 2125  13.405  14.371  10.142  0.3394 -0.0879 -0.1714
  133loPI   C2B 2126  13.462  14.444   9.768 -0.0219 -0.0927  0.0551
  133loPI   C3B 2127  13.484  14.383   9.291  0.1167 -0.0729 -0.1313
  133loPI   C4B 2128  13.458  14.490   8.841  0.0850  0.2702 -0.5164
  134loPI    C1 2129   5.654   5.890  11.260  0.1152 -0.0847 -0.2900
  134loPI    C2 2130   6.050   5.935  11.282  0.0973 -0.0255 -0.0617
  134loPI    C3 2131   5.866   5.667  11.514 -0.0261  0.1351  0.0280
  134loPI   PO4 2132   5.627   5.807  10.980  0.1172 -0.0350 -0.1061
  134loPI   GL1 2133   5.763   5.878  10.581 -0.3653 -0.2514  0.2566
  134loPI   GL2 2134   5.929   6.030  10.454 -0.2582 -0.1631 -0.1549
  134loPI   C1A 2135   5.613   5.779  10.176  0.1311 -0.4486  0.0869
  134loPI   C2A 2136   5.661   5.779   9.779 -0.1812 -0.1528  0.1214
  134loPI   C3A 2137   5.590   5.734   9.316 -0.1631 -0.1999 -0.1393
  134loPI   C4A 2138   5.621   5.715   8.914 -0.1570  0.1822 -0.0825
  134loPI   C5A 2139   5.434   5.609   8.484 -0.3743 -0.3241 -0.1483
  134loPI   C6A 2140   5.259   5.386   8.072 -0.0919 -0.0978  0.2807
  134loPI   C1B 2141   5.994   6.079   9.986  0.3673  0.0549 -0.0724
  134loPI   C2B 2142   6.017   6.072   9.514  0.0351 -0.0502  0.1841
  134loPI   C3B 2143   6.092   6.002   9.077  0.2580 -0.0335  0.0044
  134loPI   C4B 2144   6.044   5.998   8.688 -0.0285  0.1027  0.1721
  135loPI    C1 2145   4.171  12.226  11.224 -0.0608  0.0925 -0.0635
  135loPI    C2 2146   4.534  12.176  11.384 -0.0876 -0.0483 -0.0450
  135loPI    C3 2147   4.284  12.448  11.537  0.0419  0.1110 -0.1134
  135loPI   PO4 2148   4.198  12.288  11.000 -0.0375  0.0040 -0.0419
  135loPI   GL1 2149   4.200  12.570  10.722 -0.1086  0.0384  0.4294
  135loPI   GL2 2150   4.209  12.407  10.437  0.0554 -0.0582  0.1079
  135loPI   C1A 2151   4.073  12.892  10.404 -0.0857 -0.1115  0.1744
  135loPI   C2A 2152   3.992  12.835   9.982  0.2354  0.0154 -0.0987
  135loPI   C3A 2153   4.003  12.896   9.529 -0.1008  0.3265 -0.2165
  135loPI   C4A 2154   4.033  12.867   9.121  0.1206 -0.1975  0.0220
  135loPI   C5A 2155   4.183  12.838   8.693  0.1067 -0.4616  0.1234
  135loPI   C6A 2156   4.286  12.682   8.273 -0.3204  0.3308 -0.1092
  135loPI   C1B 2157   4.139  12.356  10.098  0.0213  0.1161 -0.0993
  135loPI   C2B 2158   4.125  12.350   9.636 -0.0640 -0.2452  0.0008
  135loPI   C3B 2159   4.145  12.350   9.142  0.3439  0.0464  0.0584
  135loPI   C4B 2160   4.191  12.358   8.725  0.3330  0.0939  0.0720
  136loPI    C1 2161  13.940   3.370  11.048 -0.2535 -0.0753  0.0831
  136loPI    C2 2162  14.060   3.144  11.355 -0.3119 -0.0866  0.0978
  136loPI    C3 2163  13.885   3.498  11.423  0.1400  0.1505  0.0694
  136loPI   PO4 2164  13.834   3.310  10.893 -0.0511 -0.0268  0.3262
  136loPI   GL1 2165  13.970   3.455  10.516 -0.3217  0.0570 -0.1646
  136loPI   GL2 2166  14.214   3.415  10.491 -0.2461 -0.1449 -0.4530
  136loPI   C1A 2167  13.885   3.563  10.148 -0.0672  0.1569  0.1976
  136loPI   C2A 2168  13.842   3.640   9.621 -0.0886  0.2765 -0.1814
  136loPI   C3A 2169  13.835   3.693   9.256 -0.0242 -0.3185  0.1746
  136loPI   C4A 2170  13.809   3.682   8.808 -0.3094  0.3406  0.0663
  136loPI   C5A 2171  13.866   3.596   8.404  0.1105  0.1126 -0.1015
  136loPI   C6A 2172  14.242   3.646   8.266  0.0427  0.3394 -0.0146
  136loPI   C1B 2173  14.320   3.350  10.044 -0.1147  0.2438 -0.0004
  136loPI   C2B 2174  14.347   3.422   9.573 -0.2400  0.1649  0.1401
  136loPI   C3B 2175  14.336   3.415   9.086  0.1080 -0.1354 -0.1807
  136loPI   C4B 2176  14.292   3.566   8.727  0.1838 -0.3500  0.0741
  137loPI    C1 2177   0.491   6.438  11.434  0.0578  0.2131  0.0059
  137loPI    C2 2178   0.813   6.511  11.661  0.0864 -0.0685  0.0591
  137loPI    C3 2179   0.771   6.156  11.481 -0.1464  0.0019 -0.0296
  137loPI   PO4 2180   0.519   6.646  11.275  0.1867  0.0546  0.4890
  137loPI   GL1 2181   0.458   6.893  10.809 -0.1457 -0.3541 -0.0074
  137loPI   GL2 2182   0.583   6.571  10.723 -0.0504 -0.0270  0.0074
  137loPI   C1A 2183   0.485   7.025  10.453 -0.1994  0.0438  0.0353
  137loPI   C2A 2184   0.492   7.054  10.090  0.1987  0.1751  0.1092
  137loPI   C3A 2185   0.451   7.081   9.681 -0.0776  0.2365 -0.0475
  137loPI   C4A 2186   0.475   7.039   9.210  0.0347 -0.2580  0.0637
  137loPI   C5A 2187   0.601   6.868   8.799 -0.0473 -0.0673 -0.1941
  137loPI   C6A 2188   0.720   6.598   8.493 -0.4467  0.0302  0.1742
  137loPI   C1B 2189   0.501   6.570  10.264 -0.0703 -0.0587 -0.3974
  137loPI   C2B 2190   0.473   6.573   9.894  0.1666  0.0363  0.0177
  137loPI   C3B 2191   0.547   6.476   9.506 -0.0045  0.0622  0.1688
  137loPI   C4B 2192   0.594   6.494   9.126  0.1858  0.2575 -0.1727
  138loPI    C1 2193   2.471  12.650  11.119  0.3111 -0.2927  0.0906
  138loPI    C2 2194   2.353  12.286  11.236 -0.1203 -0.1745  0.0409
  138loPI    C3 2195   2.326  12.596  11.488  0.0990 -0.1456  0.0308
  138loPI   PO4 2196   2.390  12.659  10.886  0.2044  0.0023  0.2045
  138loPI   GL1 2197   2.400  12.715  10.482 -0.1629  0.1540 -0.0001
  138loPI   GL2 2198   2.825  12.632  10.587 -0.0635  0.0407 -0.2985
  138loPI   C1A 2199   2.310  12.687  10.100 -0.1010  0.2579  0.0311
  138loPI   C2A 2200   2.257  12.719   9.649  0.0937 -0.2775 -0.1334
  138loPI   C3A 2201   2.284  12.712   9.220  0.1250 -0.0421  0.0798
  138loPI   C4A 2202   2.145  12.683   8.790 -0.1202 -0.0000 -0.0546
  138loPI   C5A 2203   1.764  12.367   8.545  0.0660  0.1568 -0.0415
  138loPI   C6A 2204   1.335  12.378   8.263 -0.1582 -0.1513 -0.1997
  138loPI   C1B 2205   2.779  12.485  10.167 -0.2618  0.1446  0.1062
  138loPI   C2B 2206   2.799  12.455   9.720 -0.3767  0.1366 -0.0293
  138loPI   C3B 2207   2.687  12.415   9.307  0.0972 -0.0037  0.0073
  138loPI   C4B 2208   2.640  12.508   8.856 -0.0531 -0.1068 -0.1418
  139loPI    C1 2209  15.320  11.229  11.161  0.0447 -0.0573  0.0965
  139loPI    C2 2210  15.497  11.586  11.199  0.0202 -0.0341 -0.0030
  139loPI    C3 2211  15.238  11.461  11.477  0.0715  0.0007  0.0610
  139loPI   PO4 2212  15.214  11.225  10.913  0.1947  0.0282  0.1559
  139loPI   GL1 2213  15.264  11.307  10.503 -0.1879 -0.2316 -0.2538
  139loPI   GL2 2214  14.978  11.157  10.437 -0.0026  0.2401  0.1335
  139loPI   C1A 2215  15.337  11.393  10.094 -0.0340 -0.1625 -0.1878
  139loPI   C2A 2216  15.199  11.423   9.654  0.0955  0.0153  0.1504
  139loPI   C3A 2217  15.259  11.381   9.193 -0.1771 -0.2125 -0.2959
  139loPI   C4A 2218  15.288  11.376   8.772 -0.0064  0.2706  0.1286
  139loPI   C5A 2219  15.451  11.096   8.462  0.3435  0.3175 -0.0319
  139loPI   C6A 2220  15.182  10.803   8.263 -0.0940 -0.0531  0.0340
  139loPI   C1B 2221  14.835  11.062   9.940 -0.1199 -0.1279  0.1886
  139loPI   C2B 2222  14.820  11.084   9.521  0.0991  0.1957 -0.2656
  139loPI   C3B 2223  14.857  11.094   9.070 -0.0083  0.0406 -0.2156
  139loPI   C4B 2224  14.861  11.085   8.601 -0.0501  0.2864 -0.1844
  140loPI    C1 2225   1.106  15.001  10.888 -0.0692  0.1148  0.0463
  140loPI    C2 2226   1.030  14.633  10.752  0.2390 -0.0277  0.2480
  140loPI    C3 2227   0.834  14.772  11.072  0.1182 -0.0126  0.1682
  140loPI   PO4 2228   1.149  15.101  10.644 -0.1916 -0.0186 -0.0404
  140loPI   GL1 2229   0.967  15.106  10.241  0.0408  0.0322  0.3476
  140loPI   GL2 2230   0.863  14.747  10.256 -0.1735 -0.0908 -0.0267
  140loPI   C1A 2231   1.000  15.267   9.818  0.0253  0.2686 -0.0528
  140loPI   C2A 2232   1.030  15.249   9.404 -0.2589 -0.1755  0.0667
  140loPI   C3A 2233   1.048  15.165   9.012 -0.1542  0.0901 -0.0140
  140loPI   C4A 2234   1.240  15.208   8.612  0.1285 -0.3343  0.1050
  140loPI   C5A 2235   1.485  15.179   8.240 -0.0717  0.0247 -0.1112
  140loPI   C6A 2236   1.666  14.779   8.012  0.1158 -0.1572  0.2622
  140loPI   C1B 2237   1.004  14.635   9.875 -0.0614  0.0997 -0.1674
  140loPI   C2B 2238   1.097  14.677   9.350  0.0322 -0.0160  0.1773
  140loPI   C3B 2239   1.097  14.618   8.872  0.0584  0.2808 -0.2156
  140loPI   C4B 2240   1.295  14.642   8.517 -0.0385  0.1519 -0.3117
  141loPI    C1 2241  12.739   4.003  10.509 -0.0034  0.0428 -0.1535
  141loPI    C2 2242  12.837   4.151  10.867 -0.0037  0.1868 -0.2119
  141loPI    C3 2243  12.653   3.797  10.840  0.3671 -0.0204 -0.0926
  141loPI   PO4 2244  12.866   4.147  10.391  0.1409  0.0056  0.2336
  141loPI   GL1 2245  12.803   4.153   9.990  0.1416  0.1355 -0.0419
  141loPI   GL2 2246  12.805   4.527   9.997  0.2687 -0.3587  0.1172
  141loPI   C1A 2247  12.987   3.991   9.684 -0.0143 -0.0430  0.1212
  141loPI   C2A 2248  12.963   3.985   9.301 -0.0325  0.0155  0.1911
  141loPI   C3A 2249  12.845   4.063   8.879 -0.1913  0.1622 -0.0973
  141loPI   C4A 2250  13.006   4.064   8.395 -0.3955 -0.2287  0.1108
  141loPI   C5A 2251  12.891   3.791   8.029  0.3514 -0.1016 -0.1157
  141loPI   C6A 2252  12.930   3.687   7.564  0.0807  0.0693  0.1376
  141loPI   C1B 2253  12.850   4.481   9.624 -0.0713  0.0022 -0.1382
  141loPI   C2B 2254  12.766   4.545   9.182 -0.1532  0.1153 -0.0674
  141loPI   C3B 2255  12.873   4.610   8.730  0.0297  0.2645 -0.1293
  141loPI   C4B 2256  12.877   4.566   8.302  0.0341  0.0279 -0.1596
  142loPI    C1 2257  13.478  15.273  11.402 -0.0221  0.1838 -0.0614
  142loPI    C2 2258  13.801  15.437  11.572 -0.0391  0.1076  0.0452
  142loPI    C3 2259  13.553  15.211  11.790 -0.0500 -0.0086 -0.0857
  142loPI   PO4 2260  13.524  15.196  11.109 -0.2272  0.1145 -0.0597
  142loPI   GL1 2261  13.813  15.113  10.743  0.0612  0.0445  0.0233
  142loPI   GL2 2262  13.870  14.819  10.746  0.1693 -0.0865  0.1570
  142loPI   C1A 2263  13.751  15.313  10.312 -0.0539  0.3754  0.0966
  142loPI   C2A 2264  13.738  15.198   9.900  0.0083  0.0116 -0.0689
  142loPI   C3A 2265  13.774  15.290   9.416  0.0400 -0.1029  0.0031
  142loPI   C4A 2266  13.869  15.272   8.991  0.3060  0.1747  0.1911
  142loPI   C5A 2267  13.880  15.338   8.513 -0.0358 -0.0421 -0.2538
  142loPI   C6A 2268  13.900  15.146   8.119 -0.0698 -0.0915  0.0516
  142loPI   C1B 2269  13.813  14.782  10.277 -0.0658 -0.1392  0.1449
  142loPI   C2B 2270  13.891  14.722   9.901  0.1299  0.2349 -0.0686
  142loPI   C3B 2271  13.869  14.723   9.554 -0.0617 -0.1278  0.1000
  142loPI   C4B 2272  13.917  14.756   9.175 -0.0446  0.1059 -0.0987
  143loPI    C1 2273   9.017   6.165  10.768 -0.1087 -0.2029 -0.1160
  143loPI    C2 2274   9.248   5.869  10.905 -0.0970 -0.0727  0.1534
  143loPI    C3 2275   9.346   6.250  10.979 -0.4453 -0.0181  0.3546
  143loPI   PO4 2276   8.931   6.119  10.547  0.1621  0.1752 -0.1007
  143loPI   GL1 2277   8.967   6.078  10.138  0.2977 -0.3193 -0.0358
  143loPI   GL2 2278   8.687   5.864  10.195  0.0205 -0.1310 -0.0305
  143loPI   C1A 2279   9.054   6.106   9.655 -0.0498  0.1401 -0.2235
  143loPI   C2A 2280   9.086   6.132   9.236  0.1164 -0.1553  0.0486
  143loPI   C3A 2281   9.095   6.124   8.834  0.1528  0.0302  0.3887
  143loPI   C4A 2282   8.977   6.094   8.380 -0.0747  0.1399  0.1654
  143loPI   C5A 2283   8.857   5.853   8.104  0.2385  0.1819  0.3115
  143loPI   C6A 2284   8.705   5.377   8.015 -0.2025  0.0845  0.0090
  143loPI   C1B 2285   8.653   5.839   9.711 -0.2227  0.1982 -0.1317
  143loPI   C2B 2286   8.676   5.782   9.350  0.0934 -0.2377  0.1690
  143loPI   C3B 2287   8.614   5.817   8.867 -0.1392  0.5299 -0.1858
  143loPI   C4B 2288   8.589   5.703   8.483  0.1828 -0.0959  0.2102
  144loPI    C1 2289  16.157  12.345  11.417 -0.0427  0.2662 -0.1143
  144loPI    C2 2290  16.312  12.713  11.396  0.2873  0.1277 -0.1578
  144loPI    C3 2291  16.227  12.552  11.752  0.0068  0.2990 -0.1448
  144loPI   PO4 2292  16.160  12.295  11.154 -0.0401 -0.1988  0.1075
  144loPI   GL1 2293  16.079  12.495  10.841  0.0294  0.4400  0.1327
  144loPI   GL2 2294  16.083  12.821  10.914 -0.0813 -0.0583 -0.0670
  144loPI   C1A 2295  15.975  12.491  10.399 -0.0996 -0.0767 -0.1685
  144loPI   C2A 2296  15.930  12.501   9.984 -0.3807 -0.3505  0.1656
  144loPI   C3A 2297  16.032  12.534   9.529 -0.1594  0.0591 -0.2655
  144loPI   C4A 2298  15.950  12.503   9.149  0.1755 -0.0275 -0.1027
  144loPI   C5A 2299  15.937  12.531   8.615  0.0690  0.2012  0.4459
  144loPI   C6A 2300  16.159  12.675   8.288 -0.1479 -0.1080 -0.1508
  144loPI   C1B 2301  16.327  12.768  10.571  0.2303 -0.0360 -0.0950
  144loPI   C2B 2302  16.362  12.808  10.142 -0.0320  0.1422  0.2707
  144loPI   C3B 2303  16.400  12.800   9.698  0.2048  0.4154  0.0139
  144loPI   C4B 2304  16.530  12.805   9.230  0.1999  0.2281 -0.1993
  145loPI    C1 2305   2.909  10.635  11.390 -0.0472 -0.0489 -0.0428
  145loPI    C2 2306   2.680  10.836  11.650  0.2597 -0.0534  0.2382
  145loPI    C3 2307   2.860  10.497  11.763 -0.0112 -0.3317 -0.1407
  145loPI   PO4 2308   2.966  10.863  11.249 -0.0028  0.1220 -0.0168
  145loPI   GL1 2309   2.944  10.971  10.866  0.0732  0.3083 -0.3425
  145loPI   GL2 2310   3.156  10.802  10.768 -0.1981  0.0145  0.0848
  145loPI   C1A 2311   2.812  10.928  10.430 -0.0227  0.0916 -0.1876
  145loPI   C2A 2312   2.868  10.911   9.951  0.0545 -0.0652 -0.2010
  145loPI   C3A 2313   2.886  10.927   9.441 -0.1175 -0.0601 -0.0806
  145loPI   C4A 2314   2.793  11.069   9.018 -0.1488 -0.0136 -0.2879
  145loPI   C5A 2315   2.505  11.193   8.655 -0.0164 -0.4034  0.1024
  145loPI   C6A 2316   2.222  11.166   8.280  0.2582  0.1503  0.1217
  145loPI   C1B 2317   3.285  10.728  10.264 -0.0481  0.0480  0.0390
  145loPI   C2B 2318   3.316  10.713   9.838  0.3158  0.0511  0.0732
  145loPI   C3B 2319   3.315  10.697   9.267  0.0563  0.3152 -0.0605
  145loPI   C4B 2320   3.287  10.639   8.874  0.4799  0.1089  0.0580
  146loPI    C1 2321   3.247   3.080  11.172  0.1227 -0.0891 -0.1533
  146loPI    C2 2322   2.901   3.195  11.335  0.1875  0.0138 -0.0871
  146loPI    C3 2323   3.213   3.107  11.570  0.2127 -0.0581 -0.1473
  146loPI   PO4 2324   3.321   3.348  10.972 -0.3641 -0.0492 -0.1450
  146loPI   GL1 2325   3.295   3.728  10.629  0.1537  0.0355 -0.0758
  146loPI   GL2 2326   3.501   3.609  10.370 -0.1255 -0.0504  0.3318
  146loPI   C1A 2327   3.099   3.907  10.189  0.0399 -0.2627  0.1363
  146loPI   C2A 2328   3.152   3.932   9.650  0.0856  0.1086  0.1464
  146loPI   C3A 2329   3.118   3.792   9.298 -0.0236 -0.1304 -0.1512
  146loPI   C4A 2330   3.089   3.847   8.845  0.0490  0.1842 -0.4216
  146loPI   C5A 2331   2.985   3.682   8.447 -0.0386 -0.3062  0.0514
  146loPI   C6A 2332   2.907   3.263   8.135 -0.0061 -0.3269  0.0002
  146loPI   C1B 2333   3.590   3.698   9.919  0.0177  0.0747 -0.2630
  146loPI   C2B 2334   3.633   3.677   9.486  0.0220  0.1360  0.2746
  146loPI   C3B 2335   3.543   3.592   9.034  0.0765  0.1519  0.1888
  146loPI   C4B 2336   3.566   3.607   8.615 -0.2826 -0.1186  0.0883
  147loPI    C1 2337  10.666   6.396  10.877  0.0726 -0.0705 -0.0726
  147loPI    C2 2338  10.298   6.241  10.849  0.0415 -0.0213  0.0605
  147loPI    C3 2339  10.430   6.383  11.199  0.2512 -0.1970  0.0551
  147loPI   PO4 2340  10.760   6.421  10.619  0.0584 -0.1604  0.0657
  147loPI   GL1 2341  10.762   6.393  10.214 -0.0301  0.0346 -0.1630
  147loPI   GL2 2342  11.097   6.244  10.077  0.0199  0.2053 -0.0167
  147loPI   C1A 2343  10.726   6.450   9.789 -0.1768  0.3048 -0.1176
  147loPI   C2A 2344  10.780   6.529   9.367  0.1793  0.2978 -0.1875
  147loPI   C3A 2345  10.844   6.438   9.022 -0.1496 -0.1787  0.3790
  147loPI   C4A 2346  10.914   6.374   8.533  0.3952 -0.2455  0.0528
  147loPI   C5A 2347  11.074   6.104   8.176 -0.1991  0.0096 -0.1368
  147loPI   C6A 2348  10.960   6.024   7.732 -0.0234 -0.0181 -0.1245
  147loPI   C1B 2349  11.234   6.254   9.710 -0.0704 -0.2014  0.2236
  147loPI   C2B 2350  11.231   6.242   9.240  0.2577 -0.0084 -0.1168
  147loPI   C3B 2351  11.248   6.194   8.849 -0.1918  0.0599  0.1816
  147loPI   C4B 2352  11.398   6.288   8.471  0.1792  0.2906 -0.0245
  148loPI    C1 2353   8.202  15.464  11.329 -0.0426  0.0956  0.0511
  148loPI    C2 2354   8.416  15.314  11.632  0.0512  0.1175 -0.0039
  148loPI    C3 2355   8.204  15.650  11.683 -0.1634 -0.0344  0.1211
  148loPI   PO4 2356   8.100  15.156  11.141 -0.0360 -0.1055  0.3345
  148loPI   GL1 2357   7.981  15.256  10.723  0.1828 -0.1651 -0.3046
  148loPI   GL2 2358   8.074  15.470  10.562  0.2319  0.0685  0.0206
  148loPI   C1A 2359   7.763  15.241  10.329  0.0120 -0.0129  0.3437
  148loPI   C2A 2360   7.740  15.163   9.828 -0.1580 -0.2678 -0.0268
  148loPI   C3A 2361   7.865  15.183   9.409 -0.0586  0.0523  0.0678
  148loPI   C4A 2362   7.981  15.233   9.007  0.0595 -0.1168  0.0501
  148loPI   C5A 2363   8.158  15.187   8.599  0.0402 -0.2274 -0.3174
  148loPI   C6A 2364   8.018  15.398   8.287  0.0443  0.1550  0.0554
  148loPI   C1B 2365   8.176  15.386  10.141  0.6004  0.3463  0.2572
  148loPI   C2B 2366   8.253  15.411   9.721  0.0248 -0.1209 -0.0845
  148loPI   C3B 2367   8.277  15.540   9.321  0.0164  0.0201 -0.2553
  148loPI   C4B 2368   8.415  15.528   8.910  0.2965  0.0149 -0.0818
  149loPI    C1 2369  11.455  17.150  11.185  0.1412 -0.0768 -0.1934
  149loPI    C2 2370  11.102  17.220  11.358  0.2583 -0.0344  0.0327
  149loPI    C3 2371  11.439  17.268  11.567  0.3961 -0.1244 -0.1664
  149loPI   PO4 2372  11.398  16.981  10.998 -0.0284 -0.0007 -0.1570
  149loPI   GL1 2373  11.447  16.810  10.591  0.1997 -0.2616 -0.0467
  149loPI   GL2 2374  11.275  17.023  10.461  0.2780 -0.1177  0.1635
  149loPI   C1A 2375  11.383  16.648  10.168  0.0524  0.0613 -0.0059
  149loPI   C2A 2376  11.340  16.680   9.667 -0.3032 -0.0626 -0.1150
  149loPI   C3A 2377  11.428  16.731   9.254  0.1460 -0.0956  0.1673
  149loPI   C4A 2378  11.309  16.676   8.946  0.2413 -0.0096 -0.0417
  149loPI   C5A 2379  11.331  16.651   8.563  0.0901  0.1405  0.0219
  149loPI   C6A 2380  11.163  16.604   8.167  0.2282  0.1424  0.2665
  149loPI   C1B 2381  11.329  17.131  10.095  0.1813  0.2712 -0.1878
  149loPI   C2B 2382  11.272  17.192   9.684  0.4550  0.0339 -0.0023
  149loPI   C3B 2383  11.202  17.176   9.165  0.2796  0.0374 -0.1230
  149loPI   C4B 2384  11.209  17.229   8.787 -0.0372  0.0513 -0.0502
  150loPI    C1 2385  16.018  16.241  11.211  0.1994 -0.0817 -0.1553
  150loPI    C2 2386  16.282  16.110  11.482  0.0289 -0.0618  0.0223
  150loPI    C3 2387  15.909  16.201  11.593 -0.0527 -0.0847 -0.2260
  150loPI   PO4 2388  16.162  16.426  11.049  0.1465 -0.2759  0.0445
  150loPI   GL1 2389  16.202  16.614  10.668 -0.0483  0.0462 -0.1004
  150loPI   GL2 2390  15.917  16.415  10.618  0.0625 -0.2825  0.3379
  150loPI   C1A 2391  16.453  16.705  10.352 -0.2746  0.1125  0.1538
  150loPI   C2A 2392  16.470  16.740   9.888 -0.0842  0.0493 -0.1820
  150loPI   C3A 2393  16.549  16.713   9.481 -0.0018  0.0744 -0.0626
  150loPI   C4A 2394  16.468  16.736   9.005 -0.0057  0.0521  0.1338
  150loPI   C5A 2395  16.623  16.857   8.739 -0.1644  0.0586 -0.0787
  150loPI   C6A 2396  17.015  16.634   8.515 -0.0591  0.1722  0.3639
  150loPI   C1B 2397  16.002  16.439  10.220 -0.0329  0.0428 -0.1522
  150loPI   C2B 2398  16.011  16.449   9.802 -0.1499  0.1270 -0.0277
  150loPI   C3B 2399  16.043  16.443   9.345  0.1939 -0.0371  0.3573
  150loPI   C4B 2400  16.103  16.414   8.935 -0.0902  0.1113 -0.1175
  151loPI    C1 2401   9.822   5.967  10.927 -0.2898 -0.0242 -0.0589
  151loPI    C2 2402   9.594   5.912  11.250 -0.2122  0.2282  0.0417
  151loPI    C3 2403   9.924   6.136  11.275  0.1083 -0.2166 -0.0758
  151loPI   PO4 2404   9.695   5.932  10.743  0.0790 -0.2585  0.0045
  151loPI   GL1 2405   9.714   5.729  10.335 -0.2351  0.0382  0.2743
  151loPI   GL2 2406  10.025   5.786  10.123  0.1254 -0.3517  0.2832
  151loPI   C1A 2407   9.621   5.615   9.877  0.1455  0.1415  0.3092
  151loPI   C2A 2408   9.594   5.397   9.454 -0.4258  0.1559 -0.1215
  151loPI   C3A 2409   9.585   5.355   9.019 -0.3377  0.0094 -0.3927
  151loPI   C4A 2410   9.640   5.501   8.562  0.0270  0.0660  0.0005
  151loPI   C5A 2411   9.889   5.438   8.298 -0.1006 -0.0993  0.1067
  151loPI   C6A 2412   9.944   5.691   7.961 -0.1582 -0.2007  0.2277
  151loPI   C1B 2413  10.013   5.887   9.651  0.0679  0.0039  0.3006
  151loPI   C2B 2414   9.985   5.729   9.250 -0.3707  0.1701  0.2135
  151loPI   C3B 2415  10.019   5.857   8.822 -0.2163  0.0486 -0.0703
  151loPI   C4B 2416  10.118   5.865   8.389  0.0534 -0.1432 -0.1046
  152loPI    C1 2417   9.160  16.142  11.197  0.1393 -0.0119  0.0112
  152loPI    C2 2418   9.468  16.022  11.423  0.1201 -0.2451 -0.0831
  152loPI    C3 2419   9.095  15.916  11.521  0.0693  0.0179  0.0179
  152loPI   PO4 2420   9.182  16.233  10.926  0.0658 -0.0678 -0.2142
  152loPI   GL1 2421   9.417  16.262  10.632  0.0657 -0.1888  0.1150
  152loPI   GL2 2422   9.579  15.913  10.546  0.0651 -0.3392  0.0705
  152loPI   C1A 2423   9.593  16.429  10.334 -0.2175 -0.1129 -0.1314
  152loPI   C2A 2424   9.542  16.418   9.919 -0.1372  0.1226 -0.1462
  152loPI   C3A 2425   9.530  16.433   9.371 -0.0776 -0.0136 -0.0162
  152loPI   C4A 2426   9.476  16.409   8.933 -0.2126 -0.0725  0.2039
  152loPI   C5A 2427   9.444  16.385   8.499  0.0126  0.0397 -0.0940
  152loPI   C6A 2428   9.387  16.265   8.081 -0.0109  0.0719 -0.0413
  152loPI   C1B 2429   9.501  15.900  10.111  0.0506 -0.0511 -0.2553
  152loPI   C2B 2430   9.604  15.969   9.649 -0.0301 -0.0328  0.1016
  152loPI   C3B 2431   9.587  15.956   9.166  0.0455  0.0134 -0.4550
  152loPI   C4B 2432   9.643  15.916   8.760  0.1195  0.1861  0.0901
  153loPI    C1 2433  14.449   5.381  10.813 -0.0398 -0.0445 -0.1963
  153loPI    C2 2434  14.180   5.390  11.109 -0.0073 -0.1011 -0.1648
  153loPI    C3 2435  14.542   5.234  11.173  0.0761  0.0868 -0.1715
  153loPI   PO4 2436  14.395   5.208  10.689 -0.0520 -0.0324  0.1899
  153loPI   GL1 2437  14.575   4.844  10.550  0.1912  0.2853  0.2585
  153loPI   GL2 2438  14.570   4.512  10.587  0.0993 -0.0039 -0.3144
  153loPI   C1A 2439  14.545   4.811  10.190  0.2423  0.3018  0.1136
  153loPI   C2A 2440  14.586   4.736   9.735 -0.3096  0.0892 -0.1969
  153loPI   C3A 2441  14.582   4.774   9.299 -0.0298 -0.2676  0.0141
  153loPI   C4A 2442  14.573   4.851   8.961 -0.0656 -0.2281 -0.2783
  153loPI   C5A 2443  14.556   4.804   8.520  0.0764  0.1952 -0.2030
  153loPI   C6A 2444  14.491   4.807   8.143  0.0278 -0.0478  0.1870
  153loPI   C1B 2445  14.988   4.490  10.281 -0.0384 -0.1074 -0.1005
  153loPI   C2B 2446  15.023   4.517   9.908 -0.0269  0.1162  0.0741
  153loPI   C3B 2447  15.040   4.524   9.428  0.0691 -0.0457 -0.2576
  153loPI   C4B 2448  14.989   4.442   9.041 -0.0863 -0.1639  0.0306
  154loPI    C1 2449  14.034   9.933  10.609  0.1316 -0.2041 -0.0460
  154loPI    C2 2450  13.997   9.597  10.823 -0.2607 -0.1021  0.0537
  154loPI    C3 2451  14.173   9.919  10.983 -0.3643 -0.0930  0.1505
  154loPI   PO4 2452  13.843  10.017  10.514 -0.0290  0.2518  0.3990
  154loPI   GL1 2453  13.707  10.115  10.147 -0.4272 -0.0783 -0.1593
  154loPI   GL2 2454  13.521  10.385  10.089 -0.1731 -0.2071 -0.1805
  154loPI   C1A 2455  13.899   9.922   9.866 -0.3941 -0.4773  0.1145
  154loPI   C2A 2456  13.936   9.891   9.508 -0.3383  0.1144  0.0090
  154loPI   C3A 2457  14.048   9.864   9.106  0.1579  0.0582 -0.0105
  154loPI   C4A 2458  14.034   9.876   8.652 -0.0791 -0.0023 -0.1237
  154loPI   C5A 2459  14.191  10.032   8.218  0.1075 -0.0637 -0.1052
  154loPI   C6A 2460  14.262  10.470   8.125  0.0801  0.1638  0.0778
  154loPI   C1B 2461  13.610  10.582   9.652  0.1045  0.1282 -0.2049
  154loPI   C2B 2462  13.907  10.425   9.512  0.0072  0.2922  0.1674
  154loPI   C3B 2463  14.035  10.419   9.102  0.0794  0.1522 -0.2268
  154loPI   C4B 2464  14.046  10.385   8.621 -0.0195 -0.0005  0.2827
  155loPI    C1 2465   8.366   4.571  10.916 -0.1182  0.2679 -0.0888
  155loPI    C2 2466   8.198   4.550  11.278 -0.0470  0.0764 -0.0655
  155loPI    C3 2467   8.588   4.473  11.234 -0.0995 -0.1127 -0.2138
  155loPI   PO4 2468   8.167   4.736  10.797  0.0010 -0.3266 -0.2483
  155loPI   GL1 2469   8.164   4.959  10.475  0.2529 -0.2819  0.0711
  155loPI   GL2 2470   7.879   5.102  10.256  0.1559  0.0177  0.1480
  155loPI   C1A 2471   8.336   5.018  10.069 -0.4924 -0.1815 -0.0416
  155loPI   C2A 2472   8.267   4.890   9.621  0.0461 -0.0930  0.0611
  155loPI   C3A 2473   8.298   5.006   9.101 -0.2039  0.0545 -0.0331
  155loPI   C4A 2474   8.279   4.942   8.705  0.2247  0.0616  0.3076
  155loPI   C5A 2475   8.273   5.238   8.214 -0.2000  0.1240  0.1714
  155loPI   C6A 2476   8.134   5.319   7.793  0.0284 -0.0756  0.1587
  155loPI   C1B 2477   7.861   5.205   9.825 -0.0687 -0.2136 -0.3236
  155loPI   C2B 2478   7.907   5.155   9.382  0.1363  0.3047 -0.3920
  155loPI   C3B 2479   7.863   5.123   8.965  0.0529  0.0500  0.1013
  155loPI   C4B 2480   7.826   5.174   8.527  0.0746 -0.0435  0.0828
  156loPI    C1 2481  10.441  13.821  11.668 -0.1168  0.1669 -0.1711
  156loPI    C2 2482  10.739  13.557  11.707 -0.1432  0.1260 -0.2460
  156loPI    C3 2483  10.366  13.455  11.809 -0.1335  0.1738 -0.1621
  156loPI   PO4 2484  10.410  13.813  11.356 -0.1223 -0.0297  0.3868
  156loPI   GL1 2485  10.366  13.853  10.908 -0.0620 -0.2188  0.2703
  156loPI   GL2 2486  10.493  13.617  10.698 -0.0036 -0.1183  0.0318
  156loPI   C1A 2487  10.102  13.899  10.604  0.0488 -0.1189 -0.1769
  156loPI   C2A 2488   9.880  13.873  10.232  0.0564  0.3138  0.1679
  156loPI   C3A 2489   9.830  13.927   9.820  0.3418 -0.1914  0.0591
  156loPI   C4A 2490   9.871  13.966   9.442  0.0761  0.0338 -0.0355
  156loPI   C5A 2491   9.859  13.854   9.117  0.1452 -0.1331 -0.1845
  156loPI   C6A 2492   9.674  13.899   8.720 -0.1874 -0.2471  0.1008
  156loPI   C1B 2493  10.350  13.672  10.203 -0.0801  0.0501  0.2360
  156loPI   C2B 2494  10.335  13.761   9.768 -0.1950  0.0458 -0.5417
  156loPI   C3B 2495  10.350  13.846   9.293  0.1462  0.0311 -0.0674
  156loPI   C4B 2496  10.283  13.801   8.886 -0.1149  0.0678 -0.1059
  157loPI    C1 2497   2.494  10.331  11.406 -0.0983 -0.1920 -0.0601
  157loPI    C2 2498   2.246  10.581  11.595  0.0088 -0.1395  0.0125
  157loPI    C3 2499   2.385  10.257  11.784  0.0019 -0.1647 -0.0253
  157loPI   PO4 2500   2.377  10.272  11.212  0.0137  0.0611 -0.2956
  157loPI   GL1 2501   2.273  10.338  10.844  0.0774 -0.1650  0.2114
  157loPI   GL2 2502   2.415  10.657  10.644 -0.0577  0.0455 -0.0874
  157loPI   C1A 2503   2.453  10.156  10.502 -0.0342  0.2274  0.0827
  157loPI   C2A 2504   2.484  10.125  10.000 -0.0430 -0.1916  0.1006
  157loPI   C3A 2505   2.457  10.010   9.539 -0.0180 -0.0980  0.1586
  157loPI   C4A 2506   2.394  10.211   9.108 -0.1904  0.1285 -0.2461
  157loPI   C5A 2507   2.418  10.018   8.720  0.0556 -0.0541 -0.2916
  157loPI   C6A 2508   2.783   9.935   8.405 -0.0821 -0.1863  0.2712
  157loPI   C1B 2509   2.487  10.597  10.153 -0.3336  0.0037  0.1840
  157loPI   C2B 2510   2.403  10.695   9.734  0.2011  0.0109  0.1362
  157loPI   C3B 2511   2.394  10.780   9.348 -0.0694  0.0901 -0.2399
  157loPI   C4B 2512   2.444  10.727   8.882  0.2121 -0.1048 -0.1877
  158loPI    C1 2513  15.965   6.652  10.937  0.1046 -0.0933  0.0300
  158loPI    C2 2514  15.902   6.927  11.220  0.1895 -0.1677  0.1216
  158loPI    C3 2515  16.171   6.637  11.279 -0.0002 -0.3542  0.0842
  158loPI   PO4 2516  15.956   6.808  10.685  0.2307  0.0908 -0.5099
  158loPI   GL1 2517  16.183   7.190  10.462 -0.0205 -0.0004  0.2252
  158loPI   GL2 2518  16.190   7.018  10.220  0.0659 -0.1703 -0.1756
  158loPI   C1A 2519  16.123   7.487  10.131 -0.0962  0.1093 -0.0246
  158loPI   C2A 2520  16.093   7.629   9.742  0.1085 -0.3038 -0.2390
  158loPI   C3A 2521  16.036   7.529   9.350  0.0977  0.1389 -0.0690
  158loPI   C4A 2522  16.081   7.621   8.937  0.2423 -0.3522 -0.1138
  158loPI   C5A 2523  16.009   7.820   8.570  0.3582 -0.0465  0.0976
  158loPI   C6A 2524  15.830   7.630   8.181 -0.0487 -0.1408  0.0751
  158loPI   C1B 2525  16.087   6.933   9.771  0.0527 -0.2120  0.0606
  158loPI   C2B 2526  16.122   6.980   9.230 -0.2079  0.0049 -0.1599
  158loPI   C3B 2527  16.264   7.138   8.818 -0.0843 -0.0969 -0.2627
  158loPI   C4B 2528  16.161   7.303   8.480  0.0704  0.0962 -0.5452
  159loPI    C1 2529  15.743   9.748  11.041  0.0065 -0.0228  0.1011
  159loPI    C2 2530  15.902   9.430  10.857 -0.0823 -0.0546  0.0793
  159loPI    C3 2531  15.787   9.404  11.240  0.1031  0.0120  0.1405
  159loPI   PO4 2532  15.679   9.920  10.817 -0.1837 -0.1544  0.0579
  159loPI   GL1 2533  15.825  10.129  10.431  0.4518 -0.1222  0.0855
  159loPI   GL2 2534  16.127  10.058  10.516  0.1882  0.2048  0.3699
  159loPI   C1A 2535  15.887  10.169   9.972 -0.0686  0.1851 -0.1389
  159loPI   C2A 2536  15.834  10.199   9.521  0.0801 -0.0434 -0.1486
  159loPI   C3A 2537  15.868  10.153   9.021  0.1015  0.1043  0.1935
  159loPI   C4A 2538  15.843  10.261   8.543 -0.0516  0.1838 -0.0249
  159loPI   C5A 2539  16.141  10.476   8.278 -0.0578  0.0828 -0.2202
  159loPI   C6A 2540  16.362  10.538   7.984  0.0845 -0.1280  0.0391
  159loPI   C1B 2541  16.317   9.996  10.142  0.0768 -0.1432  0.1891
  159loPI   C2B 2542  16.303  10.021   9.665  0.2075  0.2264 -0.0925
  159loPI   C3B 2543  16.380   9.958   9.191  0.0245  0.0846 -0.2033
  159loPI   C4B 2544  16.193   9.949   8.689  0.1088  0.0441 -0.0910
  160loPI    C1 2545  15.227   4.588  11.267 -0.0725 -0.1063 -0.0678
  160loPI    C2 2546  14.889   4.714  11.439  0.0457  0.1466 -0.0170
  160loPI    C3 2547  15.220   4.667  11.659  0.0204 -0.1957 -0.0475
  160loPI   PO4 2548  15.226   4.772  11.017 -0.2713  0.2362  0.0566
  160loPI   GL1 2549  15.354   4.654  10.651 -0.2955 -0.1782  0.1970
  160loPI   GL2 2550  15.194   4.837  10.528  0.2739 -0.1474 -0.3103
  160loPI   C1A 2551  15.421   4.686  10.153 -0.1937 -0.0645 -0.0121
  160loPI   C2A 2552  15.481   4.838   9.763  0.1629  0.0061 -0.1955
  160loPI   C3A 2553  15.458   4.789   9.346  0.3625  0.0152  0.1109
  160loPI   C4A 2554  15.455   4.827   8.965  0.0496 -0.0687  0.0954
  160loPI   C5A 2555  15.410   4.933   8.539 -0.0073 -0.1636  0.0919
  160loPI   C6A 2556  15.043   5.185   8.261  0.1431  0.0488  0.1115
  160loPI   C1B 2557  15.073   5.016  10.097  0.2042 -0.3407  0.0049
  160loPI   C2B 2558  14.978   5.019   9.618 -0.0034  0.0408 -0.0583
  160loPI   C3B 2559  14.964   5.058   9.159  0.3384  0.1247  0.3678
  160loPI   C4B 2560  14.982   4.927   8.736 -0.0373 -0.0305 -0.2024
  161loPI    C1 2561  11.460   6.215  10.782 -0.0340  0.1842 -0.0156
  161loPI    C2 2562  11.296   6.553  10.921 -0.1435  0.1639 -0.0948
  161loPI    C3 2563  11.104   6.205  10.964 -0.2352  0.1736 -0.4003
  161loPI   PO4 2564  11.483   6.284  10.514  0.0735 -0.3188 -0.1706
  161loPI   GL1 2565  11.703   6.384  10.224  0.0469 -0.2689  0.2694
  161loPI   GL2 2566  11.630   6.082  10.075 -0.1371  0.5184  0.0112
  161loPI   C1A 2567  11.700   6.511   9.857  0.2072 -0.0059  0.1182
  161loPI   C2A 2568  11.640   6.509   9.354  0.1942  0.1472 -0.1323
  161loPI   C3A 2569  11.683   6.487   8.905  0.1448 -0.1591  0.0017
  161loPI   C4A 2570  11.767   6.610   8.475 -0.0502  0.1037  0.1390
  161loPI   C5A 2571  11.694   6.640   8.045  0.2372 -0.1721  0.1218
  161loPI   C6A 2572  11.723   6.743   7.613  0.0021  0.1512 -0.1737
  161loPI   C1B 2573  11.751   6.105   9.574  0.0111 -0.0856 -0.2906
  161loPI   C2B 2574  11.705   6.037   9.135  0.2350  0.1710 -0.2562
  161loPI   C3B 2575  11.712   5.960   8.642 -0.0182 -0.4467  0.0004
  161loPI   C4B 2576  11.620   5.889   8.120 -0.2668 -0.0622 -0.0078
  162loPI    C1 2577   1.840  10.788  11.467  0.1451  0.1299  0.1857
  162loPI    C2 2578   1.586  11.068  11.598 -0.1096 -0.0158  0.0127
  162loPI    C3 2579   1.609  10.716  11.786  0.1939  0.1091  0.2165
  162loPI   PO4 2580   1.948  10.822  11.144 -0.3127 -0.4515  0.4764
  162loPI   GL1 2581   1.946  10.763  10.823  0.0271  0.0473  0.1481
  162loPI   GL2 2582   1.866  10.926  10.633  0.0087 -0.0307  0.0226
  162loPI   C1A 2583   2.017  10.490  10.429  0.0225  0.0176 -0.2989
  162loPI   C2A 2584   2.023  10.356  10.037  0.2785  0.1455  0.2832
  162loPI   C3A 2585   2.016  10.372   9.510  0.2367 -0.0472 -0.0182
  162loPI   C4A 2586   2.005  10.459   9.130 -0.0067  0.2718 -0.0452
  162loPI   C5A 2587   1.975  10.383   8.759 -0.1110  0.0741 -0.2366
  162loPI   C6A 2588   1.794  10.386   8.398  0.0099 -0.0142  0.1454
  162loPI   C1B 2589   1.967  10.956  10.212  0.0192  0.1981  0.4377
  162loPI   C2B 2590   1.994  10.907   9.799  0.3048 -0.1906  0.1779
  162loPI   C3B 2591   1.909  10.899   9.298  0.0753  0.0266  0.0631
  162loPI   C4B 2592   1.956  10.932   8.876 -0.1367 -0.0753  0.0507
  163loPI    C1 2593  16.338   1.651  11.079  0.1041  0.0006 -0.1016
  163loPI    C2 2594  16.511   1.678  11.439  0.1711 -0.0024 -0.1334
  163loPI    C3 2595  16.191   1.443  11.388  0.0249  0.1694 -0.0241
  163loPI   PO4 2596  16.345   1.955  10.951  0.1779  0.1781 -0.1891
  163loPI   GL1 2597  16.215   2.017  10.537  0.0869  0.2222  0.0422
  163loPI   GL2 2598  16.130   2.073  10.239  0.0895  0.1304 -0.1470
  163loPI   C1A 2599  16.626   2.001  10.282  0.1485  0.2917  0.0410
  163loPI   C2A 2600  16.715   1.838   9.878  0.1593 -0.1067 -0.4149
  163loPI   C3A 2601  16.599   1.744   9.387 -0.3231  0.0150  0.0884
  163loPI   C4A 2602  16.564   1.775   8.941 -0.1246  0.0164  0.2012
  163loPI   C5A 2603  16.694   1.806   8.548 -0.3110 -0.1983  0.0812
  163loPI   C6A 2604  16.960   1.458   8.372 -0.0652  0.0662  0.4017
  163loPI   C1B 2605  16.257   2.028   9.804  0.3225  0.0955 -0.2585
  163loPI   C2B 2606  16.180   2.059   9.442  0.3723 -0.1207  0.0380
  163loPI   C3B 2607  16.142   2.041   8.953 -0.0146  0.0608  0.2546
  163loPI   C4B 2608  16.230   1.974   8.480  0.0790 -0.3088 -0.2893
  164loPI    C1 2609   8.341   5.987  10.796 -0.0832 -0.0192  0.0873
  164loPI    C2 2610   8.573   6.219  11.024  0.0229 -0.0399  0.0012
  164loPI    C3 2611   8.497   5.842  11.134 -0.0023 -0.0208  0.0493
  164loPI   PO4 2612   8.435   6.005  10.572  0.0980  0.1307  0.1584
  164loPI   GL1 2613   8.254   6.214  10.224 -0.0976 -0.0487  0.0596
  164loPI   GL2 2614   8.568   6.365  10.124  0.1551  0.0137 -0.2981
  164loPI   C1A 2615   8.256   6.029   9.873  0.0412 -0.0478  0.1688
  164loPI   C2A 2616   8.254   6.057   9.453 -0.0066  0.1297  0.3054
  164loPI   C3A 2617   8.227   6.094   8.976 -0.2024  0.2323 -0.1732
  164loPI   C4A 2618   8.167   6.028   8.548 -0.0235 -0.0950  0.0834
  164loPI   C5A 2619   8.169   6.221   8.092 -0.1593 -0.1796 -0.0021
  164loPI   C6A 2620   8.245   6.633   8.008  0.0212 -0.1999 -0.1070
  164loPI   C1B 2621   8.611   6.350   9.601  0.0443 -0.2275 -0.1165
  164loPI   C2B 2622   8.647   6.339   9.180 -0.0306 -0.2178 -0.1316
  164loPI   C3B 2623   8.643   6.305   8.746 -0.0702  0.1463 -0.0806
  164loPI   C4B 2624   8.549   6.318   8.376  0.0849 -0.3092 -0.1544
  165loPI    C1 2625   9.732   8.246  10.617 -0.4981 -0.2341  0.0629
  165loPI    C2 2626   9.756   7.928  10.859 -0.0984 -0.2308  0.0344
  165loPI    C3 2627   9.826   8.294  11.003 -0.2166 -0.1906 -0.0090
  165loPI   PO4 2628   9.476   8.165  10.459  0.1021  0.3125 -0.0896
  165loPI   GL1 2629   9.346   8.222  10.070  0.1055 -0.0427  0.2681
  165loPI   GL2 2630   9.385   7.946  10.019  0.1116 -0.2306  0.1145
  165loPI   C1A 2631   9.587   8.418   9.664 -0.0318 -0.0325 -0.2336
  165loPI   C2A 2632   9.645   8.365   9.300  0.0916 -0.2590 -0.2063
  165loPI   C3A 2633   9.898   8.228   9.023  0.1964  0.2863  0.2954
  165loPI   C4A 2634  10.028   8.076   8.565  0.1977  0.0675 -0.5433
  165loPI   C5A 2635  10.088   7.923   8.158  0.0241 -0.4245 -0.2003
  165loPI   C6A 2636  10.098   7.608   7.766 -0.1516 -0.0120 -0.0985
  165loPI   C1B 2637   9.423   7.990   9.552 -0.1704 -0.2196 -0.0226
  165loPI   C2B 2638   9.413   7.961   9.107  0.0064  0.1463 -0.2302
  165loPI   C3B 2639   9.570   7.871   8.661  0.1482 -0.1003  0.0891
  165loPI   C4B 2640   9.721   7.713   8.365  0.2301  0.5154  0.2418
  166loPI    C1 2641   6.113  14.251  11.134  0.1197 -0.1048 -0.0603
  166loPI    C2 2642   6.332  13.994  11.349  0.1984  0.0261  0.0172
  166loPI    C3 2643   6.001  14.154  11.506  0.1855  0.0227 -0.0063
  166loPI   PO4 2644   6.178  14.138  10.846 -0.1735 -0.0121 -0.1123
  166loPI   GL1 2645   6.056  13.960  10.413  0.0211  0.0097 -0.1751
  166loPI   GL2 2646   5.915  13.710  10.351 -0.1680 -0.0769 -0.3380
  166loPI   C1A 2647   5.705  14.033  10.049  0.1100  0.0887 -0.1853
  166loPI   C2A 2648   5.611  14.114   9.731  0.0869 -0.2628  0.1058
  166loPI   C3A 2649   5.778  14.152   9.284 -0.1554 -0.0812  0.0544
  166loPI   C4A 2650   5.585  14.105   8.892  0.1051  0.4653 -0.2778
  166loPI   C5A 2651   5.691  13.978   8.489  0.4338 -0.0539  0.3246
  166loPI   C6A 2652   6.013  14.095   8.128 -0.0201 -0.1335  0.0585
  166loPI   C1B 2653   5.796  13.563  10.058  0.3451 -0.1516 -0.1427
  166loPI   C2B 2654   5.784  13.565   9.641 -0.3218  0.2228  0.0197
  166loPI   C3B 2655   5.849  13.541   9.281 -0.0133  0.0359  0.1613
  166loPI   C4B 2656   5.768  13.570   8.825  0.1768  0.2720  0.1021
  167loPI    C1 2657  12.322  13.825  11.257  0.1640  0.2431 -0.2197
  167loPI    C2 2658  12.107  13.788  11.592  0.1890  0.3214 -0.1948
  167loPI    C3 2659  12.494  13.888  11.613  0.3060 -0.1029 -0.2226
  167loPI   PO4 2660  12.364  13.556  11.173  0.1855  0.0398  0.0396
  167loPI   GL1 2661  12.615  13.546  10.888 -0.1613 -0.0329  0.3310
  167loPI   GL2 2662  12.882  13.444  10.889 -0.0017  0.1300 -0.0385
  167loPI   C1A 2663  12.634  13.674  10.404  0.0150  0.2878  0.1858
  167loPI   C2A 2664  12.598  13.772  10.066  0.2659 -0.0527  0.1442
  167loPI   C3A 2665  12.621  13.772   9.646  0.0731 -0.0367  0.3233
  167loPI   C4A 2666  12.589  13.747   9.225  0.1505 -0.1290  0.0664
  167loPI   C5A 2667  12.623  13.817   8.861  0.1700 -0.2634  0.1652
  167loPI   C6A 2668  12.406  13.654   8.576 -0.0635 -0.4391  0.0059
  167loPI   C1B 2669  13.039  13.410  10.518  0.0825 -0.1401  0.1019
  167loPI   C2B 2670  13.058  13.590  10.015  0.1230 -0.1991 -0.2247
  167loPI   C3B 2671  13.058  13.604   9.558  0.3124  0.2206 -0.3180
  167loPI   C4B 2672  13.058  13.670   9.112 -0.2220  0.0823 -0.0249
  168loPI    C1 2673  15.292   5.329  11.069 -0.3101 -0.0654 -0.2470
  168loPI    C2 2674  15.377   5.070  11.362 -0.0921  0.0030 -0.2485
  168loPI    C3 2675  15.000   5.188  11.304 -0.1808 -0.2451 -0.1913
  168loPI   PO4 2676  15.393   5.307  10.885 -0.0971 -0.3860  0.1967
  168loPI   GL1 2677  15.350   5.322  10.508  0.1753 -0.3174  0.1223
  168loPI   GL2 2678  15.660   5.166  10.491 -0.1848 -0.0041  0.0805
  168loPI   C1A 2679  15.399   5.371  10.121 -0.2652 -0.0595  0.1389
  168loPI   C2A 2680  15.420   5.302   9.758  0.3176  0.1151 -0.0266
  168loPI   C3A 2681  15.468   5.324   9.416 -0.1223  0.1840 -0.0791
  168loPI   C4A 2682  15.415   5.302   8.992  0.0184 -0.0202  0.1681
  168loPI   C5A 2683  15.466   5.442   8.604  0.1902 -0.0234  0.4616
  168loPI   C6A 2684  15.431   5.472   8.180  0.0217  0.1941  0.2451
  168loPI   C1B 2685  15.787   5.039  10.114  0.1334 -0.0977 -0.0525
  168loPI   C2B 2686  15.922   5.185   9.715 -0.0671 -0.0954  0.0243
  168loPI   C3B 2687  15.894   5.173   9.248 -0.1873 -0.2698 -0.0524
  168loPI   C4B 2688  15.868   5.099   8.844  0.0795  0.0435 -0.0654
  169loPI    C1 2689   7.320   5.748  10.878  0.0408  0.1514  0.0352
  169loPI    C2 2690   7.394   5.880  11.248  0.1818  0.2899 -0.0410
  169loPI    C3 2691   7.641   5.617  11.076  0.1610  0.2876 -0.0675
  169loPI   PO4 2692   7.240   6.015  10.788 -0.1383 -0.1171 -0.0260
  169loPI   GL1 2693   7.152   5.981  10.347 -0.2050  0.1019 -0.1875
  169loPI   GL2 2694   7.090   5.632  10.426  0.0641  0.0111  0.0405
  169loPI   C1A 2695   6.974   6.137   9.978  0.1897 -0.1847 -0.0477
  169loPI   C2A 2696   6.900   6.110   9.576  0.1467  0.0261 -0.3022
  169loPI   C3A 2697   6.907   6.054   9.217 -0.0352 -0.2272 -0.1235
  169loPI   C4A 2698   6.924   6.040   8.785  0.1381  0.1255 -0.2483
  169loPI   C5A 2699   6.733   6.177   8.411 -0.0627  0.1172  0.0101
  169loPI   C6A 2700   6.556   6.341   8.032  0.1882  0.2522 -0.0914
  169loPI   C1B 2701   6.980   5.572   9.919 -0.3812 -0.2316  0.3723
  169loPI   C2B 2702   6.975   5.631   9.470 -0.1604 -0.3951  0.1457
  169loPI   C3B 2703   6.971   5.608   9.063 -0.0112  0.2127 -0.0690
  169loPI   C4B 2704   6.941   5.562   8.606 -0.1330  0.0283  0.1166
  170loPI    C1 2705  14.467   3.416  11.051  0.1455  0.0487  0.0573
  170loPI    C2 2706  14.755   3.436  11.328  0.1333 -0.0073  0.0741
  170loPI    C3 2707  14.541   3.101  11.285 -0.0778  0.1078  0.2110
  170loPI   PO4 2708  14.560   3.581  10.798 -0.3044  0.2705 -0.2698
  170loPI   GL1 2709  14.695   3.298  10.493  0.0100 -0.0220  0.2923
  170loPI   GL2 2710  14.754   3.636  10.340 -0.5913 -0.0046  0.1121
  170loPI   C1A 2711  14.790   3.158  10.130 -0.1597  0.0407  0.0716
  170loPI   C2A 2712  14.774   3.176   9.667  0.1332  0.0504 -0.0945
  170loPI   C3A 2713  14.699   3.125   9.219 -0.0197 -0.0292  0.1840
  170loPI   C4A 2714  14.712   3.220   8.816  0.1403 -0.0466  0.0812
  170loPI   C5A 2715  14.558   3.297   8.408  0.2140 -0.1538  0.0777
  170loPI   C6A 2716  14.604   2.836   8.211 -0.2620 -0.3338  0.2580
  170loPI   C1B 2717  14.729   3.677   9.921 -0.0952 -0.2666 -0.0666
  170loPI   C2B 2718  14.719   3.794   9.486 -0.3130  0.1430  0.0443
  170loPI   C3B 2719  14.668   3.773   9.000 -0.0550  0.1653 -0.1757
  170loPI   C4B 2720  14.671   3.842   8.543  0.2239 -0.0455  0.0373
  171loPI    C1 2721   8.849  15.115  10.967 -0.0502  0.3766  0.0521
  171loPI    C2 2722   8.566  15.059  11.244 -0.1386  0.0503 -0.0990
  171loPI    C3 2723   8.887  14.820  11.234 -0.0081  0.2244 -0.1197
  171loPI   PO4 2724   8.663  15.098  10.703 -0.3103 -0.1298  0.4752
  171loPI   GL1 2725   8.765  15.234  10.311  0.0112 -0.2566 -0.0832
  171loPI   GL2 2726   8.577  15.612  10.362 -0.0237 -0.2005 -0.1979
  171loPI   C1A 2727   8.727  15.312   9.936  0.2691  0.3572 -0.1696
  171loPI   C2A 2728   8.786  15.333   9.640  0.1081 -0.3247 -0.2024
  171loPI   C3A 2729   8.783  15.294   9.287 -0.1237  0.3618  0.0609
  171loPI   C4A 2730   8.833  15.326   8.805 -0.0701 -0.3485  0.0686
  171loPI   C5A 2731   8.876  15.407   8.382 -0.1819  0.0734 -0.1387
  171loPI   C6A 2732   8.756  15.704   8.073  0.1712 -0.3011 -0.1097
  171loPI   C1B 2733   8.745  15.786  10.045 -0.0441 -0.2064 -0.1003
  171loPI   C2B 2734   8.730  15.831   9.563  0.1545  0.3056  0.2022
  171loPI   C3B 2735   8.675  15.834   9.139  0.2839  0.0284  0.0956
  171loPI   C4B 2736   8.675  15.973   8.769  0.1235  0.0517 -0.0862
  172loPI    C1 2737  12.322   3.447  11.018  0.0542 -0.1215 -0.0451
  172loPI    C2 2738  12.695   3.360  11.134  0.1179  0.0432 -0.1227
  172loPI    C3 2739  12.472   3.612  11.350  0.1138  0.0811 -0.1712
  172loPI   PO4 2740  12.325   3.420  10.767  0.0684 -0.0957  0.0639
  172loPI   GL1 2741  12.550   3.536  10.411 -0.0210  0.0629  0.2856
  172loPI   GL2 2742  12.463   3.753  10.114 -0.0832 -0.0493  0.4433
  172loPI   C1A 2743  12.615   3.272  10.049 -0.1879  0.1221 -0.0724
  172loPI   C2A 2744  12.547   3.264   9.677  0.0962  0.1793 -0.0473
  172loPI   C3A 2745  12.510   3.182   9.285  0.1872 -0.3886 -0.0206
  172loPI   C4A 2746  12.598   3.168   8.783  0.0372 -0.1516 -0.2754
  172loPI   C5A 2747  12.414   3.311   8.387  0.2502 -0.2464  0.0038
  172loPI   C6A 2748  12.542   3.465   8.144 -0.3063  0.2751  0.0599
  172loPI   C1B 2749  12.487   3.763   9.672  0.0353 -0.4277  0.1624
  172loPI   C2B 2750  12.472   3.688   9.300 -0.0204 -0.0571 -0.3057
  172loPI   C3B 2751  12.500   3.670   8.847  0.0234 -0.0382 -0.3362
  172loPI   C4B 2752  12.500   3.851   8.455 -0.0764 -0.0226 -0.2350
  173loPI    C1 2753   4.143  17.357  11.282 -0.0145  0.2066 -0.0703
  173loPI    C2 2754   4.540  17.405  11.276  0.0533 -0.2797  0.1142
  173loPI    C3 2755   4.331  17.508  11.601  0.0266 -0.0352  0.0215
  173loPI   PO4 2756   4.089  17.425  11.030  0.1294  0.1097  0.1137
  173loPI   GL1 2757   4.038  17.369  10.685  0.1135  0.0840  0.0823
  173loPI   GL2 2758   4.316  17.283  10.491 -0.0245 -0.1116 -0.0845
  173loPI   C1A 2759   3.836  17.376  10.244 -0.0308  0.1338  0.1003
  173loPI   C2A 2760   3.964  17.299   9.753 -0.3151  0.0599 -0.2319
  173loPI   C3A 2761   3.961  17.308   9.295  0.1626 -0.0427  0.0453
  173loPI   C4A 2762   4.036  17.379   8.735  0.1469 -0.1789  0.1914
  173loPI   C5A 2763   4.265  17.521   8.305 -0.1093 -0.0555  0.0752
  173loPI   C6A 2764   4.498  17.585   8.004  0.0308  0.0232 -0.2477
  173loPI   C1B 2765   4.306  17.163  10.155 -0.0198  0.1955 -0.1218
  173loPI   C2B 2766   4.451  17.086   9.712 -0.2209  0.1761 -0.1138
  173loPI   C3B 2767   4.451  17.198   9.212  0.2531  0.0295 -0.0155
  173loPI   C4B 2768   4.581  17.109   8.810  0.1901 -0.1391 -0.0607
  174loPI    C1 2769   6.003   4.401  11.079 -0.0287  0.0236 -0.0723
  174loPI    C2 2770   6.175   4.130  11.316 -0.0994  0.1147  0.0847
  174loPI    C3 2771   5.952   4.422  11.475 -0.2283  0.1192 -0.1016
  174loPI   PO4 2772   5.870   4.305  10.864 -0.1516 -0.0447 -0.2403
  174loPI   GL1 2773   5.789   4.320  10.484  0.0316  0.2316  0.0913
  174loPI   GL2 2774   5.716   4.694  10.377 -0.1528  0.1112 -0.0063
  174loPI   C1A 2775   5.839   4.200  10.049 -0.0827  0.0507  0.2937
  174loPI   C2A 2776   5.819   4.143   9.616  0.0098 -0.0158 -0.4060
  174loPI   C3A 2777   5.683   4.154   9.234  0.0112  0.0692 -0.1045
  174loPI   C4A 2778   5.659   4.111   8.739  0.3388  0.2531  0.1175
  174loPI   C5A 2779   5.822   4.157   8.420 -0.0154  0.1264 -0.0254
  174loPI   C6A 2780   6.322   4.154   8.354  0.1521 -0.2309  0.2080
  174loPI   C1B 2781   5.739   4.746   9.923  0.1638  0.1095 -0.0276
  174loPI   C2B 2782   5.715   4.705   9.458  0.2542  0.0381 -0.2545
  174loPI   C3B 2783   5.681   4.622   9.051  0.0045  0.0752 -0.4901
  174loPI   C4B 2784   5.698   4.679   8.568 -0.2060  0.0666 -0.5388
  175loPI    C1 2785   5.789   1.773  11.031 -0.1578 -0.0258  0.0535
  175loPI    C2 2786   5.457   1.945  10.890 -0.1598 -0.1093 -0.0446
  175loPI    C3 2787   5.480   1.845  11.276 -0.1719  0.0779  0.0058
  175loPI   PO4 2788   5.998   1.912  10.910 -0.2054 -0.1900  0.1169
  175loPI   GL1 2789   5.967   2.097  10.452  0.0144  0.2825 -0.1450
  175loPI   GL2 2790   6.266   1.878  10.464  0.2659  0.1673 -0.3931
  175loPI   C1A 2791   5.976   2.114   9.981 -0.2915  0.1318  0.1136
  175loPI   C2A 2792   5.936   2.065   9.573 -0.1186  0.1511 -0.0996
  175loPI   C3A 2793   5.975   2.021   9.124 -0.3792  0.1020 -0.3560
  175loPI   C4A 2794   5.975   2.080   8.740 -0.1158  0.0380  0.0958
  175loPI   C5A 2795   5.664   1.950   8.376 -0.0132 -0.0468  0.0259
  175loPI   C6A 2796   5.141   1.963   8.233  0.2195  0.0663 -0.4991
  175loPI   C1B 2797   6.447   1.879  10.050  0.0997  0.2411  0.0605
  175loPI   C2B 2798   6.390   1.865   9.553 -0.1411 -0.2106  0.0101
  175loPI   C3B 2799   6.445   1.860   9.078 -0.0644 -0.1135 -0.0249
  175loPI   C4B 2800   6.414   1.814   8.643  0.0673  0.0031  0.2504
  176loPI    C1 2801   4.639   5.606  11.403  0.0694 -0.1456 -0.2488
  176loPI    C2 2802   4.357   5.347  11.519  0.0366  0.0624  0.1544
  176loPI    C3 2803   4.726   5.321  11.670  0.0838  0.1350  0.0529
  176loPI   PO4 2804   4.651   5.584  11.105  0.0599  0.1265  0.1967
  176loPI   GL1 2805   4.388   5.665  10.701  0.1835  0.1352 -0.2684
  176loPI   GL2 2806   4.656   5.514  10.518 -0.0047  0.1659  0.0549
  176loPI   C1A 2807   4.276   5.951  10.414  0.2554  0.3227  0.0709
  176loPI   C2A 2808   4.221   5.942   9.952 -0.0093 -0.0853 -0.0400
  176loPI   C3A 2809   4.194   5.892   9.559 -0.0715 -0.1044  0.5477
  176loPI   C4A 2810   4.268   5.753   9.160  0.0024  0.2309  0.0386
  176loPI   C5A 2811   4.275   5.815   8.661  0.0190 -0.0214  0.0567
  176loPI   C6A 2812   4.270   5.490   8.369 -0.0056  0.1144  0.1871
  176loPI   C1B 2813   4.716   5.733  10.144 -0.1151 -0.1120  0.1960
  176loPI   C2B 2814   4.634   5.680   9.740 -0.0710  0.0473  0.1989
  176loPI   C3B 2815   4.706   5.691   9.354  0.1118  0.1667  0.1350
  176loPI   C4B 2816   4.666   5.589   8.909 -0.0771  0.0040  0.1864
  177loPI    C1 2817  17.117   6.416  10.997  0.1935 -0.1592 -0.3121
  177loPI    C2 2818  17.424   6.673  11.002 -0.1196  0.2226 -0.2382
  177loPI    C3 2819  17.178   6.649  11.317 -0.1152 -0.1480 -0.2591
  177loPI   PO4 2820  16.971   6.413  10.778  0.0155 -0.3171  0.1723
  177loPI   GL1 2821  17.042   6.327  10.394  0.1872  0.0456  0.1849
  177loPI   GL2 2822  17.100   6.110  10.330 -0.3645  0.3334 -0.2071
  177loPI   C1A 2823  16.697   6.236   9.967  0.0914 -0.2245  0.3128
  177loPI   C2A 2824  16.642   6.195   9.559 -0.2484  0.0472  0.0062
  177loPI   C3A 2825  16.631   6.263   9.113  0.1017  0.0725  0.2326
  177loPI   C4A 2826  16.754   6.357   8.704  0.3014 -0.2473  0.2541
  177loPI   C5A 2827  16.870   6.383   8.345 -0.1769  0.0071 -0.2328
  177loPI   C6A 2828  17.144   6.550   8.025  0.0699  0.2686  0.0549
  177loPI   C1B 2829  17.161   6.112   9.893 -0.1768 -0.0584 -0.1485
  177loPI   C2B 2830  17.112   6.032   9.498  0.1011  0.0584  0.0319
  177loPI   C3B 2831  17.169   6.099   9.039  0.0025  0.0246 -0.3092
  177loPI   C4B 2832  17.206   6.193   8.638 -0.3124 -0.1766 -0.1932
  178loPI    C1 2833  10.762  11.193  10.883  0.0362  0.0257 -0.1052
  178loPI    C2 2834  10.971  11.415  11.141  0.0104 -0.0406 -0.0269
  178loPI    C3 2835  10.784  11.085  11.267  0.0116 -0.0824 -0.1338
  178loPI   PO4 2836  10.758  11.310  10.616 -0.3471 -0.1560  0.1208
  178loPI   GL1 2837  10.923  11.257  10.280  0.1699  0.0884  0.1879
  178loPI   GL2 2838  11.275  11.386  10.150  0.2650 -0.0824  0.1997
  178loPI   C1A 2839  10.822  11.146   9.995  0.1676 -0.0803  0.0226
  178loPI   C2A 2840  10.681  11.039   9.632 -0.0876  0.1443  0.1331
  178loPI   C3A 2841  10.671  11.178   9.310  0.0927  0.0539 -0.2602
  178loPI   C4A 2842  10.582  11.317   8.954 -0.0356  0.5057 -0.0054
  178loPI   C5A 2843  10.538  11.439   8.507 -0.0580  0.0612  0.1128
  178loPI   C6A 2844  10.896  11.721   8.380  0.2331 -0.0380 -0.0901
  178loPI   C1B 2845  11.221  11.374   9.659  0.0267 -0.1392  0.0777
  178loPI   C2B 2846  11.104  11.444   9.259 -0.1510  0.2172 -0.2059
  178loPI   C3B 2847  11.038  11.569   8.819  0.5257  0.0881  0.3265
  178loPI   C4B 2848  11.356  11.690   8.456 -0.1816 -0.1473 -0.3148
  179loPI    C1 2849  16.007   5.352  11.023 -0.1910 -0.1123  0.0383
  179loPI    C2 2850  15.721   5.495  11.262 -0.0568  0.0862  0.0825
  179loPI    C3 2851  15.858   5.124  11.315 -0.1553  0.0655  0.1973
  179loPI   PO4 2852  15.922   5.486  10.761  0.0568  0.4817 -0.0757
  179loPI   GL1 2853  15.804   5.669  10.327 -0.0327  0.0528  0.1459
  179loPI   GL2 2854  16.099   5.900  10.318  0.1268 -0.1190  0.1356
  179loPI   C1A 2855  15.810   5.620   9.903 -0.0004  0.0143  0.2707
  179loPI   C2A 2856  15.806   5.667   9.499 -0.0593  0.1399  0.0171
  179loPI   C3A 2857  15.832   5.619   8.976  0.1427 -0.2693  0.3371
  179loPI   C4A 2858  15.926   5.634   8.478  0.3278  0.2266 -0.1775
  179loPI   C5A 2859  16.217   5.761   8.191 -0.1684  0.0697 -0.1643
  179loPI   C6A 2860  16.453   6.090   8.089 -0.0962 -0.1161  0.1866
  179loPI   C1B 2861  16.210   5.996   9.962  0.1019  0.0965  0.1863
  179loPI   C2B 2862  16.257   5.946   9.521 -0.3196  0.0259  0.0663
  179loPI   C3B 2863  16.209   6.013   9.076 -0.2225 -0.2845 -0.0688
  179loPI   C4B 2864  16.259   5.901   8.734 -0.3189 -0.0587 -0.1122
  180loPI    C1 2865  12.592  11.718  11.185 -0.1582  0.0809 -0.2048
  180loPI    C2 2866  12.583  12.101  11.300  0.0447  0.0259  0.0009
  180loPI    C3 2867  12.381  11.825  11.508  0.0248 -0.0021 -0.0559
  180loPI   PO4 2868  12.519  11.779  10.904 -0.1297 -0.0739  0.0052
  180loPI   GL1 2869  12.494  11.710  10.392  0.2798  0.1512  0.0944
  180loPI   GL2 2870  12.141  11.762  10.602 -0.1674  0.0831  0.0002
  180loPI   C1A 2871  12.454  11.852   9.956 -0.1222 -0.0959  0.0052
  180loPI   C2A 2872  12.418  11.944   9.567  0.1503  0.1303  0.1125
  180loPI   C3A 2873  12.461  12.003   9.145 -0.0343  0.1432 -0.1038
  180loPI   C4A 2874  12.405  11.981   8.755 -0.0803  0.0255 -0.0511
  180loPI   C5A 2875  12.302  11.902   8.365  0.0008 -0.1087 -0.1186
  180loPI   C6A 2876  12.100  11.836   8.066  0.3756 -0.1085 -0.2475
  180loPI   C1B 2877  12.011  11.986  10.332 -0.0026  0.1079 -0.2791
  180loPI   C2B 2878  11.978  11.970   9.890 -0.2926 -0.1171  0.0893
  180loPI   C3B 2879  11.910  12.165   9.502  0.4551 -0.0449  0.1831
  180loPI   C4B 2880  11.957  12.154   9.027 -0.3604  0.1814 -0.2234
  181loPI    C1 2881   3.174   7.540  11.111  0.0402  0.0613  0.0694
  181loPI    C2 2882   3.246   7.747  11.446 -0.1633  0.1701  0.0473
  181loPI    C3 2883   3.256   7.347  11.452  0.0621  0.1756  0.1291
  181loPI   PO4 2884   2.957   7.735  10.954 -0.1003  0.0056 -0.0840
  181loPI   GL1 2885   2.740   7.716  10.600  0.0850 -0.1678  0.0461
  181loPI   GL2 2886   3.043   7.854  10.443  0.1812  0.0163 -0.1288
  181loPI   C1A 2887   2.690   7.567  10.117  0.0972  0.1064  0.1048
  181loPI   C2A 2888   2.782   7.532   9.654 -0.1815 -0.0663  0.2315
  181loPI   C3A 2889   2.753   7.555   9.241  0.1223 -0.1425  0.0901
  181loPI   C4A 2890   2.913   7.556   8.865  0.1972  0.1333 -0.1606
  181loPI   C5A 2891   3.102   7.379   8.539  0.1787 -0.0352  0.1215
  181loPI   C6A 2892   3.487   7.232   8.479  0.0228  0.0068 -0.0529
  181loPI   C1B 2893   3.092   7.880  10.073  0.1863 -0.0664  0.0296
  181loPI   C2B 2894   3.167   7.869   9.589 -0.0708 -0.2936 -0.1626
  181loPI   C3B 2895   3.195   7.855   9.069  0.3477  0.1428 -0.1163
  181loPI   C4B 2896   3.289   7.855   8.674 -0.3125 -0.0842 -0.3335
  182loPI    C1 2897   4.081  13.244  11.348  0.1511 -0.0051 -0.0999
  182loPI    C2 2898   4.231  13.359  11.701 -0.0384  0.1484 -0.0669
  182loPI    C3 2899   4.092  12.987  11.654 -0.0472  0.1391  0.0314
  182loPI   PO4 2900   4.145  13.453  11.183 -0.2183 -0.1546 -0.1036
  182loPI   GL1 2901   4.445  13.539  10.803  0.0995 -0.2124 -0.0225
  182loPI   GL2 2902   4.180  13.736  10.771  0.1015 -0.1713 -0.1216
  182loPI   C1A 2903   4.496  13.254  10.340  0.1916 -0.4655 -0.1781
  182loPI   C2A 2904   4.459  13.223   9.884  0.2196  0.1844 -0.1068
  182loPI   C3A 2905   4.449  13.194   9.404  0.0105  0.2396 -0.2088
  182loPI   C4A 2906   4.470  13.158   9.005 -0.1341 -0.2634  0.0438
  182loPI   C5A 2907   4.672  12.927   8.606  0.2503  0.0047 -0.1687
  182loPI   C6A 2908   4.802  13.143   8.219  0.0218 -0.0245  0.1390
  182loPI   C1B 2909   4.351  13.783  10.326 -0.1246 -0.0314  0.2879
  182loPI   C2B 2910   4.440  13.764   9.894 -0.1472  0.1802 -0.0533
  182loPI   C3B 2911   4.379  13.694   9.507 -0.1626  0.1062  0.3571
  182loPI   C4B 2912   4.301  13.647   9.086 -0.2660 -0.0578 -0.1495
  183loPI    C1 2913   2.204   4.518  11.076  0.0901  0.3086  0.2920
  183loPI    C2 2914   1.897   4.352  11.271 -0.1067  0.2505 -0.0593
  183loPI    C3 2915   2.268   4.312  11.413 -0.2337  0.1292  0.2484
  183loPI   PO4 2916   2.230   4.525  10.912  0.0790 -0.0413  0.2674
  183loPI   GL1 2917   2.472   4.465  10.512  0.0917  0.2008  0.1950
  183loPI   GL2 2918   2.247   4.237  10.495 -0.0372 -0.3364  0.1039
  183loPI   C1A 2919   2.689   4.620  10.163  0.1667  0.1009  0.2547
  183loPI   C2A 2920   2.516   4.566   9.792 -0.0555 -0.1404 -0.1795
  183loPI   C3A 2921   2.570   4.559   9.356  0.2867  0.3075 -0.0463
  183loPI   C4A 2922   2.464   4.545   8.984 -0.0378 -0.2512 -0.0423
  183loPI   C5A 2923   2.441   4.509   8.510 -0.1176 -0.1352 -0.2355
  183loPI   C6A 2924   2.169   4.510   8.158 -0.1422 -0.1293 -0.5713
  183loPI   C1B 2925   2.146   4.279   9.983  0.2202 -0.1927 -0.0089
  183loPI   C2B 2926   2.055   4.389   9.478  0.2136 -0.1329 -0.1761
  183loPI   C3B 2927   2.126   4.175   9.152 -0.2427 -0.1402  0.2789
  183loPI   C4B 2928   2.148   4.227   8.735 -0.1361 -0.1860  0.1822
  184loPI    C1 2929  14.909  10.397  11.003  0.1969 -0.1336  0.0300
  184loPI    C2 2930  15.190  10.647  11.140  0.1589 -0.0786  0.0081
  184loPI    C3 2931  14.828  10.640  11.310  0.0697  0.0826 -0.1712
  184loPI   PO4 2932  14.979  10.382  10.748  0.0351 -0.0052  0.3653
  184loPI   GL1 2933  14.765  10.348  10.328  0.0333  0.1144 -0.0015
  184loPI   GL2 2934  14.864  10.690  10.310  0.2063  0.0049 -0.0407
  184loPI   C1A 2935  14.775  10.051   9.998  0.0935 -0.2419 -0.1441
  184loPI   C2A 2936  14.800  10.013   9.602  0.0270  0.2428  0.3383
  184loPI   C3A 2937  14.822   9.869   9.203  0.1208  0.1482 -0.0902
  184loPI   C4A 2938  14.909   9.987   8.907 -0.2893 -0.2640 -0.0387
  184loPI   C5A 2939  15.023  10.109   8.541 -0.1769  0.0517  0.2825
  184loPI   C6A 2940  15.343  10.355   8.403 -0.4105  0.0314 -0.0048
  184loPI   C1B 2941  14.883  10.585   9.890  0.0488  0.1095 -0.2054
  184loPI   C2B 2942  14.830  10.543   9.485  0.0681  0.1915  0.3110
  184loPI   C3B 2943  14.889  10.500   9.061  0.1289 -0.0968 -0.0410
  184loPI   C4B 2944  14.915  10.588   8.666  0.0610  0.2848  0.0265
  185loPI    C1 2945  10.179   3.136  11.129 -0.1372 -0.0598 -0.0027
  185loPI    C2 2946  10.284   2.789  11.299  0.3551  0.0282 -0.1112
  185loPI    C3 2947  10.270   3.123  11.518  0.1699 -0.0047 -0.0705
  185loPI   PO4 2948  10.314   3.123  10.944  0.1479  0.0137  0.0736
  185loPI   GL1 2949  10.465   3.179  10.564  0.1142  0.0093  0.0793
  185loPI   GL2 2950  10.720   3.357  10.312  0.3181 -0.1578  0.3217
  185loPI   C1A 2951  10.459   2.880  10.135 -0.2447  0.0623  0.1040
  185loPI   C2A 2952  10.362   2.633   9.856 -0.2407  0.1373 -0.2460
  185loPI   C3A 2953  10.281   2.574   9.518  0.1969 -0.0289  0.1311
  185loPI   C4A 2954  10.449   2.594   9.090  0.0356 -0.1964  0.1021
  185loPI   C5A 2955  10.386   2.693   8.644 -0.1142  0.1550 -0.1665
  185loPI   C6A 2956  10.394   2.705   8.211 -0.0763 -0.0379  0.2271
  185loPI   C1B 2957  10.718   3.490   9.938  0.0669  0.4377 -0.0131
  185loPI   C2B 2958  10.749   3.406   9.465  0.0558  0.0532  0.0612
  185loPI   C3B 2959  10.795   3.474   9.038 -0.2257  0.4775 -0.1590
  185loPI   C4B 2960  10.750   3.489   8.631 -0.1341  0.0965  0.0081
  186loPI    C1 2961   1.795   1.932  11.016 -0.1076 -0.0261 -0.0047
  186loPI    C2 2962   1.600   1.593  10.934 -0.0308 -0.1102  0.1557
  186loPI    C3 2963   1.467   1.835  11.223 -0.1593  0.0620 -0.0447
  186loPI   PO4 2964   1.915   1.939  10.728 -0.2169 -0.0688  0.2478
  186loPI   GL1 2965   2.038   1.921  10.316 -0.1007  0.0167  0.2080
  186loPI   GL2 2966   1.791   1.981  10.185 -0.1698  0.0774  0.0506
  186loPI   C1A 2967   1.919   1.477   9.901 -0.2492 -0.0366  0.1856
  186loPI   C2A 2968   1.973   1.331   9.546  0.0437 -0.2559  0.1981
  186loPI   C3A 2969   1.955   1.256   9.117  0.4490 -0.2408 -0.1124
  186loPI   C4A 2970   1.926   1.285   8.732  0.1161 -0.3530  0.0881
  186loPI   C5A 2971   2.021   1.295   8.237  0.0102 -0.2049 -0.3304
  186loPI   C6A 2972   1.866   0.919   7.914  0.0004  0.1710 -0.2142
  186loPI   C1B 2973   1.884   1.963   9.786 -0.0405 -0.1322 -0.0441
  186loPI   C2B 2974   1.903   1.829   9.312  0.1541  0.0358 -0.0289
  186loPI   C3B 2975   1.953   1.732   8.879 -0.4037  0.1413  0.2170
  186loPI   C4B 2976   1.911   1.951   8.474 -0.0127  0.3198  0.1093
  187loPI    C1 2977  15.209  14.746  11.055 -0.2237  0.0402 -0.1656
  187loPI    C2 2978  15.291  15.134  11.008 -0.0069  0.0220  0.0427
  187loPI    C3 2979  15.112  15.007  11.342  0.0190 -0.0711  0.0214
  187loPI   PO4 2980  15.194  14.639  10.831 -0.0869  0.0048 -0.0960
  187loPI   GL1 2981  14.990  14.299  10.637 -0.0105 -0.2017  0.0049
  187loPI   GL2 2982  15.240  14.226  10.549  0.1780  0.0877  0.1125
  187loPI   C1A 2983  14.738  14.392  10.412 -0.1026 -0.1584  0.2635
  187loPI   C2A 2984  14.827  14.416   9.948  0.1024 -0.2772 -0.3221
  187loPI   C3A 2985  14.810  14.356   9.579  0.0633 -0.3230  0.3097
  187loPI   C4A 2986  14.862  14.358   9.202  0.1156 -0.1006  0.1692
  187loPI   C5A 2987  14.828  14.376   8.770  0.1932  0.1867 -0.1835
  187loPI   C6A 2988  15.062  14.426   8.383 -0.4081 -0.1524  0.3429
  187loPI   C1B 2989  15.302  14.217  10.204 -0.2468 -0.2737 -0.0233
  187loPI   C2B 2990  15.270  14.207   9.812  0.1424  0.0948  0.1222
  187loPI   C3B 2991  15.388  14.211   9.322 -0.2081  0.2176 -0.0677
  187loPI   C4B 2992  15.281  14.276   8.860 -0.4719  0.0368  0.0138
  188loPI    C1 2993   6.956   7.606  11.170 -0.1109 -0.0063 -0.0021
  188loPI    C2 2994   7.233   7.368  11.334 -0.0032  0.1186 -0.0013
  188loPI    C3 2995   6.912   7.476  11.546 -0.2339 -0.3113 -0.1183
  188loPI   PO4 2996   6.935   7.507  10.906 -0.2024 -0.0531 -0.0443
  188loPI   GL1 2997   6.573   7.643  10.594 -0.2825 -0.1238 -0.1594
  188loPI   GL2 2998   6.926   7.910  10.584  0.2490  0.3160 -0.1654
  188loPI   C1A 2999   6.339   7.567  10.225 -0.3394  0.4170  0.3261
  188loPI   C2A 3000   6.361   7.418   9.832 -0.0330  0.1708 -0.4515
  188loPI   C3A 3001   6.385   7.440   9.428 -0.0223  0.0878  0.2262
  188loPI   C4A 3002   6.262   7.374   9.060  0.4242  0.0876 -0.1206
  188loPI   C5A 3003   6.427   7.313   8.621 -0.1124  0.0340 -0.1355
  188loPI   C6A 3004   6.518   6.928   8.424 -0.2418  0.5621 -0.1692
  188loPI   C1B 3005   6.776   7.752  10.158  0.0855 -0.1037 -0.4593
  188loPI   C2B 3006   6.743   7.765   9.717 -0.1020  0.0179  0.0374
  188loPI   C3B 3007   6.780   7.746   9.278 -0.0119 -0.2046 -0.0413
  188loPI   C4B 3008   6.728   7.643   8.883  0.1840  0.0961  0.0861
  189loPI    C1 3009  16.133  11.807  11.326 -0.1432 -0.2817  0.0124
  189loPI    C2 3010  15.785  11.861  11.515 -0.1218  0.0905 -0.0478
  189loPI    C3 3011  16.128  11.890  11.717 -0.1247 -0.4347  0.0458
  189loPI   PO4 3012  16.017  11.628  11.117 -0.1560  0.0987  0.1923
  189loPI   GL1 3013  15.930  11.614  10.700 -0.0334 -0.0483 -0.0426
  189loPI   GL2 3014  16.132  11.364  10.677  0.0682 -0.0854 -0.0915
  189loPI   C1A 3015  15.710  11.583  10.363 -0.0838  0.0170 -0.1848
  189loPI   C2A 3016  15.684  11.726   9.928 -0.1205 -0.0268 -0.1660
  189loPI   C3A 3017  15.618  11.743   9.475  0.0017  0.1835 -0.1354
  189loPI   C4A 3018  15.609  11.710   9.044  0.3328  0.0936 -0.1308
  189loPI   C5A 3019  15.611  11.696   8.649  0.0599 -0.0637 -0.2114
  189loPI   C6A 3020  15.650  11.522   8.268  0.1607  0.2096 -0.0139
  189loPI   C1B 3021  16.184  11.411  10.239 -0.4736  0.1438 -0.0676
  189loPI   C2B 3022  16.146  11.506   9.805  0.0749  0.4038 -0.1657
  189loPI   C3B 3023  16.103  11.452   9.340 -0.1448  0.0809 -0.0706
  189loPI   C4B 3024  16.104  11.506   8.958  0.3463  0.2420  0.0213
  190loPI    C1 3025   9.904  10.299  10.572 -0.1057  0.0481 -0.0834
  190loPI    C2 3026  10.233  10.173  10.761 -0.1441  0.0045 -0.0459
  190loPI    C3 3027  10.253  10.283  10.377 -0.0681  0.0849 -0.0191
  190loPI   PO4 3028   9.739  10.153  10.603  0.0182  0.2204  0.0875
  190loPI   GL1 3029   9.489   9.921  10.224 -0.1870  0.3959 -0.1829
  190loPI   GL2 3030   9.796   9.933  10.134  0.1400  0.0571 -0.1869
  190loPI   C1A 3031   9.307   9.976   9.859 -0.0316 -0.0053 -0.0919
  190loPI   C2A 3032   9.173   9.859   9.477  0.1457 -0.1628  0.0806
  190loPI   C3A 3033   8.998   9.687   9.078  0.0917  0.2440  0.3330
  190loPI   C4A 3034   9.024   9.431   8.777 -0.0221  0.2167 -0.0371
  190loPI   C5A 3035   8.887   9.187   8.461  0.1461 -0.1200  0.2255
  190loPI   C6A 3036   8.725   8.945   8.204 -0.1361  0.0264  0.1049
  190loPI   C1B 3037   9.774   9.967   9.657 -0.1367  0.0680  0.1477
  190loPI   C2B 3038   9.907   9.922   9.233  0.0488  0.0122 -0.0817
  190loPI   C3B 3039  10.191   9.901   8.889 -0.1765  0.0005  0.0485
  190loPI   C4B 3040  10.377   9.483   8.738 -0.1187 -0.3783  0.1364
  191loPI    C1 3041  13.232   9.516  10.665 -0.1590 -0.0588 -0.2053
  191loPI    C2 3042  13.019   9.847  10.735 -0.0163 -0.0161  0.0387
  191loPI    C3 3043  12.833   9.498  10.673 -0.1618  0.0681 -0.0028
  191loPI   PO4 3044  13.467   9.571  10.470  0.1809 -0.0747  0.0937
  191loPI   GL1 3045  13.641   9.595  10.089  0.0053  0.1665 -0.0606
  191loPI   GL2 3046  13.910   9.501  10.265  0.0121  0.1571 -0.2184
  191loPI   C1A 3047  13.593   9.547   9.684  0.3113 -0.0498 -0.0781
  191loPI   C2A 3048  13.648   9.549   9.244 -0.1689 -0.2669 -0.0646
  191loPI   C3A 3049  13.625   9.593   8.847 -0.3174 -0.1365  0.0716
  191loPI   C4A 3050  13.516   9.748   8.495 -0.0048 -0.0506  0.0282
  191loPI   C5A 3051  13.383   9.830   7.990  0.1170  0.2391 -0.3003
  191loPI   C6A 3052  13.143  10.037   7.619 -0.2051 -0.0880 -0.0718
  191loPI   C1B 3053  14.021   9.277  10.005 -0.0975  0.3298 -0.2385
  191loPI   C2B 3054  14.039   9.348   9.544  0.0491  0.0218 -0.2234
  191loPI   C3B 3055  14.105   9.370   9.126 -0.0548  0.2945  0.1212
  191loPI   C4B 3056  14.155   9.391   8.672 -0.0883  0.3111  0.1581
  192loPI    C1 3057   1.378  14.145  11.031 -0.1232  0.0745 -0.1718
  192loPI    C2 3058   1.114  14.409  11.175 -0.1535 -0.0355 -0.0238
  192loPI    C3 3059   1.473  14.370  11.348 -0.2346 -0.2532  0.0996
  192loPI   PO4 3060   1.215  14.159  10.780 -0.0285  0.4265 -0.2976
  192loPI   GL1 3061   1.095  14.295  10.323  0.1573  0.2690 -0.0139
  192loPI   GL2 3062   0.893  14.109  10.413  0.1904  0.0477 -0.0506
  192loPI   C1A 3063   1.115  14.151   9.885  0.1593  0.1942  0.0331
  192loPI   C2A 3064   1.175  14.125   9.415  0.2606  0.1471  0.2212
  192loPI   C3A 3065   1.183  14.119   8.977 -0.0132 -0.2827 -0.0309
  192loPI   C4A 3066   1.133  14.105   8.511  0.0706  0.0736  0.0197
  192loPI   C5A 3067   0.952  13.671   8.317 -0.0920 -0.1314  0.0210
  192loPI   C6A 3068   0.756  13.320   8.165  0.0163 -0.2603  0.3999
  192loPI   C1B 3069   0.596  13.878  10.165  0.0259  0.1318  0.4030
  192loPI   C2B 3070   0.656  13.858   9.670  0.0792  0.0587 -0.0351
  192loPI   C3B 3071   0.738  13.858   9.208  0.3369  0.1822 -0.0370
  192loPI   C4B 3072   0.757  13.846   8.730  0.1789  0.4903 -0.5315
  193loPI    C1 3073  13.877  13.351  11.271 -0.0391  0.0755  0.0012
  193loPI    C2 3074  13.616  13.121  11.468  0.0218 -0.0124 -0.0197
  193loPI    C3 3075  13.727  13.473  11.621  0.0321 -0.0581  0.0792
  193loPI   PO4 3076  13.847  13.334  11.050  0.3742 -0.0051 -0.1973
  193loPI   GL1 3077  13.913  13.136  10.704 -0.0073 -0.0144  0.1902
  193loPI   GL2 3078  14.140  13.261  10.638 -0.0536  0.3734 -0.0581
  193loPI   C1A 3079  13.669  12.965  10.373 -0.0407  0.0618 -0.2870
  193loPI   C2A 3080  13.724  12.906  10.016  0.0618 -0.1358  0.1857
  193loPI   C3A 3081  13.747  12.914   9.641  0.1722 -0.1600 -0.1884
  193loPI   C4A 3082  13.650  12.942   9.247  0.3067  0.0419  0.0541
  193loPI   C5A 3083  13.715  12.773   8.854  0.0242  0.0491 -0.0433
  193loPI   C6A 3084  13.782  12.982   8.504  0.3271  0.5762 -0.1946
  193loPI   C1B 3085  14.127  13.190  10.176 -0.1757  0.0411 -0.2915
  193loPI   C2B 3086  14.081  13.212   9.781 -0.1563 -0.3484  0.0695
  193loPI   C3B 3087  14.055  13.173   9.322 -0.1764  0.0194  0.1788
  193loPI   C4B 3088  13.935  13.272   8.931  0.0902  0.0370  0.0112
  194loPI    C1 3089   6.688   6.686  10.991  0.1179 -0.0511  0.1894
  194loPI    C2 3090   6.289   6.713  10.976  0.1270 -0.0684 -0.1977
  194loPI    C3 3091   6.477   6.714  11.329 -0.2067  0.0459 -0.0162
  194loPI   PO4 3092   6.823   6.884  10.810 -0.0251  0.2649  0.1393
  194loPI   GL1 3093   6.996   6.923  10.499  0.1108  0.1553 -0.2008
  194loPI   GL2 3094   6.994   7.214  10.475  0.0835  0.0643 -0.2213
  194loPI   C1A 3095   6.911   6.713  10.055 -0.0077 -0.0526 -0.0222
  194loPI   C2A 3096   6.802   6.636   9.570 -0.1762  0.0509 -0.2257
  194loPI   C3A 3097   6.794   6.618   9.127 -0.0921 -0.0985 -0.0133
  194loPI   C4A 3098   6.877   6.626   8.675 -0.4156  0.0205 -0.1510
  194loPI   C5A 3099   6.907   6.683   8.161  0.1067  0.2708  0.0458
  194loPI   C6A 3100   7.033   6.892   7.665  0.1879 -0.0762  0.1065
  194loPI   C1B 3101   6.790   7.270  10.137 -0.0565 -0.1385 -0.0073
  194loPI   C2B 3102   6.837   7.172   9.704  0.2637 -0.0340  0.0431
  194loPI   C3B 3103   6.897   7.140   9.318 -0.2505  0.0745  0.3619
  194loPI   C4B 3104   6.797   7.082   8.842 -0.0703  0.1603  0.0735
  195loPI    C1 3105  10.405  16.963  11.219  0.1229 -0.1309 -0.2241
  195loPI    C2 3106  10.674  16.968  11.515  0.0460 -0.1682 -0.1529
  195loPI    C3 3107  10.291  17.053  11.592  0.0912  0.1976 -0.3102
  195loPI   PO4 3108  10.512  17.019  11.007 -0.2897  0.2677  0.1540
  195loPI   GL1 3109  10.529  17.021  10.604 -0.0889 -0.4416  0.0630
  195loPI   GL2 3110  10.337  17.081  10.490  0.0181 -0.0547  0.2707
  195loPI   C1A 3111  10.846  16.958  10.227 -0.0453 -0.1268 -0.0418
  195loPI   C2A 3112  10.889  16.889   9.834 -0.0555 -0.1465  0.0539
  195loPI   C3A 3113  10.899  16.823   9.440 -0.0352 -0.0194 -0.0336
  195loPI   C4A 3114  10.845  16.853   8.978  0.2372 -0.1648  0.3765
  195loPI   C5A 3115  10.913  16.913   8.517  0.0887 -0.0735  0.1097
  195loPI   C6A 3116  10.725  16.744   8.093  0.0797 -0.1074 -0.2327
  195loPI   C1B 3117  10.358  17.028  10.085  0.3522  0.0253  0.1759
  195loPI   C2B 3118  10.445  16.968   9.644 -0.0093  0.1164  0.3113
  195loPI   C3B 3119  10.299  16.968   9.136  0.0874  0.1393  0.0841
  195loPI   C4B 3120  10.455  17.105   8.772  0.0461 -0.0409  0.3127
  196loPI    C1 3121  16.879  16.475  11.249  0.1492  0.0773 -0.1285
  196loPI    C2 3122  16.641  16.695  11.015  0.0720 -0.0506 -0.1717
  196loPI    C3 3123  16.527  16.603  11.387  0.0246 -0.1661 -0.2144
  196loPI   PO4 3124  17.102  16.569  11.142  0.0450 -0.2229 -0.0629
  196loPI   GL1 3125  17.338  16.518  10.730  0.3012 -0.3219 -0.0222
  196loPI   GL2 3126  16.998  16.413  10.675 -0.0485  0.4655 -0.2609
  196loPI   C1A 3127  17.436  16.599  10.310  0.1542  0.3996 -0.1444
  196loPI   C2A 3128  17.328  16.781   9.949 -0.2030  0.1416 -0.2706
  196loPI   C3A 3129  17.387  16.861   9.520  0.0590 -0.0654 -0.1356
  196loPI   C4A 3130  17.426  16.813   9.071 -0.1886 -0.1925 -0.1069
  196loPI   C5A 3131  17.557  16.720   8.654  0.1097 -0.2993  0.0795
  196loPI   C6A 3132  17.891  16.733   8.513  0.2552  0.0672  0.0132
  196loPI   C1B 3133  16.890  16.497  10.275  0.2342  0.3260  0.0757
  196loPI   C2B 3134  16.902  16.474   9.847 -0.1458  0.2728 -0.1078
  196loPI   C3B 3135  16.984  16.459   9.432  0.0718 -0.2620  0.0979
  196loPI   C4B 3136  16.985  16.513   9.011  0.0267 -0.2922  0.1804
  197loPI    C1 3137  15.637   8.754  11.313 -0.0542  0.0052  0.1439
  197loPI    C2 3138  15.366   8.496  11.455  0.0439 -0.1501  0.0525
  197loPI    C3 3139  15.593   8.708  11.707 -0.0140 -0.1774  0.1279
  197loPI   PO4 3140  15.564   8.979  11.051 -0.3047  0.3005 -0.0435
  197loPI   GL1 3141  15.637   8.984  10.697 -0.0323 -0.4754  0.1878
  197loPI   GL2 3142  15.495   8.809  10.569  0.3741  0.2291  0.0397
  197loPI   C1A 3143  15.768   9.173  10.315 -0.3228  0.1363 -0.3116
  197loPI   C2A 3144  15.834   9.116   9.855 -0.1349  0.0122  0.1627
  197loPI   C3A 3145  15.958   9.119   9.441  0.1052 -0.0420 -0.1475
  197loPI   C4A 3146  15.873   9.114   9.045  0.0689  0.1024 -0.1474
  197loPI   C5A 3147  16.024   9.234   8.610  0.2745  0.2877 -0.2457
  197loPI   C6A 3148  16.260   9.407   8.316 -0.2786  0.1264  0.1982
  197loPI   C1B 3149  15.441   8.810  10.129 -0.1146  0.2751 -0.2318
  197loPI   C2B 3150  15.456   8.807   9.736 -0.0666 -0.3990  0.2648
  197loPI   C3B 3151  15.525   8.801   9.255  0.0196  0.2138  0.2101
  197loPI   C4B 3152  15.525   8.820   8.853 -0.2074 -0.0865 -0.0098
  198loPI    C1 3153   2.105  15.991  11.297 -0.0352  0.1734 -0.1494
  198loPI    C2 3154   2.316  16.301  11.435 -0.2089  0.0845  0.3364
  198loPI    C3 3155   2.330  15.950  11.625 -0.2446 -0.1248 -0.0388
  198loPI   PO4 3156   2.105  16.083  10.997 -0.1304  0.3507  0.1036
  198loPI   GL1 3157   2.153  16.429  10.686  0.3063  0.1522  0.3710
  198loPI   GL2 3158   2.361  16.168  10.464 -0.0612  0.1811 -0.1191
  198loPI   C1A 3159   2.044  16.601  10.343 -0.3893  0.4530 -0.0298
  198loPI   C2A 3160   2.186  16.639   9.958 -0.1383  0.3705  0.1394
  198loPI   C3A 3161   2.321  16.637   9.516 -0.0863 -0.0483 -0.2037
  198loPI   C4A 3162   2.295  16.566   9.103 -0.0284  0.0437 -0.3222
  198loPI   C5A 3163   2.355  16.604   8.624  0.0727 -0.1935  0.1814
  198loPI   C6A 3164   2.169  16.853   8.277  0.0013 -0.1189 -0.3039
  198loPI   C1B 3165   2.229  16.136  10.021 -0.0273 -0.2786 -0.1083
  198loPI   C2B 3166   2.326  16.111   9.608  0.2390  0.2564  0.0642
  198loPI   C3B 3167   2.384  16.073   9.128 -0.0792  0.1049  0.0020
  198loPI   C4B 3168   2.301  16.117   8.744 -0.0071 -0.2380 -0.2968
  199loPI    C1 3169   6.564   7.973  10.990  0.2834 -0.1325  0.1786
  199loPI    C2 3170   6.205   7.998  11.166  0.3433  0.1495  0.2656
  199loPI    C3 3171   6.373   7.640  11.103 -0.0135  0.0067  0.0974
  199loPI   PO4 3172   6.582   8.138  10.799 -0.0306  0.1052  0.1761
  199loPI   GL1 3173   6.421   8.104  10.373 -0.0179  0.0540 -0.1215
  199loPI   GL2 3174   6.229   8.368  10.490  0.0245 -0.1894 -0.1032
  199loPI   C1A 3175   6.273   7.955   9.913  0.2245  0.1705 -0.0223
  199loPI   C2A 3176   6.278   7.919   9.484 -0.0089 -0.0931  0.2624
  199loPI   C3A 3177   6.216   7.955   8.959 -0.0770 -0.2282 -0.0325
  199loPI   C4A 3178   6.191   7.807   8.678 -0.1767  0.0642 -0.0614
  199loPI   C5A 3179   6.044   7.797   8.317 -0.3675  0.1452  0.0316
  199loPI   C6A 3180   5.592   7.794   8.259 -0.0350  0.0491  0.1280
  199loPI   C1B 3181   6.233   8.534  10.069  0.1107 -0.0201 -0.0320
  199loPI   C2B 3182   6.276   8.693   9.703 -0.0666 -0.2070 -0.0309
  199loPI   C3B 3183   6.227   8.449   9.252 -0.3125  0.0972 -0.2022
  199loPI   C4B 3184   6.127   8.412   8.805  0.2983 -0.3736 -0.0185
  200loPI    C1 3185  12.372   2.135  11.179  0.0795  0.0508  0.0821
  200loPI    C2 3186  12.059   2.299  11.366  0.0225  0.1211 -0.0733
  200loPI    C3 3187  12.205   1.948  11.491  0.0446  0.2117  0.1609
  200loPI   PO4 3188  12.226   2.107  10.917 -0.0186 -0.2370  0.1510
  200loPI   GL1 3189  12.292   2.104  10.527 -0.1254  0.0119 -0.2412
  200loPI   GL2 3190  12.561   2.085  10.400  0.0941  0.2375  0.0467
  200loPI   C1A 3191  11.972   2.100  10.098  0.0509 -0.2748  0.0302
  200loPI   C2A 3192  11.820   2.095   9.657  0.0575 -0.0765 -0.2325
  200loPI   C3A 3193  11.815   2.081   9.133 -0.1758  0.3112  0.1100
  200loPI   C4A 3194  11.726   1.837   8.718  0.0795  0.1078  0.0703
  200loPI   C5A 3195  11.344   1.935   8.384 -0.1115 -0.3656  0.0628
  200loPI   C6A 3196  11.090   2.304   8.402 -0.3066 -0.2128  0.0478
  200loPI   C1B 3197  12.503   2.040  10.014  0.1416 -0.2373 -0.2806
  200loPI   C2B 3198  12.563   2.236   9.607 -0.0788  0.2972 -0.4183
  200loPI   C3B 3199  12.617   2.140   9.230  0.1167 -0.2061 -0.3652
  200loPI   C4B 3200  12.695   2.203   8.818  0.0760 -0.2054  0.0200
  201loPI    C1 3201  16.050  15.337  11.412 -0.2599 -0.0153 -0.0516
  201loPI    C2 3202  15.940  15.712  11.327  0.1048  0.0506 -0.2496
  201loPI    C3 3203  15.670  15.417  11.318 -0.1887  0.3088 -0.0728
  201loPI   PO4 3204  16.282  15.337  11.137 -0.3807 -0.2334  0.1156
  201loPI   GL1 3205  16.419  15.310  10.698 -0.2849 -0.0816 -0.1725
  201loPI   GL2 3206  16.567  15.654  10.543 -0.1044  0.2346 -0.0903
  201loPI   C1A 3207  16.422  15.218  10.266 -0.0825  0.2376 -0.1342
  201loPI   C2A 3208  16.487  15.214   9.817  0.1128 -0.3410  0.2663
  201loPI   C3A 3209  16.596  15.158   9.472  0.1467  0.2735  0.1861
  201loPI   C4A 3210  16.619  15.170   9.104 -0.3137 -0.1723  0.3049
  201loPI   C5A 3211  16.458  14.959   8.761  0.4179  0.1395  0.4458
  201loPI   C6A 3212  16.096  14.805   8.662 -0.0286  0.2727 -0.1875
  201loPI   C1B 3213  16.394  15.710  10.120 -0.0770  0.1856 -0.1330
  201loPI   C2B 3214  16.550  15.687   9.714 -0.0189 -0.0115 -0.0552
  201loPI   C3B 3215  16.584  15.731   9.398  0.0116 -0.1928  0.0383
  201loPI   C4B 3216  16.593  15.653   8.884 -0.5142  0.2696  0.0612
  202loPI    C1 3217  10.161  14.848  11.404  0.1479  0.1154  0.0005
  202loPI    C2 3218  10.172  14.763  11.795 -0.0580  0.1436  0.0131
  202loPI    C3 3219   9.822  14.837  11.615  0.0535  0.3133 -0.1377
  202loPI   PO4 3220  10.328  14.755  11.319 -0.0510  0.2007  0.1561
  202loPI   GL1 3221  10.512  14.753  10.908  0.0310  0.0254 -0.1060
  202loPI   GL2 3222  10.392  14.978  10.805  0.0936  0.1527  0.0763
  202loPI   C1A 3223  10.375  14.355  10.734  0.0599  0.0710  0.0132
  202loPI   C2A 3224  10.341  14.241  10.348 -0.3265  0.3177 -0.0896
  202loPI   C3A 3225  10.199  14.192   9.988  0.0873 -0.0115  0.1388
  202loPI   C4A 3226  10.306  14.197   9.643 -0.0384  0.0990  0.1072
  202loPI   C5A 3227  10.301  14.349   9.201 -0.0812  0.2184  0.2097
  202loPI   C6A 3228  10.008  14.304   8.750 -0.1602  0.3618  0.1755
  202loPI   C1B 3229  10.222  14.783  10.470  0.0288  0.0584 -0.2225
  202loPI   C2B 3230  10.162  14.728  10.043  0.0705  0.1154  0.0980
  202loPI   C3B 3231  10.230  14.709   9.584 -0.0936 -0.1062  0.1972
  202loPI   C4B 3232  10.312  14.842   9.287  0.0302 -0.5949 -0.4185
  203loPI    C1 3233  14.356  13.940  11.381  0.2838 -0.1641  0.1361
  203loPI    C2 3234  14.342  14.231  11.656  0.1083 -0.1332  0.0956
  203loPI    C3 3235  14.642  14.220  11.391  0.1317 -0.0060  0.1160
  203loPI   PO4 3236  14.224  13.914  11.269 -0.0859  0.0235  0.0355
  203loPI   GL1 3237  14.166  13.969  10.862  0.2479 -0.0224 -0.0392
  203loPI   GL2 3238  13.939  13.745  10.717 -0.4614 -0.0824 -0.1628
  203loPI   C1A 3239  14.366  14.070  10.447  0.0041  0.1290  0.2137
  203loPI   C2A 3240  14.344  14.073  10.040  0.1876  0.2372 -0.2490
  203loPI   C3A 3241  14.453  14.104   9.623  0.2510  0.0326  0.0995
  203loPI   C4A 3242  14.440  14.063   9.175 -0.2303 -0.4074 -0.1630
  203loPI   C5A 3243  14.358  14.189   8.706 -0.1154 -0.2473  0.0708
  203loPI   C6A 3244  14.531  14.571   8.478  0.1797  0.0636  0.0968
  203loPI   C1B 3245  14.024  13.698  10.191 -0.2650 -0.0213 -0.1029
  203loPI   C2B 3246  14.017  13.746   9.760  0.0696  0.1892  0.2498
  203loPI   C3B 3247  14.011  13.721   9.327 -0.0732 -0.0226 -0.1020
  203loPI   C4B 3248  14.082  13.813   8.894 -0.3596  0.0000 -0.0663
  204loPI    C1 3249   6.267   2.641  11.315  0.1175 -0.0089 -0.1020
  204loPI    C2 3250   6.540   2.512  11.578  0.1887 -0.1100 -0.2242
  204loPI    C3 3251   6.160   2.390  11.608  0.0853  0.2759  0.1345
  204loPI   PO4 3252   6.299   2.606  11.115  0.1490  0.2258 -0.1261
  204loPI   GL1 3253   6.113   2.537  10.706  0.3671  0.0310  0.2713
  204loPI   GL2 3254   5.846   2.624  10.665 -0.2123 -0.0473  0.0874
  204loPI   C1A 3255   6.352   2.349  10.263 -0.1755  0.0795 -0.0789
  204loPI   C2A 3256   6.468   2.364   9.787 -0.3682 -0.0366  0.0369
  204loPI   C3A 3257   6.369   2.295   9.301  0.0733 -0.1895 -0.0686
  204loPI   C4A 3258   6.421   2.342   8.935 -0.0586 -0.0706  0.0791
  204loPI   C5A 3259   6.305   2.436   8.571 -0.1403 -0.1522  0.0846
  204loPI   C6A 3260   6.181   2.168   8.274 -0.3885 -0.0281 -0.0907
  204loPI   C1B 3261   5.930   2.599  10.219  0.0391 -0.2206  0.0696
  204loPI   C2B 3262   5.889   2.592   9.733 -0.1575  0.1178 -0.2560
  204loPI   C3B 3263   5.999   2.626   9.329 -0.0121 -0.2413 -0.2082
  204loPI   C4B 3264   5.974   2.548   8.930  0.0330 -0.1022 -0.5015
  205loPI    C1 3265   4.061  10.999  11.424  0.0389 -0.2416 -0.1241
  205loPI    C2 3266   3.842  10.907  11.747 -0.0964 -0.0184 -0.1499
  205loPI    C3 3267   4.105  11.208  11.763 -0.0702 -0.0366 -0.2347
  205loPI   PO4 3268   3.939  11.006  11.155  0.2758  0.1351 -0.0669
  205loPI   GL1 3269   3.924  11.383  10.880  0.0391  0.0562  0.1054
  205loPI   GL2 3270   3.609  11.227  10.749  0.1346 -0.0671  0.1029
  205loPI   C1A 3271   4.107  11.412  10.472  0.1519 -0.2678  0.2962
  205loPI   C2A 3272   4.168  11.266  10.066 -0.0014  0.0849 -0.1604
  205loPI   C3A 3273   4.123  11.218   9.621 -0.1184 -0.2335  0.3167
  205loPI   C4A 3274   4.178  11.366   9.127  0.2336 -0.1079 -0.1366
  205loPI   C5A 3275   4.041  11.330   8.676  0.1771 -0.0841 -0.1758
  205loPI   C6A 3276   3.912  11.146   8.291  0.1282 -0.0756  0.3208
  205loPI   C1B 3277   3.795  10.929  10.408  0.0018 -0.1231 -0.2225
  205loPI   C2B 3278   3.701  10.899  10.048  0.2635 -0.1718 -0.0499
  205loPI   C3B 3279   3.696  10.970   9.513  0.0175 -0.1019  0.0975
  205loPI   C4B 3280   3.631  11.025   9.069 -0.0506  0.0774  0.1197
  206loPI    C1 3281  10.556  12.710  11.387  0.0652 -0.0904 -0.0344
  206loPI    C2 3282  10.518  13.043  11.605 -0.0708 -0.0315 -0.1464
  206loPI    C3 3283  10.572  12.691  11.786 -0.0538  0.0339 -0.0227
  206loPI   PO4 3284  10.566  12.833  11.164 -0.2948  0.1958  0.3348
  206loPI   GL1 3285  10.693  12.641  10.802 -0.1216  0.0043 -0.0238
  206loPI   GL2 3286  10.451  12.511  10.702  0.0795  0.2197  0.1428
  206loPI   C1A 3287  10.902  12.935  10.514  0.0951 -0.1783  0.0449
  206loPI   C2A 3288  10.973  12.970  10.018 -0.1384 -0.0115 -0.2001
  206loPI   C3A 3289  10.818  13.020   9.656 -0.0113  0.1338 -0.0033
  206loPI   C4A 3290  10.902  13.071   9.268  0.0177 -0.2609  0.1444
  206loPI   C5A 3291  10.978  13.120   8.797 -0.0266  0.0924 -0.2135
  206loPI   C6A 3292  11.222  13.295   8.507  0.1109 -0.0237  0.2279
  206loPI   C1B 3293  10.596  12.628  10.238  0.1113 -0.2654  0.0136
  206loPI   C2B 3294  10.548  12.611   9.777 -0.2942  0.2396  0.0611
  206loPI   C3B 3295  10.500  12.763   9.395 -0.0733 -0.0016  0.0182
  206loPI   C4B 3296  10.425  12.924   8.951 -0.3086  0.0988 -0.1029
  207loPI    C1 3297  13.515   8.717  11.146 -0.0016 -0.0927  0.2519
  207loPI    C2 3298  13.670   8.597  10.798 -0.0710  0.1211  0.1456
  207loPI    C3 3299  13.844   8.490  11.142 -0.0634 -0.1803  0.0507
  207loPI   PO4 3300  13.304   8.776  11.092  0.2887  0.2560 -0.0157
  207loPI   GL1 3301  13.128   8.553  10.644  0.0158 -0.0340  0.1751
  207loPI   GL2 3302  13.038   8.558  10.429  0.0936 -0.0662 -0.1613
  207loPI   C1A 3303  13.528   8.504  10.338  0.0557 -0.1965  0.2054
  207loPI   C2A 3304  13.680   8.580   9.855  0.1533 -0.1189 -0.0679
  207loPI   C3A 3305  13.741   8.519   9.492  0.0171 -0.3796 -0.1101
  207loPI   C4A 3306  13.697   8.511   9.044 -0.0627 -0.2289  0.0073
  207loPI   C5A 3307  13.840   8.555   8.587 -0.0674  0.2955 -0.0989
  207loPI   C6A 3308  14.018   8.318   8.286 -0.2526 -0.1072 -0.2285
  207loPI   C1B 3309  13.210   8.741  10.022  0.2061  0.0205  0.4121
  207loPI   C2B 3310  13.226   8.713   9.585  0.1467 -0.1139  0.0715
  207loPI   C3B 3311  13.246   8.761   9.209  0.0512 -0.3417  0.1354
  207loPI   C4B 3312  13.363   8.732   8.777 -0.1370  0.1466  0.2186
  208loPI    C1 3313   4.985  14.954  10.747  0.2122 -0.0105  0.0201
  208loPI    C2 3314   4.830  15.317  10.812 -0.2364 -0.1543 -0.2067
  208loPI    C3 3315   4.944  15.090  11.121  0.0571  0.1784 -0.0636
  208loPI   PO4 3316   4.897  14.823  10.563 -0.0145 -0.0307 -0.3549
  208loPI   GL1 3317   4.679  14.644  10.191  0.1082 -0.0395 -0.2696
  208loPI   GL2 3318   5.060  14.823  10.034  0.2633  0.1532 -0.3510
  208loPI   C1A 3319   4.682  14.480   9.799 -0.1464  0.0905 -0.0918
  208loPI   C2A 3320   4.828  14.499   9.354 -0.1271  0.1722 -0.0217
  208loPI   C3A 3321   4.739  14.496   8.984  0.0748  0.0002 -0.0316
  208loPI   C4A 3322   4.667  14.428   8.624 -0.3066  0.2197  0.1882
  208loPI   C5A 3323   4.497  14.526   8.208  0.0436 -0.3456 -0.0356
  208loPI   C6A 3324   4.095  14.856   8.168 -0.2544  0.1168  0.0392
  208loPI   C1B 3325   5.085  14.848   9.674 -0.0247 -0.0899  0.0314
  208loPI   C2B 3326   5.153  14.827   9.201 -0.1352  0.0228  0.2847
  208loPI   C3B 3327   5.150  14.720   8.761  0.1680  0.2406 -0.3109
  208loPI   C4B 3328   5.049  14.642   8.332  0.0721 -0.1568 -0.0513
  209loPI    C1 3329  13.075   5.751  10.977 -0.1054 -0.0479 -0.2059
  209loPI    C2 3330  13.301   5.836  11.296  0.2522 -0.2035 -0.4107
  209loPI    C3 3331  12.985   6.065  11.207  0.1775 -0.1296  0.0227
  209loPI   PO4 3332  13.249   5.805  10.709 -0.2066  0.2822  0.2628
  209loPI   GL1 3333  13.309   5.624  10.295 -0.0531  0.2091  0.1131
  209loPI   GL2 3334  13.084   5.831  10.139  0.0777  0.1010  0.3120
  209loPI   C1A 3335  13.594   5.686  10.032 -0.0353 -0.0128 -0.2068
  209loPI   C2A 3336  13.567   5.649   9.586 -0.3157  0.2889 -0.1553
  209loPI   C3A 3337  13.583   5.699   9.146 -0.1409 -0.2702  0.0529
  209loPI   C4A 3338  13.577   5.668   8.717  0.3654 -0.3070  0.0910
  209loPI   C5A 3339  13.446   5.839   8.339  0.3499 -0.3593 -0.0485
  209loPI   C6A 3340  13.392   5.922   7.909 -0.0117  0.5098  0.1109
  209loPI   C1B 3341  13.143   5.850   9.770  0.2140  0.0266 -0.2195
  209loPI   C2B 3342  13.034   5.873   9.430  0.2512  0.0941  0.1264
  209loPI   C3B 3343  13.184   5.898   9.058  0.0819 -0.0097  0.1103
  209loPI   C4B 3344  13.083   5.930   8.665 -0.2050 -0.0827  0.0805
  210loPI    C1 3345   5.983  12.270  10.921 -0.0570  0.1946  0.1129
  210loPI    C2 3346   5.752  12.358  11.235  0.0056  0.0481  0.2013
  210loPI    C3 3347   6.048  12.092  11.273 -0.0958 -0.1002 -0.0260
  210loPI   PO4 3348   5.941  12.461  10.822  0.1969  0.5559 -0.2345
  210loPI   GL1 3349   5.571  12.739  10.551  0.1173 -0.0811 -0.2333
  210loPI   GL2 3350   5.949  12.559  10.362  0.0567  0.1296  0.2123
  210loPI   C1A 3351   5.468  12.793  10.132 -0.2850  0.1011  0.3301
  210loPI   C2A 3352   5.376  12.800   9.708  0.1429 -0.2050  0.2249
  210loPI   C3A 3353   5.404  12.747   9.233  0.0493  0.1012 -0.2294
  210loPI   C4A 3354   5.471  12.765   8.875  0.0253 -0.0359 -0.1245
  210loPI   C5A 3355   5.289  12.634   8.651 -0.1445  0.2347  0.1662
  210loPI   C6A 3356   5.164  12.275   8.246  0.0476  0.1531 -0.4244
  210loPI   C1B 3357   5.917  12.588   9.963 -0.2712  0.3579  0.0624
  210loPI   C2B 3358   5.894  12.585   9.590 -0.1654  0.0175  0.1039
  210loPI   C3B 3359   5.886  12.514   9.151 -0.1421  0.3174  0.3149
  210loPI   C4B 3360   5.876  12.506   8.745 -0.2841 -0.1995 -0.1201
  211loPI    C1 3361   9.116  14.098  11.161  0.0964  0.0943  0.3120
  211loPI    C2 3362   8.781  13.987  11.350  0.1127 -0.0816  0.2385
  211loPI    C3 3363   9.137  13.867  11.487  0.1354 -0.0488  0.2082
  211loPI   PO4 3364   9.026  14.363  11.041  0.0032 -0.3249  0.0350
  211loPI   GL1 3365   8.931  14.677  10.716  0.0759  0.3594  0.1015
  211loPI   GL2 3366   8.621  14.609  10.545 -0.1129 -0.1146  0.1385
  211loPI   C1A 3367   9.222  14.982  10.446 -0.1724 -0.1893 -0.3780
  211loPI   C2A 3368   9.149  15.105  10.021  0.1233  0.2319  0.2958
  211loPI   C3A 3369   9.300  15.095   9.678  0.1011  0.1410  0.4140
  211loPI   C4A 3370   9.325  15.123   9.189 -0.0219  0.1677 -0.0193
  211loPI   C5A 3371   9.424  15.182   8.700 -0.0281  0.0020  0.1188
  211loPI   C6A 3372   9.761  15.104   8.257 -0.0255 -0.2598  0.0071
  211loPI   C1B 3373   8.786  14.768  10.135  0.0718 -0.1900  0.0088
  211loPI   C2B 3374   8.865  14.802   9.699  0.0005  0.2210  0.2681
  211loPI   C3B 3375   8.775  14.746   9.220 -0.0624 -0.0429  0.2278
  211loPI   C4B 3376   8.975  14.882   8.868  0.0714  0.0999  0.0548
  212loPI    C1 3377  16.387   3.926  11.079  0.0533 -0.1824  0.0447
  212loPI    C2 3378  16.615   3.671  11.286  0.1562  0.0670  0.2442
  212loPI    C3 3379  16.679   4.065  11.314 -0.0947  0.1242  0.0524
  212loPI   PO4 3380  16.425   3.949  10.755  0.2007 -0.4131  0.3838
  212loPI   GL1 3381  16.247   3.909  10.326 -0.1394  0.0497 -0.0139
  212loPI   GL2 3382  16.501   3.833  10.182  0.0249  0.3632 -0.3683
  212loPI   C1A 3383  16.118   4.011   9.936  0.0700 -0.3701  0.0486
  212loPI   C2A 3384  15.969   4.144   9.572 -0.0037  0.0271 -0.0521
  212loPI   C3A 3385  16.110   4.153   9.089  0.1260 -0.1553  0.0047
  212loPI   C4A 3386  16.238   4.241   8.545  0.0471  0.0473 -0.0248
  212loPI   C5A 3387  16.222   4.322   8.077 -0.1726 -0.3041 -0.0525
  212loPI   C6A 3388  16.379   4.279   7.732 -0.0117  0.2324 -0.0932
  212loPI   C1B 3389  16.527   3.887   9.730 -0.1851 -0.0632 -0.1202
  212loPI   C2B 3390  16.512   4.006   9.347 -0.0412 -0.1353  0.0303
  212loPI   C3B 3391  16.543   4.005   8.913  0.0306  0.1992  0.1436
  212loPI   C4B 3392  16.674   3.972   8.486  0.1433 -0.0198 -0.1576
  213loPI    C1 3393  12.019  16.184  11.192  0.3010  0.2051  0.1788
  213loPI    C2 3394  12.022  15.896  11.470 -0.0070  0.1042  0.0812
  213loPI    C3 3395  11.951  16.276  11.576 -0.2329  0.0502  0.1290
  213loPI   PO4 3396  12.187  16.139  11.074 -0.0570  0.1356  0.2850
  213loPI   GL1 3397  12.353  16.076  10.606 -0.0306  0.0638  0.0709
  213loPI   GL2 3398  12.445  15.756  10.591  0.3056  0.1206  0.1247
  213loPI   C1A 3399  12.257  16.252  10.249  0.0419 -0.1111 -0.0058
  213loPI   C2A 3400  12.347  16.257   9.818  0.0879 -0.1083  0.0433
  213loPI   C3A 3401  12.361  16.374   9.434 -0.0972  0.1887 -0.0458
  213loPI   C4A 3402  12.393  16.393   9.020 -0.3540  0.1513  0.1084
  213loPI   C5A 3403  12.326  16.265   8.607  0.0203 -0.2328 -0.3016
  213loPI   C6A 3404  12.214  15.820   8.423 -0.1898 -0.2697  0.2473
  213loPI   C1B 3405  12.361  15.761  10.188 -0.3114 -0.0269 -0.2804
  213loPI   C2B 3406  12.288  15.777   9.750 -0.0030 -0.1108  0.1898
  213loPI   C3B 3407  12.462  15.820   9.285 -0.2117 -0.0948  0.1314
  213loPI   C4B 3408  12.382  15.884   8.903  0.1065 -0.0560 -0.2072
  214loPI    C1 3409  11.837   3.504  11.018  0.0611  0.0408  0.0370
  214loPI    C2 3410  11.780   3.779  11.303 -0.0043 -0.0858  0.1472
  214loPI    C3 3411  11.887   3.407  11.403 -0.0521 -0.1377  0.0079
  214loPI   PO4 3412  11.849   3.619  10.769 -0.1958 -0.0229 -0.1051
  214loPI   GL1 3413  11.791   3.605  10.359  0.1026  0.0071 -0.1274
  214loPI   GL2 3414  12.085   3.437  10.263  0.0171 -0.1415 -0.0473
  214loPI   C1A 3415  11.589   3.732   9.948  0.0488 -0.1355 -0.1512
  214loPI   C2A 3416  11.578   3.730   9.484  0.0862 -0.0330  0.1973
  214loPI   C3A 3417  11.616   3.526   9.019  0.1840  0.0612 -0.2088
  214loPI   C4A 3418  11.538   3.559   8.602 -0.1207  0.1867  0.3408
  214loPI   C5A 3419  11.766   3.474   8.207 -0.1473  0.2919  0.1613
  214loPI   C6A 3420  12.110   3.654   7.943  0.1711 -0.0239  0.0940
  214loPI   C1B 3421  12.101   3.459   9.834  0.0065 -0.0493  0.1008
  214loPI   C2B 3422  12.053   3.383   9.474  0.0198 -0.1224 -0.1252
  214loPI   C3B 3423  12.091   3.444   9.093 -0.1837 -0.1283 -0.1380
  214loPI   C4B 3424  12.146   3.291   8.781 -0.0526 -0.2949 -0.1204
  215loPI    C1 3425  15.883  14.884  11.316  0.0635 -0.0735  0.0187
  215loPI    C2 3426  15.906  14.526  11.493  0.0951  0.0433  0.2546
  215loPI    C3 3427  16.239  14.708  11.364  0.0502 -0.1471 -0.1447
  215loPI   PO4 3428  15.704  14.921  11.152  0.0899 -0.0166  0.2565
  215loPI   GL1 3429  15.607  14.912  10.724 -0.2478  0.1486  0.1328
  215loPI   GL2 3430  15.585  14.630  10.558  0.2740  0.0600  0.1870
  215loPI   C1A 3431  15.545  15.062  10.270  0.1111  0.0704  0.1690
  215loPI   C2A 3432  15.565  15.090   9.785  0.0829  0.0537 -0.1889
  215loPI   C3A 3433  15.652  15.112   9.392  0.0223 -0.2855 -0.2805
  215loPI   C4A 3434  15.630  15.129   8.935  0.1056 -0.1883 -0.0936
  215loPI   C5A 3435  15.668  15.138   8.501 -0.5652  0.0680  0.1612
  215loPI   C6A 3436  15.977  14.998   8.183 -0.2173  0.2590 -0.1691
  215loPI   C1B 3437  15.680  14.629  10.053 -0.1474 -0.0433  0.0069
  215loPI   C2B 3438  15.672  14.519   9.615 -0.1335 -0.2008  0.0824
  215loPI   C3B 3439  15.739  14.587   9.170  0.2262 -0.1710 -0.3117
  215loPI   C4B 3440  15.829  14.411   8.760  0.3271  0.0313  0.1071
  216loPI    C1 3441   6.442   1.060  11.220 -0.2504  0.0376 -0.0409
  216loPI    C2 3442   6.775   1.251  11.333 -0.1314 -0.1687 -0.0374
  216loPI    C3 3443   6.598   0.993  11.582 -0.3000 -0.0534 -0.0361
  216loPI   PO4 3444   6.521   0.991  10.929 -0.1706  0.0176 -0.0172
  216loPI   GL1 3445   6.381   0.878  10.593  0.2971 -0.1258  0.2006
  216loPI   GL2 3446   6.166   0.666  10.561 -0.0729  0.1480 -0.1831
  216loPI   C1A 3447   6.545   0.907  10.208  0.0708  0.0212  0.2925
  216loPI   C2A 3448   6.593   0.888   9.828 -0.0909 -0.0534  0.1200
  216loPI   C3A 3449   6.633   0.834   9.431  0.0746 -0.0281  0.1965
  216loPI   C4A 3450   6.519   0.751   9.108 -0.3815 -0.1523  0.0455
  216loPI   C5A 3451   6.621   0.751   8.771 -0.0264 -0.1264  0.0274
  216loPI   C6A 3452   6.637   0.459   8.369 -0.2341 -0.0015 -0.0884
  216loPI   C1B 3453   6.080   0.660  10.161  0.1377 -0.0758 -0.1100
  216loPI   C2B 3454   6.190   0.571   9.766  0.1115 -0.1279 -0.1244
  216loPI   C3B 3455   6.105   0.602   9.302 -0.2058  0.3133  0.0176
  216loPI   C4B 3456   6.246   0.389   8.864  0.2405 -0.2350  0.2216
  217loPI    C1 3457   6.115   9.908  11.493  0.1667  0.1291 -0.0452
  217loPI    C2 3458   6.029   9.517  11.484 -0.1071  0.1841  0.0816
  217loPI    C3 3459   6.362   9.644  11.666 -0.0326  0.0129  0.0668
  217loPI   PO4 3460   6.096   9.972  11.233 -0.1420  0.0752  0.2206
  217loPI   GL1 3461   6.126   9.922  10.798 -0.2296  0.1001  0.0110
  217loPI   GL2 3462   5.795   9.935  10.825  0.3101 -0.1767 -0.2520
  217loPI   C1A 3463   6.102   9.985  10.307  0.0527 -0.1698 -0.1831
  217loPI   C2A 3464   6.163   9.940   9.895  0.1172 -0.3302  0.0893
  217loPI   C3A 3465   6.089  10.029   9.394  0.3198 -0.0497 -0.1278
  217loPI   C4A 3466   6.066   9.970   8.912  0.0119 -0.2161 -0.1685
  217loPI   C5A 3467   6.119   9.698   8.633  0.1662  0.0658  0.1223
  217loPI   C6A 3468   6.226   9.402   8.348  0.1667  0.0180  0.0022
  217loPI   C1B 3469   5.740   9.670  10.415  0.0705  0.0605  0.1064
  217loPI   C2B 3470   5.852   9.556  10.074  0.0890 -0.1398 -0.1462
  217loPI   C3B 3471   5.666   9.709   9.633  0.0381 -0.1634  0.1016
  217loPI   C4B 3472   5.710   9.707   9.231 -0.3255  0.2175  0.1053
  218loPI    C1 3473  13.387   3.082  10.917 -0.0515 -0.2084  0.0308
  218loPI    C2 3474  13.154   3.112  11.241 -0.0011 -0.2411  0.0702
  218loPI    C3 3475  13.551   3.143  11.277 -0.0117  0.0334 -0.0258
  218loPI   PO4 3476  13.353   3.223  10.771 -0.0506 -0.0129 -0.1898
  218loPI   GL1 3477  13.421   3.245  10.389  0.1060  0.2889  0.2244
  218loPI   GL2 3478  13.149   3.246  10.332 -0.0665 -0.0774  0.2168
  218loPI   C1A 3479  13.475   3.323   9.959 -0.1026 -0.0603 -0.0888
  218loPI   C2A 3480  13.502   3.241   9.583  0.0354 -0.2497 -0.2581
  218loPI   C3A 3481  13.422   3.259   9.065  0.1305 -0.5906  0.3135
  218loPI   C4A 3482  13.447   3.363   8.571  0.1312  0.3119  0.0235
  218loPI   C5A 3483  13.709   3.050   8.375 -0.0404  0.1993 -0.1066
  218loPI   C6A 3484  13.640   2.662   8.062 -0.2440  0.1442  0.1237
  218loPI   C1B 3485  13.045   3.023   9.973 -0.1786  0.2926  0.0033
  218loPI   C2B 3486  13.008   2.985   9.493  0.0058 -0.0273 -0.1631
  218loPI   C3B 3487  13.000   3.002   9.099 -0.2476  0.3289 -0.1177
  218loPI   C4B 3488  13.035   3.083   8.654 -0.1624 -0.5294  0.0840
  219loPI    C1 3489   4.698   2.588  11.011 -0.1020 -0.0426 -0.0272
  219loPI    C2 3490   4.593   2.749  11.362  0.2074  0.1836 -0.0341
  219loPI    C3 3491   4.917   2.516  11.338  0.1231  0.0772 -0.1487
  219loPI   PO4 3492   4.532   2.390  10.990 -0.2040 -0.2070 -0.0196
  219loPI   GL1 3493   4.728   2.204  10.674  0.1066 -0.0732 -0.0282
  219loPI   GL2 3494   4.450   2.101  10.490 -0.1328 -0.0206  0.1116
  219loPI   C1A 3495   4.921   2.122  10.234 -0.1725  0.2223 -0.1069
  219loPI   C2A 3496   5.056   1.914   9.865 -0.0188 -0.0736  0.0499
  219loPI   C3A 3497   5.039   2.011   9.503 -0.1624  0.2650  0.0514
  219loPI   C4A 3498   5.094   1.905   9.129 -0.0761 -0.1956  0.1663
  219loPI   C5A 3499   5.134   1.793   8.712 -0.2357 -0.1701  0.0132
  219loPI   C6A 3500   5.420   1.547   8.517 -0.1525  0.0872  0.2431
  219loPI   C1B 3501   4.502   2.083  10.017 -0.2439  0.3240 -0.0712
  219loPI   C2B 3502   4.538   2.167   9.658  0.0151  0.0124 -0.0066
  219loPI   C3B 3503   4.653   2.178   9.217 -0.0004  0.1070  0.2691
  219loPI   C4B 3504   4.788   2.158   8.772  0.3169  0.1188  0.1906
  220loPI    C1 3505   9.763   2.786  11.144  0.0884  0.0685  0.1157
  220loPI    C2 3506   9.741   2.477  11.397 -0.1740  0.0456  0.0673
  220loPI    C3 3507   9.821   2.844  11.535  0.1247 -0.0396  0.1269
  220loPI   PO4 3508   9.965   2.630  10.973  0.1100 -0.3784  0.2917
  220loPI   GL1 3509  10.109   2.470  10.635 -0.1707 -0.1621 -0.1483
  220loPI   GL2 3510  10.114   2.782  10.539 -0.0588  0.0167 -0.2294
  220loPI   C1A 3511  10.079   2.337  10.181  0.0656 -0.3064  0.0305
  220loPI   C2A 3512   9.999   2.294   9.782  0.0220 -0.0361 -0.1570
  220loPI   C3A 3513   9.939   2.295   9.309 -0.1885 -0.0502  0.3790
  220loPI   C4A 3514  10.012   2.357   8.865 -0.0183  0.1101 -0.1396
  220loPI   C5A 3515  10.141   2.265   8.504 -0.1598  0.2019 -0.1943
  220loPI   C6A 3516  10.005   1.822   8.321  0.0722  0.1912 -0.0264
  220loPI   C1B 3517   9.966   2.904  10.146  0.1744 -0.0181 -0.5744
  220loPI   C2B 3518   9.824   2.812   9.793 -0.0130 -0.1753  0.0507
  220loPI   C3B 3519   9.834   2.897   9.431 -0.1003 -0.0083  0.0771
  220loPI   C4B 3520  10.022   2.858   9.027 -0.1749 -0.2155  0.1685
  221loPI    C1 3521  17.573  14.662  11.044  0.0496 -0.0253 -0.0145
  221loPI    C2 3522  17.758  14.502  11.361  0.0339 -0.0788 -0.0321
  221loPI    C3 3523  17.537  14.833  11.404  0.0840 -0.0497  0.0006
  221loPI   PO4 3524  17.447  14.420  10.876 -0.0927  0.1358 -0.2162
  221loPI   GL1 3525  17.415  14.372  10.461  0.0259  0.1081 -0.2602
  221loPI   GL2 3526  17.216  14.203  10.368  0.2555 -0.0152  0.0487
  221loPI   C1A 3527  17.614  14.296  10.030 -0.0830  0.1243  0.2766
  221loPI   C2A 3528  17.571  14.204   9.553 -0.2005  0.1719 -0.1220
  221loPI   C3A 3529  17.632  14.255   9.222  0.2485 -0.1268 -0.0233
  221loPI   C4A 3530  17.635  14.395   8.787 -0.0798  0.2301 -0.0499
  221loPI   C5A 3531  17.847  14.761   8.554 -0.0628 -0.0119 -0.2647
  221loPI   C6A 3532  17.942  15.004   8.235  0.0224 -0.1464  0.3294
  221loPI   C1B 3533  17.159  14.344   9.936 -0.1379 -0.3082 -0.0753
  221loPI   C2B 3534  17.139  14.460   9.538 -0.0722 -0.0377 -0.0157
  221loPI   C3B 3535  17.194  14.455   9.087  0.0593 -0.1825  0.0606
  221loPI   C4B 3536  17.159  14.308   8.662  0.3665  0.1839  0.4518
  222loPI    C1 3537  13.944  16.402  11.181  0.2127  0.0200  0.0829
  222loPI    C2 3538  13.870  16.638  11.495 -0.0337  0.0934 -0.0280
  222loPI    C3 3539  14.063  16.291  11.547 -0.0912  0.0946  0.2073
  222loPI   PO4 3540  14.070  16.511  10.971  0.0827  0.0769  0.5614
  222loPI   GL1 3541  13.967  16.390  10.563  0.2254 -0.1775 -0.1552
  222loPI   GL2 3542  13.705  16.619  10.542 -0.2552 -0.2074 -0.3599
  222loPI   C1A 3543  14.116  16.105  10.259 -0.1675  0.0581  0.1037
  222loPI   C2A 3544  14.110  16.061   9.823 -0.1946 -0.1238  0.0207
  222loPI   C3A 3545  14.191  16.090   9.341 -0.1225 -0.1248  0.3861
  222loPI   C4A 3546  14.278  16.107   8.925  0.2229 -0.0880  0.0029
  222loPI   C5A 3547  14.555  16.011   8.546  0.2158  0.1935  0.1816
  222loPI   C6A 3548  14.848  16.227   8.460 -0.2954 -0.0654  0.1225
  222loPI   C1B 3549  13.745  16.711  10.150  0.2570 -0.0397 -0.1641
  222loPI   C2B 3550  13.963  16.905   9.880 -0.1771 -0.2705  0.0849
  222loPI   C3B 3551  14.118  16.962   9.433  0.1714 -0.0570 -0.1362
  222loPI   C4B 3552  14.073  17.161   9.042 -0.0770 -0.3322 -0.2548
  223loPI    C1 3553  11.377   0.801  11.032 -0.0904 -0.0580 -0.0895
  223loPI    C2 3554  11.050   0.700  11.239 -0.1305  0.3481  0.0538
  223loPI    C3 3555  11.279   1.004  11.363  0.2266  0.1568 -0.1228
  223loPI   PO4 3556  11.335   0.835  10.807 -0.0838  0.1171  0.1359
  223loPI   GL1 3557  11.170   1.174  10.563 -0.3833  0.0275  0.0279
  223loPI   GL2 3558  11.477   1.121  10.291  0.0154  0.1240  0.1237
  223loPI   C1A 3559  10.833   1.135  10.416  0.0151  0.3227  0.0436
  223loPI   C2A 3560  10.696   0.977  10.046 -0.0654  0.0376  0.0705
  223loPI   C3A 3561  10.642   1.136   9.631  0.1388  0.4026  0.0039
  223loPI   C4A 3562  10.546   1.056   9.249 -0.4267 -0.4377  0.1119
  223loPI   C5A 3563  10.495   1.058   8.771  0.1123 -0.0995  0.3628
  223loPI   C6A 3564  10.399   0.936   8.363 -0.2080  0.1432  0.0204
  223loPI   C1B 3565  11.558   1.299   9.925 -0.1337  0.3175 -0.1218
  223loPI   C2B 3566  11.837   1.572   9.612  0.1542  0.3686  0.0671
  223loPI   C3B 3567  11.750   1.593   9.161 -0.1506  0.0087 -0.2827
  223loPI   C4B 3568  11.362   1.669   9.009 -0.2386  0.2737 -0.1089
  224loPI    C1 3569  11.257  11.075  10.920  0.1597  0.1439  0.0812
  224loPI    C2 3570  11.472  11.352  11.114  0.1083  0.1146  0.1810
  224loPI    C3 3571  11.373  11.011  11.298 -0.1143  0.1734  0.1721
  224loPI   PO4 3572  11.405  11.112  10.662 -0.3523  0.2330  0.0024
  224loPI   GL1 3573  11.746  11.124  10.364  0.3046  0.1013 -0.0940
  224loPI   GL2 3574  11.737  11.471  10.557 -0.1889  0.1269  0.2459
  224loPI   C1A 3575  11.691  11.117   9.835  0.1385 -0.0220  0.2790
  224loPI   C2A 3576  11.639  11.283   9.412  0.0485 -0.3138 -0.0455
  224loPI   C3A 3577  11.811  11.248   8.936  0.1672 -0.0114 -0.1408
  224loPI   C4A 3578  12.156  10.989   8.776  0.1158  0.0551 -0.0124
  224loPI   C5A 3579  12.350  10.879   8.519  0.1332 -0.0719 -0.4331
  224loPI   C6A 3580  12.278  10.633   8.109 -0.1014  0.2076 -0.2025
  224loPI   C1B 3581  11.584  11.761  10.204  0.0947 -0.1535  0.1938
  224loPI   C2B 3582  11.541  11.747   9.808 -0.0252  0.2254  0.5276
  224loPI   C3B 3583  11.614  11.762   9.390  0.0179 -0.2942 -0.0126
  224loPI   C4B 3584  11.511  11.586   9.051  0.4123 -0.1341 -0.0659
  225loPI    C1 3585  11.906  14.183  11.393  0.0184  0.0197 -0.1011
  225loPI    C2 3586  11.573  14.401  11.442 -0.0968 -0.1673 -0.0406
  225loPI    C3 3587  11.922  14.532  11.588 -0.1557 -0.0012 -0.0474
  225loPI   PO4 3588  11.841  14.166  11.077 -0.0040  0.0805 -0.2518
  225loPI   GL1 3589  11.836  14.432  10.772 -0.0026  0.0233 -0.3377
  225loPI   GL2 3590  12.097  14.386  10.599 -0.2764 -0.0866  0.1178
  225loPI   C1A 3591  11.573  14.454  10.473  0.2367  0.1312  0.1888
  225loPI   C2A 3592  11.616  14.596  10.035 -0.3760 -0.1030  0.0000
  225loPI   C3A 3593  11.536  14.661   9.587 -0.1766  0.0197 -0.0118
  225loPI   C4A 3594  11.624  14.697   9.183  0.2372 -0.0447 -0.1061
  225loPI   C5A 3595  11.620  14.722   8.727  0.2784 -0.4543 -0.0797
  225loPI   C6A 3596  11.812  14.381   8.420 -0.3025  0.1699  0.4043
  225loPI   C1B 3597  12.086  14.473  10.132 -0.0533  0.1524  0.1010
  225loPI   C2B 3598  12.081  14.442   9.685 -0.1650 -0.0261  0.1578
  225loPI   C3B 3599  12.143  14.475   9.232 -0.1311  0.0157 -0.0450
  225loPI   C4B 3600  12.048  14.482   8.829 -0.0359 -0.3859 -0.1483
  226loPI    C1 3601   9.044  16.714  11.469  0.1197 -0.0497 -0.1376
  226loPI    C2 3602   9.015  16.398  11.713  0.2117  0.0933  0.0622
  226loPI    C3 3603   8.899  16.759  11.839  0.2322  0.1642 -0.1180
  226loPI   PO4 3604   8.986  16.581  11.168  0.4512  0.0146 -0.1156
  226loPI   GL1 3605   8.887  16.653  10.726 -0.0720  0.1274 -0.0522
  226loPI   GL2 3606   8.661  16.812  10.645 -0.3222  0.3562  0.1862
  226loPI   C1A 3607   9.114  16.638  10.363 -0.0813  0.1682  0.0515
  226loPI   C2A 3608   9.066  16.700   9.976  0.1575 -0.0010  0.0085
  226loPI   C3A 3609   9.114  16.600   9.590  0.2369  0.1929  0.0581
  226loPI   C4A 3610   9.026  16.582   9.140  0.3675 -0.2119 -0.0478
  226loPI   C5A 3611   9.001  16.550   8.764 -0.1119  0.3287 -0.3614
  226loPI   C6A 3612   9.156  16.793   8.456 -0.0142  0.1681 -0.2000
  226loPI   C1B 3613   8.627  16.863  10.207 -0.2237  0.2736  0.0203
  226loPI   C2B 3614   8.570  16.813   9.700 -0.1070 -0.3737 -0.1388
  226loPI   C3B 3615   8.594  16.793   9.310 -0.1254  0.1691 -0.0630
  226loPI   C4B 3616   8.636  16.835   8.817 -0.2784  0.0128  0.0808
  227loPI    C1 3617   2.294   1.998  11.140  0.0986 -0.0458  0.0191
  227loPI    C2 3618   2.578   2.017  11.421 -0.1222  0.1374  0.2350
  227loPI    C3 3619   2.279   2.282  11.422 -0.0939  0.1781 -0.2118
  227loPI   PO4 3620   2.451   1.947  10.839 -0.1116  0.2969 -0.0092
  227loPI   GL1 3621   2.524   1.860  10.356  0.2667  0.0462  0.0340
  227loPI   GL2 3622   2.790   1.929  10.132  0.1742  0.2190 -0.4379
  227loPI   C1A 3623   2.336   1.717   9.951 -0.3999  0.1870 -0.0511
  227loPI   C2A 3624   2.339   1.605   9.505  0.3969 -0.0671  0.2392
  227loPI   C3A 3625   2.484   1.641   9.094  0.1569  0.1237  0.1520
  227loPI   C4A 3626   2.363   1.662   8.662 -0.0390  0.1117 -0.3970
  227loPI   C5A 3627   2.423   1.770   8.260 -0.0800 -0.3336 -0.0336
  227loPI   C6A 3628   2.759   1.922   7.946  0.2133  0.1254  0.1062
  227loPI   C1B 3629   2.774   2.014   9.735 -0.3339  0.1385 -0.2304
  227loPI   C2B 3630   2.815   2.005   9.250 -0.2957  0.2244 -0.2051
  227loPI   C3B 3631   2.735   2.012   8.860 -0.0085  0.1521 -0.1670
  227loPI   C4B 3632   2.829   1.801   8.546  0.2284 -0.0498 -0.3447
  228loPI    C1 3633   0.256   1.686  10.864 -0.1276 -0.0292  0.2708
  228loPI    C2 3634   0.444   1.779  11.204 -0.0294 -0.0748  0.2295
  228loPI    C3 3635   0.604   1.511  10.954  0.0667  0.2031 -0.0118
  228loPI   PO4 3636   0.227   1.899  10.711 -0.0490  0.0721  0.2463
  228loPI   GL1 3637   0.453   1.967  10.338  0.1079 -0.2993  0.0318
  228loPI   GL2 3638   0.658   2.121  10.241 -0.3380  0.2690  0.0476
  228loPI   C1A 3639   0.501   1.983   9.788  0.1186 -0.2548 -0.1506
  228loPI   C2A 3640   0.574   2.010   9.343 -0.0569  0.3255  0.1021
  228loPI   C3A 3641   0.535   2.046   8.910  0.3285  0.0555  0.0761
  228loPI   C4A 3642   0.604   1.997   8.435  0.1160  0.0761 -0.0960
  228loPI   C5A 3643   0.793   2.225   8.181 -0.0210 -0.2843  0.0367
  228loPI   C6A 3644   1.101   2.424   8.279 -0.0016 -0.1309 -0.2880
  228loPI   C1B 3645   0.912   2.276   9.921  0.2327  0.2037 -0.2617
  228loPI   C2B 3646   0.966   2.206   9.576 -0.1486  0.0740  0.1183
  228loPI   C3B 3647   1.061   2.361   9.204  0.4996 -0.1185 -0.2205
  228loPI   C4B 3648   0.941   2.333   8.739 -0.0568 -0.0805  0.0077
  229loPI    C1 3649   1.401   3.138  11.048 -0.0786 -0.2627 -0.0474
  229loPI    C2 3650   1.614   2.987  10.745  0.0715 -0.0585 -0.0458
  229loPI    C3 3651   1.678   2.859  11.119  0.0719 -0.1198 -0.0668
  229loPI   PO4 3652   1.427   3.408  10.922 -0.0729  0.0797 -0.3741
  229loPI   GL1 3653   1.273   3.495  10.592  0.1149  0.1550 -0.0417
  229loPI   GL2 3654   1.334   3.222  10.422 -0.0169  0.0214 -0.1802
  229loPI   C1A 3655   1.381   3.690  10.203 -0.1572 -0.1771 -0.3605
  229loPI   C2A 3656   1.373   3.749   9.779 -0.0185 -0.0006 -0.0399
  229loPI   C3A 3657   1.374   3.738   9.298  0.1258  0.0346 -0.5742
  229loPI   C4A 3658   1.220   3.627   8.899 -0.0472 -0.2270 -0.2350
  229loPI   C5A 3659   1.009   3.358   8.676  0.2758 -0.1118  0.4288
  229loPI   C6A 3660   0.875   3.309   8.258 -0.0015 -0.2326 -0.0415
  229loPI   C1B 3661   1.435   3.210   9.982  0.2147 -0.1871  0.0720
  229loPI   C2B 3662   1.771   3.039   9.827 -0.4279 -0.3197  0.1450
  229loPI   C3B 3663   2.058   2.798   9.792  0.3522 -0.1525 -0.1877
  229loPI   C4B 3664   2.263   2.662   9.442 -0.2586  0.0298 -0.1310
  230loPI    C1 3665  11.818   4.109  10.834  0.0315 -0.1171 -0.0207
  230loPI    C2 3666  11.492   4.217  11.040  0.0497 -0.0329 -0.0358
  230loPI    C3 3667  11.856   4.274  11.196  0.0598 -0.0633 -0.0481
  230loPI   PO4 3668  11.820   4.193  10.594 -0.3143  0.0799 -0.0238
  230loPI   GL1 3669  11.697   4.183  10.266  0.1047  0.0830 -0.2227
  230loPI   GL2 3670  11.972   4.049  10.093  0.0227  0.0120  0.2003
  230loPI   C1A 3671  11.565   4.186   9.811  0.0880 -0.0780 -0.0330
  230loPI   C2A 3672  11.575   4.200   9.317 -0.2182  0.0275  0.3603
  230loPI   C3A 3673  11.561   4.081   8.934 -0.3323 -0.0638 -0.3240
  230loPI   C4A 3674  11.591   4.156   8.532  0.1864 -0.3760 -0.0066
  230loPI   C5A 3675  11.471   3.982   8.159  0.0855  0.0507 -0.0044
  230loPI   C6A 3676  11.469   4.005   7.707  0.3426  0.0715 -0.1752
  230loPI   C1B 3677  11.987   3.905   9.673 -0.2090 -0.2301 -0.0309
  230loPI   C2B 3678  11.992   3.901   9.265 -0.0616 -0.3376  0.2649
  230loPI   C3B 3679  12.030   3.928   8.834 -0.0651 -0.0359 -0.1585
  230loPI   C4B 3680  11.977   3.894   8.396 -0.0067  0.0959  0.1490
  231loPI    C1 3681   6.936   8.453  11.185 -0.1682  0.0542 -0.0743
  231loPI    C2 3682   6.596   8.331  11.357 -0.1461 -0.0284 -0.0889
  231loPI    C3 3683   6.933   8.121  11.407 -0.1046  0.0344 -0.1028
  231loPI   PO4 3684   6.844   8.604  10.904 -0.2715  0.1063 -0.2712
  231loPI   GL1 3685   6.932   8.445  10.535  0.0884 -0.2706 -0.1416
  231loPI   GL2 3686   6.630   8.660  10.463  0.2571  0.1224 -0.2754
  231loPI   C1A 3687   7.188   8.163  10.190  0.2679  0.1800 -0.1474
  231loPI   C2A 3688   7.156   8.024   9.740 -0.0935 -0.2603  0.2191
  231loPI   C3A 3689   7.180   8.054   9.346 -0.0649  0.1095  0.1252
  231loPI   C4A 3690   7.134   8.052   8.938  0.2355 -0.1697 -0.2119
  231loPI   C5A 3691   7.030   7.956   8.571 -0.0712  0.0306  0.2668
  231loPI   C6A 3692   6.808   7.757   8.259 -0.0782  0.3150  0.0081
  231loPI   C1B 3693   6.737   8.437  10.103  0.0462 -0.0155 -0.0964
  231loPI   C2B 3694   6.585   8.283   9.684  0.0808  0.0556 -0.0083
  231loPI   C3B 3695   6.716   8.256   9.304  0.1554  0.1641  0.0949
  231loPI   C4B 3696   6.605   8.182   8.846 -0.4978  0.2695 -0.1120
  232loPI    C1 3697   7.469   1.392  11.000 -0.0128 -0.1643  0.0647
  232loPI    C2 3698   7.282   1.292  11.339 -0.2137 -0.0466 -0.0096
  232loPI    C3 3699   7.120   1.562  11.094 -0.0432 -0.0917 -0.1744
  232loPI   PO4 3700   7.529   1.149  10.906 -0.1632 -0.4337  0.2164
  232loPI   GL1 3701   7.409   1.040  10.587  0.5401  0.1613  0.0997
  232loPI   GL2 3702   7.553   0.863  10.424 -0.2569 -0.2404  0.2468
  232loPI   C1A 3703   7.413   1.314  10.205 -0.0089 -0.2787 -0.2464
  232loPI   C2A 3704   7.384   1.427   9.766 -0.1523  0.1631  0.0040
  232loPI   C3A 3705   7.413   1.449   9.336  0.1316 -0.1211 -0.2145
  232loPI   C4A 3706   7.424   1.381   8.889 -0.1669  0.0253  0.0097
  232loPI   C5A 3707   7.582   1.415   8.474  0.0181 -0.0568 -0.2282
  232loPI   C6A 3708   7.381   1.262   8.143  0.3100  0.1277  0.2113
  232loPI   C1B 3709   7.553   0.905   9.950 -0.0048 -0.0404  0.1070
  232loPI   C2B 3710   7.470   0.942   9.502 -0.0564 -0.0083 -0.2727
  232loPI   C3B 3711   7.521   0.925   9.089  0.1517  0.2701 -0.0871
  232loPI   C4B 3712   7.400   0.916   8.628 -0.2669  0.2551 -0.0140
  233loPI    C1 3713   7.745   9.641  10.799 -0.1997  0.2750  0.0424
  233loPI    C2 3714   7.988   9.867  11.023  0.1525  0.0546 -0.1086
  233loPI    C3 3715   7.782   9.568  11.191 -0.0229  0.2445  0.0206
  233loPI   PO4 3716   7.817   9.748  10.595  0.0737  0.2511  0.3059
  233loPI   GL1 3717   7.903   9.707  10.210  0.1953 -0.1316  0.0738
  233loPI   GL2 3718   7.789   9.833   9.902 -0.0210  0.1688  0.0135
  233loPI   C1A 3719   8.050   9.427   9.852 -0.0727  0.0546 -0.2621
  233loPI   C2A 3720   7.996   9.209   9.349 -0.1559 -0.2070 -0.0587
  233loPI   C3A 3721   7.871   9.097   8.969  0.2326  0.0181  0.0672
  233loPI   C4A 3722   7.815   9.006   8.574 -0.0985 -0.3046 -0.1227
  233loPI   C5A 3723   7.983   9.225   8.167 -0.2363  0.0764 -0.1640
  233loPI   C6A 3724   8.273   9.361   7.798 -0.0735  0.0419 -0.0934
  233loPI   C1B 3725   7.558   9.888   9.509 -0.0890  0.1274  0.1691
  233loPI   C2B 3726   7.441   9.911   9.106  0.0322 -0.1679  0.1332
  233loPI   C3B 3727   7.411   9.969   8.662  0.1397 -0.2131  0.0215
  233loPI   C4B 3728   7.516  10.006   8.227  0.0532 -0.0790 -0.0249
  234loPI    C1 3729  16.931  15.888  11.480 -0.1587 -0.0586  0.0766
  234loPI    C2 3730  17.180  16.191  11.553 -0.2420  0.1091 -0.3097
  234loPI    C3 3731  17.307  15.814  11.595 -0.0994  0.1922  0.0492
  234loPI   PO4 3732  16.811  15.950  11.273 -0.0930 -0.0939 -0.0566
  234loPI   GL1 3733  16.833  15.948  10.895 -0.0753  0.0090  0.3033
  234loPI   GL2 3734  16.612  16.243  10.917 -0.0699  0.0471 -0.2156
  234loPI   C1A 3735  16.804  15.992  10.350  0.0440 -0.1635 -0.1875
  234loPI   C2A 3736  16.867  15.966   9.922  0.0612 -0.3297  0.0875
  234loPI   C3A 3737  17.010  16.025   9.579 -0.2530  0.0598  0.1608
  234loPI   C4A 3738  17.008  16.002   9.173 -0.0123  0.2398  0.0976
  234loPI   C5A 3739  16.909  16.070   8.736  0.1466 -0.1655 -0.0015
  234loPI   C6A 3740  16.467  16.200   8.595  0.0322 -0.0109 -0.0656
  234loPI   C1B 3741  16.431  16.245  10.497 -0.0584 -0.4238  0.2475
  234loPI   C2B 3742  16.476  16.237  10.061 -0.1673  0.0865  0.1119
  234loPI   C3B 3743  16.459  16.233   9.637 -0.0395  0.2644  0.0991
  234loPI   C4B 3744  16.556  16.176   9.200 -0.1915 -0.0494 -0.3070
  235loPI    C1 3745  12.267  16.614  11.376  0.1218  0.0121 -0.0508
  235loPI    C2 3746  12.371  16.981  11.495 -0.1049  0.0962 -0.1063
  235loPI    C3 3747  12.162  16.744  11.739  0.0579 -0.0045 -0.0631
  235loPI   PO4 3748  12.267  16.692  11.055  0.2480 -0.0549  0.2273
  235loPI   GL1 3749  12.092  16.489  10.677  0.0811 -0.1576  0.0744
  235loPI   GL2 3750  12.346  16.691  10.532  0.0215  0.0600 -0.1085
  235loPI   C1A 3751  11.798  16.416  10.374 -0.2187 -0.3150  0.4414
  235loPI   C2A 3752  11.761  16.503   9.874  0.2764 -0.2412 -0.4044
  235loPI   C3A 3753  11.886  16.564   9.414 -0.1520  0.1550 -0.0590
  235loPI   C4A 3754  11.895  16.500   8.894  0.0111 -0.0604 -0.1688
  235loPI   C5A 3755  12.073  16.707   8.649 -0.0897 -0.3132  0.0714
  235loPI   C6A 3756  12.479  16.764   8.570 -0.0394  0.0058  0.1901
  235loPI   C1B 3757  12.256  16.742  10.114  0.1296 -0.0492 -0.0877
  235loPI   C2B 3758  12.215  16.811   9.732  0.1532  0.0758  0.0110
  235loPI   C3B 3759  12.388  17.124   9.420  0.0702  0.1609  0.1545
  235loPI   C4B 3760  12.254  17.105   8.992 -0.0751  0.0565 -0.2148
  236loPI    C1 3761  16.321   9.300  11.474 -0.0599  0.0099  0.0682
  236loPI    C2 3762  16.028   9.035  11.539  0.1602 -0.2218  0.1331
  236loPI    C3 3763  16.018   9.393  11.718 -0.1529 -0.1734  0.0246
  236loPI   PO4 3764  16.312   9.362  11.210 -0.3223 -0.1826 -0.1447
  236loPI   GL1 3765  16.375   9.406  10.769 -0.2344 -0.1728 -0.3366
  236loPI   GL2 3766  16.241   9.609  10.478  0.0193  0.0564 -0.0272
  236loPI   C1A 3767  16.194   9.042  10.501 -0.1039 -0.1018 -0.0290
  236loPI   C2A 3768  16.238   8.894  10.169 -0.0828 -0.4212  0.0212
  236loPI   C3A 3769  16.369   8.958   9.755 -0.1176 -0.0683 -0.2662
  236loPI   C4A 3770  16.427   8.831   9.405  0.0064  0.0499  0.0282
  236loPI   C5A 3771  16.460   8.913   9.063  0.0447  0.1794 -0.1167
  236loPI   C6A 3772  16.478   9.034   8.659 -0.0438  0.1331 -0.1466
  236loPI   C1B 3773  16.386   9.454  10.043  0.4526  0.0394 -0.1810
  236loPI   C2B 3774  16.387   9.430   9.571  0.0970 -0.2024 -0.1546
  236loPI   C3B 3775  16.442   9.456   9.158 -0.2270  0.0534  0.0446
  236loPI   C4B 3776  16.460   9.524   8.816  0.0376 -0.3576  0.2385
  237loPI    C1 3777   3.303  11.902  11.257  0.0590 -0.0198  0.0434
  237loPI    C2 3778   3.505  11.558  11.216 -0.0531 -0.0951  0.1167
  237loPI    C3 3779   3.604  11.815  11.506 -0.1450 -0.1914  0.2342
  237loPI   PO4 3780   3.338  12.009  10.985 -0.5472 -0.0095 -0.0669
  237loPI   GL1 3781   3.124  11.981  10.669 -0.2309 -0.3259 -0.0129
  237loPI   GL2 3782   3.295  12.323  10.527  0.0614 -0.1768 -0.0254
  237loPI   C1A 3783   3.153  11.762  10.333 -0.5093  0.0291 -0.0133
  237loPI   C2A 3784   3.190  11.786   9.884  0.1313 -0.1107  0.0715
  237loPI   C3A 3785   3.202  11.686   9.545 -0.1076 -0.2848  0.0345
  237loPI   C4A 3786   3.282  11.743   9.120  0.1284 -0.3792 -0.4004
  237loPI   C5A 3787   3.555  11.647   8.797  0.0576 -0.3379  0.1170
  237loPI   C6A 3788   3.659  11.605   8.423 -0.0753 -0.0449  0.1608
  237loPI   C1B 3789   3.172  12.236  10.057 -0.2048 -0.3039  0.2885
  237loPI   C2B 3790   3.220  12.246   9.756 -0.0635  0.0345  0.2487
  237loPI   C3B 3791   3.168  12.297   9.321  0.1717  0.4153  0.4364
  237loPI   C4B 3792   3.234  12.186   8.844  0.0695  0.1180  0.4915
  238loPI    C1 3793   6.482   9.100  10.959 -0.0978 -0.0094  0.0142
  238loPI    C2 3794   6.599   8.876  11.269 -0.0216  0.0605  0.0364
  238loPI    C3 3795   6.458   9.245  11.331 -0.0824  0.0447 -0.0058
  238loPI   PO4 3796   6.657   9.059  10.809 -0.0790 -0.2920  0.0217
  238loPI   GL1 3797   6.766   9.207  10.430  0.2107  0.1735  0.1473
  238loPI   GL2 3798   6.930   9.481  10.358 -0.0434  0.1388  0.0168
  238loPI   C1A 3799   6.629   8.946  10.111 -0.1443 -0.0245  0.1775
  238loPI   C2A 3800   6.779   8.767   9.768  0.0494 -0.0954  0.1675
  238loPI   C3A 3801   6.623   8.744   9.304 -0.2091  0.3457 -0.3479
  238loPI   C4A 3802   6.571   8.664   8.902  0.0951  0.0191 -0.3656
  238loPI   C5A 3803   6.536   8.883   8.488  0.0345  0.1402  0.3508
  238loPI   C6A 3804   6.672   9.229   8.200 -0.0360  0.0535 -0.0108
  238loPI   C1B 3805   6.830   9.375   9.958  0.0506 -0.2272 -0.3663
  238loPI   C2B 3806   6.501   9.160   9.547 -0.0308  0.1381  0.1631
  238loPI   C3B 3807   6.163   8.966   9.289  0.3090 -0.1745  0.0142
  238loPI   C4B 3808   6.133   8.950   8.918  0.0485  0.0473  0.0183
  239loPI    C1 3809  16.562   2.899  10.938  0.1120  0.1915  0.1893
  239loPI    C2 3810  16.213   3.074  10.851  0.1290  0.0513 -0.1774
  239loPI    C3 3811  16.400   3.160  11.194 -0.2323  0.1759 -0.0074
  239loPI   PO4 3812  16.691   2.955  10.745 -0.0166  0.2792 -0.2082
  239loPI   GL1 3813  16.454   2.982  10.409 -0.0959 -0.3987  0.0741
  239loPI   GL2 3814  16.528   3.332  10.293 -0.0388 -0.1114 -0.0130
  239loPI   C1A 3815  16.567   2.908   9.999 -0.1229  0.0781 -0.1443
  239loPI   C2A 3816  16.523   2.739   9.564 -0.0427 -0.0291  0.0910
  239loPI   C3A 3817  16.506   2.862   9.174 -0.0412  0.0401  0.0208
  239loPI   C4A 3818  16.628   2.890   8.706 -0.1410 -0.0786  0.1374
  239loPI   C5A 3819  16.705   2.972   8.326 -0.3109  0.2593  0.0282
  239loPI   C6A 3820  16.600   2.720   7.953 -0.2749 -0.1466  0.0899
  239loPI   C1B 3821  16.528   3.414   9.839  0.1656  0.0667 -0.0122
  239loPI   C2B 3822  16.468   3.438   9.404 -0.4164 -0.0103 -0.1186
  239loPI   C3B 3823  16.540   3.427   9.001 -0.0221  0.1920 -0.1270
  239loPI   C4B 3824  16.508   3.364   8.526  0.0619 -0.1084 -0.1005
  240loPI    C1 3825   6.620   6.229  11.278  0.0821 -0.1804 -0.1232
  240loPI    C2 3826   6.999   6.250  11.152  0.1151  0.0164  0.0048
  240loPI    C3 3827   6.908   6.034  11.476  0.0728 -0.2619 -0.1893
  240loPI   PO4 3828   6.468   6.210  11.084 -0.0628 -0.1049  0.1320
  240loPI   GL1 3829   6.342   6.370  10.585 -0.0958  0.2238 -0.0425
  240loPI   GL2 3830   6.487   6.714  10.490 -0.0233 -0.1337  0.0159
  240loPI   C1A 3831   6.507   6.304  10.183  0.1365 -0.1783 -0.0694
  240loPI   C2A 3832   6.435   6.296   9.794 -0.3781  0.2448  0.1745
  240loPI   C3A 3833   6.407   6.337   9.324  0.0763  0.0461  0.0130
  240loPI   C4A 3834   6.462   6.307   8.809 -0.1319  0.0644 -0.1594
  240loPI   C5A 3835   6.201   6.488   8.464 -0.0996 -0.0987 -0.0739
  240loPI   C6A 3836   6.054   6.582   8.119 -0.1683  0.0793 -0.1228
  240loPI   C1B 3837   6.412   6.934  10.088  0.2161  0.0629 -0.2636
  240loPI   C2B 3838   6.346   6.926   9.612  0.2459 -0.0941  0.1643
  240loPI   C3B 3839   6.403   6.954   9.222 -0.0094 -0.2541  0.2311
  240loPI   C4B 3840   6.359   6.856   8.855 -0.0638  0.0763 -0.0081
  241loPI    C1 3841  14.097   5.894  10.941 -0.0670 -0.0738 -0.0934
  241loPI    C2 3842  14.022   5.812  11.325  0.0326  0.0610 -0.0445
  241loPI    C3 3843  14.399   5.858  11.200  0.0004  0.0203 -0.1581
  241loPI   PO4 3844  14.070   5.749  10.817 -0.1552 -0.0609  0.3113
  241loPI   GL1 3845  14.312   5.580  10.401  0.0829 -0.1411 -0.0879
  241loPI   GL2 3846  14.249   5.416  10.194  0.1078  0.1683  0.0188
  241loPI   C1A 3847  14.416   5.761   9.922 -0.0306 -0.0207  0.0421
  241loPI   C2A 3848  14.423   5.713   9.533 -0.2923 -0.3210  0.1659
  241loPI   C3A 3849  14.444   5.826   9.091 -0.1578  0.0572 -0.0346
  241loPI   C4A 3850  14.477   5.816   8.663  0.0246 -0.0258 -0.1093
  241loPI   C5A 3851  14.344   5.734   8.267 -0.0357  0.0054  0.0910
  241loPI   C6A 3852  14.467   5.295   8.247 -0.1999 -0.0702 -0.0906
  241loPI   C1B 3853  14.010   5.439   9.807 -0.1051  0.3106 -0.0779
  241loPI   C2B 3854  14.002   5.540   9.366 -0.0825  0.0162 -0.2064
  241loPI   C3B 3855  14.015   5.518   8.970 -0.2726  0.0395  0.0762
  241loPI   C4B 3856  14.065   5.520   8.566  0.0744  0.2886  0.0465
  242loPI    C1 3857  14.479   1.992  11.018 -0.0518  0.2451  0.4041
  242loPI    C2 3858  14.194   1.723  10.940 -0.0571  0.3545  0.0244
  242loPI    C3 3859  14.125   2.017  11.202 -0.1120  0.0920  0.3107
  242loPI   PO4 3860  14.621   2.062  10.811  0.2217 -0.0539  0.0845
  242loPI   GL1 3861  14.558   2.224  10.370 -0.1509 -0.2892 -0.2224
  242loPI   GL2 3862  14.827   2.129  10.348  0.1467  0.2260 -0.3401
  242loPI   C1A 3863  14.340   2.274   9.903 -0.2479 -0.0934  0.1982
  242loPI   C2A 3864  14.380   2.262   9.479  0.0425 -0.1414  0.1216
  242loPI   C3A 3865  14.349   2.386   9.056  0.2857  0.0191 -0.0762
  242loPI   C4A 3866  14.376   2.360   8.632 -0.0270 -0.1438 -0.0911
  242loPI   C5A 3867  14.478   2.207   8.283 -0.1929 -0.2089  0.1823
  242loPI   C6A 3868  14.814   2.177   7.963  0.1560  0.2646  0.0889
  242loPI   C1B 3869  14.832   2.040   9.923 -0.1049  0.1051  0.2490
  242loPI   C2B 3870  14.888   2.156   9.574  0.1903  0.1005 -0.2117
  242loPI   C3B 3871  14.813   2.119   9.317 -0.1953  0.0659 -0.1287
  242loPI   C4B 3872  14.806   2.176   8.844 -0.0536 -0.1100 -0.0939
  243loPI    C1 3873  11.508  14.881  11.529  0.0782 -0.0550 -0.3868
  243loPI    C2 3874  11.397  15.266  11.538 -0.0351 -0.0914 -0.0735
  243loPI    C3 3875  11.683  15.135  11.785  0.0626 -0.1923 -0.2382
  243loPI   PO4 3876  11.442  14.868  11.228  0.0364  0.2409  0.0401
  243loPI   GL1 3877  11.447  14.879  10.805 -0.2134 -0.0970 -0.1164
  243loPI   GL2 3878  11.774  14.899  10.704 -0.3964  0.1404 -0.3834
  243loPI   C1A 3879  11.235  14.782  10.379  0.1998  0.0181 -0.2004
  243loPI   C2A 3880  11.147  14.838   9.944 -0.1796 -0.5315  0.0361
  243loPI   C3A 3881  11.083  14.875   9.478 -0.2314  0.1361 -0.1657
  243loPI   C4A 3882  11.189  14.867   9.068 -0.2474  0.4292  0.1231
  243loPI   C5A 3883  11.055  14.827   8.705 -0.2474 -0.5207  0.0995
  243loPI   C6A 3884  11.021  15.007   8.424 -0.0939 -0.1350 -0.0999
  243loPI   C1B 3885  11.597  15.066  10.247  0.3662 -0.0399 -0.3136
  243loPI   C2B 3886  11.496  15.238   9.890  0.0798  0.3325 -0.0024
  243loPI   C3B 3887  11.540  15.160   9.380 -0.3293  0.1282  0.2294
  243loPI   C4B 3888  11.581  15.182   8.948  0.1447  0.3626 -0.0685
  244loPI    C1 3889  11.113   7.247  10.602  0.2654  0.0043  0.2222
  244loPI    C2 3890  11.414   7.052  10.779  0.2101 -0.0224  0.2877
  244loPI    C3 3891  11.339   7.433  10.874  0.2058 -0.0243  0.2915
  244loPI   PO4 3892  11.123   7.219  10.410 -0.0910  0.1502  0.1116
  244loPI   GL1 3893  11.067   7.395  10.029 -0.1227  0.0503  0.0923
  244loPI   GL2 3894  10.834   7.701   9.904  0.0768 -0.0051 -0.1303
  244loPI   C1A 3895  11.133   7.248   9.545 -0.3132 -0.1647 -0.1840
  244loPI   C2A 3896  11.185   7.293   9.164  0.0819  0.1855 -0.2284
  244loPI   C3A 3897  11.148   7.231   8.738  0.0232 -0.1615 -0.2011
  244loPI   C4A 3898  11.227   7.309   8.409  0.1378 -0.1429  0.2567
  244loPI   C5A 3899  11.314   7.701   8.384  0.0757  0.0952 -0.1523
  244loPI   C6A 3900  11.507   8.086   8.611 -0.3362 -0.1234  0.0561
  244loPI   C1B 3901  10.699   7.521   9.614 -0.1057 -0.3780 -0.0064
  244loPI   C2B 3902  10.302   7.453   9.321 -0.1047 -0.1600  0.2043
  244loPI   C3B 3903  10.264   7.155   8.957 -0.1549 -0.1581  0.0107
  244loPI   C4B 3904  10.241   6.927   8.525 -0.0444  0.0827  0.3876
  245loPI    C1 3905  17.100   3.987  11.034  0.2204  0.0132  0.0829
  245loPI    C2 3906  17.237   4.256  10.771 -0.0503  0.1592  0.0880
  245loPI    C3 3907  17.218   4.348  11.159 -0.0054  0.0793  0.1093
  245loPI   PO4 3908  16.904   3.881  10.923  0.0378 -0.0727  0.0681
  245loPI   GL1 3909  16.851   3.843  10.549 -0.1267 -0.0294 -0.0620
  245loPI   GL2 3910  16.809   4.146  10.441 -0.2044  0.0893 -0.1269
  245loPI   C1A 3911  16.925   3.650  10.186  0.0878  0.0378 -0.1592
  245loPI   C2A 3912  16.979   3.628   9.654  0.1968 -0.0541  0.1551
  245loPI   C3A 3913  16.912   3.685   9.278  0.1911 -0.1551 -0.0293
  245loPI   C4A 3914  16.947   3.724   8.868  0.2711  0.1652  0.1444
  245loPI   C5A 3915  17.185   3.763   8.470  0.2119 -0.2005 -0.1093
  245loPI   C6A 3916  17.057   4.042   8.208  0.0149 -0.0167  0.1098
  245loPI   C1B 3917  16.835   4.198   9.997 -0.3810  0.1117  0.0359
  245loPI   C2B 3918  16.906   4.205   9.587  0.2233 -0.1426 -0.0891
  245loPI   C3B 3919  16.903   4.238   9.180 -0.0382 -0.0017  0.2478
  245loPI   C4B 3920  16.933   4.309   8.831  0.1711  0.0514 -0.0055
  246loPI    C1 3921  11.040   5.091  11.062 -0.2420 -0.2531  0.0680
  246loPI    C2 3922  11.232   5.003  11.402 -0.2432 -0.0026  0.1357
  246loPI    C3 3923  11.054   5.359  11.359  0.0544  0.1061 -0.2592
  246loPI   PO4 3924  11.170   5.132  10.788  0.0691  0.0567 -0.1184
  246loPI   GL1 3925  11.190   4.971  10.342  0.1439 -0.2511 -0.4823
  246loPI   GL2 3926  10.977   4.926  10.018  0.2065 -0.0276  0.1138
  246loPI   C1A 3927  11.449   4.723  10.066 -0.4558  0.5687  0.1991
  246loPI   C2A 3928  11.493   4.660   9.588 -0.1443 -0.1087  0.0076
  246loPI   C3A 3929  11.469   4.671   9.147 -0.0548  0.1089 -0.0376
  246loPI   C4A 3930  11.537   4.610   8.721 -0.2205  0.0023  0.0813
  246loPI   C5A 3931  11.541   4.576   8.253  0.0657 -0.1638  0.2413
  246loPI   C6A 3932  11.788   4.265   7.947  0.1169  0.1463  0.4540
  246loPI   C1B 3933  10.981   4.875   9.537 -0.2326 -0.1721 -0.1367
  246loPI   C2B 3934  10.954   4.779   9.120 -0.1116  0.1439  0.1598
  246loPI   C3B 3935  11.081   4.744   8.645  0.2340 -0.0715 -0.1560
  246loPI   C4B 3936  11.156   4.853   8.252 -0.1028  0.2418 -0.0448
  247loPI    C1 3937   7.879   2.256  11.188  0.1403 -0.0497  0.2645
  247loPI    C2 3938   8.006   2.635  11.195 -0.0506  0.0165  0.2207
  247loPI    C3 3939   7.915   2.448  11.537  0.0447  0.0092  0.2425
  247loPI   PO4 3940   8.057   2.129  11.026 -0.1069  0.0378 -0.0310
  247loPI   GL1 3941   8.052   1.858  10.644 -0.0946  0.3271 -0.1315
  247loPI   GL2 3942   8.259   1.632  10.631 -0.0458  0.3167 -0.1354
  247loPI   C1A 3943   7.847   2.185  10.419 -0.0687  0.0818 -0.0537
  247loPI   C2A 3944   7.777   2.205   9.989 -0.0172  0.2242  0.0081
  247loPI   C3A 3945   7.763   2.262   9.537  0.0186  0.2168  0.1104
  247loPI   C4A 3946   7.682   2.238   9.108  0.1723 -0.1032 -0.2160
  247loPI   C5A 3947   7.649   2.164   8.747  0.3065  0.0170  0.1406
  247loPI   C6A 3948   7.852   1.917   8.463  0.0334 -0.0529  0.0832
  247loPI   C1B 3949   8.356   1.577  10.124 -0.1642  0.4468  0.0704
  247loPI   C2B 3950   8.276   1.553   9.735 -0.0971  0.2340  0.3380
  247loPI   C3B 3951   8.310   1.498   9.338  0.0320 -0.1413 -0.0019
  247loPI   C4B 3952   8.311   1.582   8.976 -0.0253  0.0706 -0.2924
  248loPI    C1 3953  11.067   8.657  10.686  0.2705  0.0164  0.0511
  248loPI    C2 3954  11.106   8.786  11.063  0.1813 -0.0612  0.0876
  248loPI    C3 3955  10.787   8.569  10.958  0.1500  0.0536 -0.0597
  248loPI   PO4 3956  11.184   8.845  10.559  0.0172  0.0338  0.0878
  248loPI   GL1 3957  11.325   8.941  10.101 -0.3268 -0.1665 -0.0637
  248loPI   GL2 3958  11.612   9.038  10.026  0.2217  0.0502  0.0757
  248loPI   C1A 3959  11.130   9.101   9.716 -0.0194  0.1180 -0.0348
  248loPI   C2A 3960  10.846   9.106   9.394 -0.0208 -0.2331 -0.1320
  248loPI   C3A 3961  10.638   9.037   9.011  0.3041 -0.2248  0.0948
  248loPI   C4A 3962  10.236   9.003   8.857  0.1865  0.0177  0.1906
  248loPI   C5A 3963  10.087   8.908   8.505  0.0457 -0.1722  0.0392
  248loPI   C6A 3964   9.856   8.687   8.151 -0.2126 -0.0217  0.0006
  248loPI   C1B 3965  11.906   8.877   9.682  0.2405 -0.0013  0.1444
  248loPI   C2B 3966  11.778   8.928   9.332  0.3268  0.1370 -0.0218
  248loPI   C3B 3967  11.334   9.159   9.202  0.0981 -0.0379 -0.1473
  248loPI   C4B 3968  11.188   9.535   9.374 -0.0243 -0.4593  0.1047
  249loPI    C1 3969   9.895   7.279  10.394  0.0596  0.0034 -0.2036
  249loPI    C2 3970  10.241   7.120  10.273  0.1399 -0.0172  0.0490
  249loPI    C3 3971  10.148   7.126  10.662 -0.1243  0.0286 -0.0129
  249loPI   PO4 3972   9.734   7.246  10.201  0.2270  0.3301  0.1924
  249loPI   GL1 3973   9.532   7.200   9.875  0.0133  0.1100 -0.0642
  249loPI   GL2 3974   9.373   7.446   9.691  0.0986 -0.0473 -0.0707
  249loPI   C1A 3975   9.811   7.296   9.537 -0.2016  0.0440  0.3345
  249loPI   C2A 3976   9.844   7.261   9.123  0.0491  0.0225  0.1076
  249loPI   C3A 3977   9.796   7.211   8.673  0.3236 -0.0736 -0.1425
  249loPI   C4A 3978   9.545   6.985   8.336 -0.0005  0.1755  0.2949
  249loPI   C5A 3979   9.421   6.596   8.152 -0.0817 -0.0136 -0.2166
  249loPI   C6A 3980   9.101   6.341   7.972 -0.1657  0.3518  0.1796
  249loPI   C1B 3981   9.407   7.457   9.265 -0.0559 -0.1646 -0.0279
  249loPI   C2B 3982   9.413   7.416   8.956 -0.2599 -0.1392 -0.0881
  249loPI   C3B 3983   9.390   6.934   8.789 -0.0461  0.1437 -0.1897
  249loPI   C4B 3984   9.471   6.488   8.654 -0.1859 -0.0942 -0.0433
  250loPI    C1 3985  14.917   6.663  10.986  0.1561  0.1767 -0.0394
  250loPI    C2 3986  14.788   6.896  11.284  0.3162  0.0492  0.1317
  250loPI    C3 3987  14.640   6.527  11.240  0.0667  0.1773 -0.1356
  250loPI   PO4 3988  14.979   6.768  10.781  0.0156 -0.2181  0.0415
  250loPI   GL1 3989  15.109   6.694  10.461  0.1433 -0.0542  0.1401
  250loPI   GL2 3990  14.933   6.564  10.260 -0.0152  0.1093  0.0275
  250loPI   C1A 3991  15.214   6.929  10.064 -0.0064  0.1134 -0.1401
  250loPI   C2A 3992  15.235   6.850   9.684  0.3115 -0.0825 -0.0136
  250loPI   C3A 3993  15.198   6.862   9.283 -0.3099 -0.2071 -0.1094
  250loPI   C4A 3994  15.276   6.967   8.906  0.1108 -0.2009  0.0330
  250loPI   C5A 3995  15.114   7.163   8.553 -0.0458 -0.1616 -0.2457
  250loPI   C6A 3996  15.144   7.149   8.093  0.1389 -0.0460 -0.1460
  250loPI   C1B 3997  14.769   6.532   9.893  0.1067  0.4317  0.0869
  250loPI   C2B 3998  14.839   6.531   9.465  0.2450 -0.2568 -0.1543
  250loPI   C3B 3999  14.826   6.620   9.003  0.4576 -0.1604 -0.3810
  250loPI   C4B 4000  14.850   6.748   8.668  0.2145  0.2861 -0.2174
  251loPI    C1 4001   1.833  14.705  10.678  0.1687 -0.1408 -0.1043
  251loPI    C2 4002   1.624  14.987  10.868  0.1801 -0.1551 -0.0705
  251loPI    C3 4003   1.482  14.614  10.846  0.1571 -0.1428 -0.1297
  251loPI   PO4 4004   2.048  14.777  10.712 -0.1134  0.2456 -0.0708
  251loPI   GL1 4005   2.158  14.867  10.290  0.1091 -0.0541  0.0695
  251loPI   GL2 4006   1.942  14.706  10.162  0.0093  0.2647 -0.2904
  251loPI   C1A 4007   2.443  14.610   9.989 -0.2017  0.0396 -0.0507
  251loPI   C2A 4008   2.509  14.512   9.572  0.0437  0.1436  0.2499
  251loPI   C3A 4009   2.466  14.555   9.132  0.0692  0.0678  0.0759
  251loPI   C4A 4010   2.516  14.588   8.615 -0.1768  0.0852  0.0250
  251loPI   C5A 4011   2.811  14.861   8.344  0.3845  0.0502 -0.2407
  251loPI   C6A 4012   3.160  15.086   8.336  0.1840  0.2734 -0.2990
  251loPI   C1B 4013   2.024  14.686   9.685 -0.0613 -0.0489  0.1709
  251loPI   C2B 4014   1.986  14.718   9.290  0.0170 -0.0743 -0.0177
  251loPI   C3B 4015   2.081  14.756   8.882 -0.1439 -0.0880 -0.2337
  251loPI   C4B 4016   1.785  14.909   8.520  0.1711  0.0067 -0.2064
  252loPI    C1 4017  10.135  14.289  11.173  0.0841  0.0088 -0.0485
  252loPI    C2 4018  10.324  14.326  11.524  0.0907  0.3489 -0.0845
  252loPI    C3 4019  10.531  14.342  11.182  0.0547  0.2514 -0.1113
  252loPI   PO4 4020   9.865  14.451  11.265 -0.3412 -0.0182  0.0088
  252loPI   GL1 4021   9.513  14.334  10.984 -0.0910 -0.2057  0.2096
  252loPI   GL2 4022   9.786  14.029  10.949 -0.1075  0.2476  0.2526
  252loPI   C1A 4023   9.412  14.474  10.573  0.0637  0.2477 -0.2001
  252loPI   C2A 4024   9.256  14.559  10.182  0.0932  0.0421  0.5638
  252loPI   C3A 4025   9.359  14.591   9.784 -0.0386 -0.1795  0.4288
  252loPI   C4A 4026   9.272  14.670   9.274  0.0469  0.0687  0.1763
  252loPI   C5A 4027   9.455  14.548   8.832  0.2116  0.0671 -0.3225
  252loPI   C6A 4028   9.444  14.276   8.434 -0.1751 -0.2781  0.0802
  252loPI   C1B 4029   9.561  13.999  10.565  0.2592  0.0610 -0.0132
  252loPI   C2B 4030   9.412  14.030  10.200 -0.0338  0.6123  0.1784
  252loPI   C3B 4031   9.400  14.057   9.704 -0.2400  0.1803  0.2208
  252loPI   C4B 4032   9.390  14.140   9.238  0.0426  0.0317  0.2716
  253loPI    C1 4033   7.276  11.167  11.076 -0.2472  0.0785 -0.0112
  253loPI    C2 4034   7.580  11.177  11.337 -0.0829  0.1834 -0.2037
  253loPI    C3 4035   7.213  11.285  11.453 -0.0891 -0.1299  0.0829
  253loPI   PO4 4036   7.415  11.281  10.821  0.0041  0.4755  0.0155
  253loPI   GL1 4037   7.381  11.369  10.424  0.4157 -0.2519  0.1102
  253loPI   GL2 4038   7.092  11.137  10.305  0.0351 -0.3459 -0.2440
  253loPI   C1A 4039   7.295  11.456   9.957 -0.1889  0.0098 -0.0578
  253loPI   C2A 4040   7.308  11.348   9.483 -0.0040  0.0912  0.0303
  253loPI   C3A 4041   7.372  11.483   9.104  0.1637 -0.3769  0.1439
  253loPI   C4A 4042   7.335  11.456   8.650  0.0169  0.1505 -0.2075
  253loPI   C5A 4043   7.691  11.268   8.453  0.2468 -0.0961 -0.2865
  253loPI   C6A 4044   8.141  11.192   8.237  0.1611  0.0283  0.2849
  253loPI   C1B 4045   7.004  10.989   9.952 -0.0139 -0.1528 -0.0387
  253loPI   C2B 4046   6.875  11.067   9.578 -0.3425 -0.1130 -0.3232
  253loPI   C3B 4047   6.936  11.186   9.186  0.0699 -0.0002  0.1428
  253loPI   C4B 4048   6.881  11.086   8.765  0.1424 -0.1323  0.3645
  254loPI    C1 4049   0.986  11.359  11.060  0.0086  0.4265  0.0350
  254loPI    C2 4050   1.243  11.347  11.366  0.0521 -0.3357 -0.0111
  254loPI    C3 4051   0.853  11.287  11.430  0.0254 -0.2317 -0.0739
  254loPI   PO4 4052   1.022  11.247  10.868 -0.2679  0.3322  0.0972
  254loPI   GL1 4053   0.720  10.964  10.656 -0.1660 -0.1689  0.2907
  254loPI   GL2 4054   0.391  10.705  10.672 -0.3898 -0.3359  0.2302
  254loPI   C1A 4055   0.975  10.836  10.239 -0.1626  0.0567 -0.0431
  254loPI   C2A 4056   1.125  10.760   9.894 -0.1795  0.0499 -0.2709
  254loPI   C3A 4057   1.058  10.664   9.521  0.2603 -0.0173 -0.1891
  254loPI   C4A 4058   1.002  10.652   9.049 -0.1395 -0.1398 -0.0093
  254loPI   C5A 4059   0.963  10.833   8.650 -0.2841 -0.0042 -0.2603
  254loPI   C6A 4060   0.703  11.106   8.269 -0.2358  0.2719 -0.2239
  254loPI   C1B 4061   0.294  10.605  10.336  0.0701 -0.0561  0.1373
  254loPI   C2B 4062   0.162  10.553   9.894  0.0304 -0.0318  0.3563
  254loPI   C3B 4063   0.168  10.580   9.496  0.2266 -0.0009 -0.0070
  254loPI   C4B 4064   0.160  10.674   9.062  0.1314 -0.0175  0.0337
  255loPI    C1 4065  15.507   7.087  10.902 -0.0630 -0.0676 -0.0654
  255loPI    C2 4066  15.170   7.184  11.093  0.0381  0.1506  0.0060
  255loPI    C3 4067  15.521   7.213  11.281  0.1221  0.1897 -0.1551
  255loPI   PO4 4068  15.474   7.202  10.688 -0.0934  0.3018 -0.0795
  255loPI   GL1 4069  15.671   7.144  10.401 -0.1547 -0.0160 -0.0174
  255loPI   GL2 4070  15.618   6.769  10.355  0.1019  0.2436 -0.1442
  255loPI   C1A 4071  15.669   7.111   9.938 -0.1021  0.4957  0.0755
  255loPI   C2A 4072  15.722   7.158   9.525  0.0977  0.1892  0.0095
  255loPI   C3A 4073  15.674   7.186   9.053  0.3055  0.2158 -0.3598
  255loPI   C4A 4074  15.605   7.401   8.631 -0.0824 -0.0309 -0.1438
  255loPI   C5A 4075  15.651   7.140   8.278  0.0200 -0.3706  0.0088
  255loPI   C6A 4076  16.003   7.105   8.043 -0.1119  0.0655 -0.1837
  255loPI   C1B 4077  15.700   6.629   9.929  0.1899 -0.2246  0.0880
  255loPI   C2B 4078  15.781   6.603   9.532  0.2492 -0.1914  0.0063
  255loPI   C3B 4079  15.668   6.645   9.160  0.2961  0.0689  0.0031
  255loPI   C4B 4080  15.853   6.885   8.717 -0.1192 -0.0768 -0.2009
  256loPI    C1 4081   2.053  14.324  10.932  0.1146 -0.0177 -0.0235
  256loPI    C2 4082   1.965  14.248  11.315 -0.2838 -0.0654 -0.1198
  256loPI    C3 4083   1.919  14.617  11.169  0.1556  0.0232 -0.0507
  256loPI   PO4 4084   1.873  14.147  10.829 -0.1400 -0.1980  0.3003
  256loPI   GL1 4085   1.654  14.076  10.512 -0.1016  0.0086 -0.0987
  256loPI   GL2 4086   1.613  14.359  10.414  0.0996  0.3146  0.0422
  256loPI   C1A 4087   1.629  13.894  10.121 -0.0332  0.0225 -0.2392
  256loPI   C2A 4088   1.585  13.868   9.683  0.0873  0.0667  0.0041
  256loPI   C3A 4089   1.609  13.931   9.216 -0.2006 -0.1080  0.1527
  256loPI   C4A 4090   1.661  13.929   8.804  0.3298 -0.1658 -0.3243
  256loPI   C5A 4091   1.467  13.723   8.469 -0.0664 -0.1277  0.7017
  256loPI   C6A 4092   1.584  13.650   8.026 -0.0482  0.2047  0.3547
  256loPI   C1B 4093   1.504  14.409   9.981 -0.3696 -0.0456  0.0416
  256loPI   C2B 4094   1.550  14.390   9.565 -0.2066  0.0695 -0.1292
  256loPI   C3B 4095   1.513  14.457   9.221 -0.0035 -0.1773  0.0910
  256loPI   C4B 4096   1.598  14.425   8.840 -0.1286 -0.4283  0.2000
  257loPI    C1 4097  10.006  11.689  11.177  0.1713 -0.1107  0.1283
  257loPI    C2 4098  10.338  11.839  11.342  0.0398  0.1286  0.1791
  257loPI    C3 4099  10.000  12.052  11.343 -0.1014 -0.0914  0.0799
  257loPI   PO4 4100  10.085  11.580  10.930 -0.1606 -0.1262  0.0012
  257loPI   GL1 4101  10.220  11.572  10.583 -0.1455 -0.3258 -0.0550
  257loPI   GL2 4102  10.447  11.591  10.361  0.0511  0.2067  0.3059
  257loPI   C1A 4103  10.226  12.025  10.425 -0.1497  0.3643 -0.2880
  257loPI   C2A 4104  10.124  12.281  10.038  0.2393  0.1460  0.1726
  257loPI   C3A 4105  10.149  12.412   9.655  0.2799 -0.0832  0.1751
  257loPI   C4A 4106  10.098  12.440   9.287 -0.0515  0.1433  0.2638
  257loPI   C5A 4107   9.974  12.657   8.797 -0.1930 -0.0784 -0.3226
  257loPI   C6A 4108  10.105  12.866   8.347  0.0223 -0.3842  0.1506
  257loPI   C1B 4109  10.682  11.657   9.955 -0.2678 -0.0103  0.0812
  257loPI   C2B 4110  10.692  11.534   9.667 -0.1358 -0.3137  0.3788
  257loPI   C3B 4111  10.646  11.736   9.232  0.2363 -0.0346  0.0498
  257loPI   C4B 4112  10.506  11.809   8.809 -0.3197  0.0429  0.3719
  258loPI    C1 4113  15.433   0.756  11.102  0.3494  0.2323  0.1950
  258loPI    C2 4114  15.106   0.707  11.327  0.1580 -0.1228 -0.1461
  258loPI    C3 4115  15.459   0.570  11.455  0.0681 -0.2423 -0.0228
  258loPI   PO4 4116  15.408   0.666  10.905 -0.2873  0.3272  0.1141
  258loPI   GL1 4117  15.259   0.738  10.592 -0.1851  0.2553  0.1055
  258loPI   GL2 4118  15.221   0.877  10.374  0.2455  0.1525 -0.2624
  258loPI   C1A 4119  15.464   0.431  10.279  0.0063  0.1189 -0.0639
  258loPI   C2A 4120  15.475   0.355   9.837  0.1514  0.0851  0.0022
  258loPI   C3A 4121  15.490   0.334   9.384  0.0040  0.2083  0.2628
  258loPI   C4A 4122  15.420   0.255   8.996  0.0633 -0.0864  0.1859
  258loPI   C5A 4123  15.533   0.264   8.611 -0.0953 -0.4021  0.1270
  258loPI   C6A 4124  15.386   0.549   8.315  0.1454  0.4524  0.2318
  258loPI   C1B 4125  15.412   0.853   9.982  0.2057  0.1313 -0.0643
  258loPI   C2B 4126  15.489   0.801   9.499  0.0018 -0.2567 -0.0331
  258loPI   C3B 4127  15.406   0.922   9.184 -0.0009 -0.1975 -0.1486
  258loPI   C4B 4128  15.449   0.927   8.668 -0.5517  0.1468  0.0668
  259loPI    C1 4129  16.163  17.069  11.230  0.1841  0.2741 -0.1943
  259loPI    C2 4130  16.392  17.076  11.558 -0.1416  0.2004  0.0400
  259loPI    C3 4131  16.056  17.294  11.544 -0.3968 -0.1883 -0.0418
  259loPI   PO4 4132  16.248  16.924  11.097  0.4396 -0.0053 -0.2866
  259loPI   GL1 4133  16.356  17.062  10.692  0.0022  0.0081  0.0779
  259loPI   GL2 4134  16.559  17.157  10.480 -0.2204 -0.0781 -0.0474
  259loPI   C1A 4135  16.038  17.018  10.420  0.2372 -0.0312 -0.2510
  259loPI   C2A 4136  15.987  16.927  10.024  0.2563 -0.2608 -0.2247
  259loPI   C3A 4137  16.111  16.953   9.590  0.0902  0.0013 -0.0609
  259loPI   C4A 4138  16.048  16.965   9.110 -0.0889 -0.4016  0.1159
  259loPI   C5A 4139  16.121  16.958   8.729 -0.2691  0.2177 -0.1141
  259loPI   C6A 4140  16.339  17.132   8.387 -0.0044  0.2672 -0.0773
  259loPI   C1B 4141  16.395  17.189  10.042 -0.0711 -0.2764 -0.1523
  259loPI   C2B 4142  16.464  17.267   9.600 -0.3391  0.2295 -0.0249
  259loPI   C3B 4143  16.459  17.299   9.225  0.2119 -0.0088 -0.2352
  259loPI   C4B 4144  16.493  17.354   8.831 -0.2842  0.0514  0.0269
  260loPI    C1 4145   0.401   3.350  11.491  0.0057 -0.3513 -0.3280
  260loPI    C2 4146   0.800   3.339  11.513  0.0054 -0.0281 -0.1008
  260loPI    C3 4147   0.580   3.209  11.820 -0.0592  0.0752 -0.1026
  260loPI   PO4 4148   0.439   3.484  11.236 -0.1529  0.0364  0.0214
  260loPI   GL1 4149   0.108   3.614  10.916 -0.0018  0.0563  0.1191
  260loPI   GL2 4150  -0.062   3.358  10.710 -0.0727 -0.0663  0.0452
  260loPI   C1A 4151  -0.083   3.749  10.438  0.2745  0.1841 -0.0258
  260loPI   C2A 4152  -0.013   3.786   9.989 -0.0594 -0.2111 -0.1439
  260loPI   C3A 4153  -0.082   3.879   9.576  0.2629  0.0122 -0.2150
  260loPI   C4A 4154  -0.072   3.858   9.107  0.0827  0.0043 -0.0029
  260loPI   C5A 4155  -0.200   3.788   8.668 -0.0107  0.2259 -0.0379
  260loPI   C6A 4156  -0.262   3.431   8.411  0.0429 -0.0344 -0.1355
  260loPI   C1B 4157   0.037   3.315  10.233  0.1192  0.0962 -0.1971
  260loPI   C2B 4158   0.074   3.290   9.780  0.1408 -0.1757 -0.1482
  260loPI   C3B 4159  -0.030   3.256   9.306  0.1060 -0.1315 -0.0907
  260loPI   C4B 4160  -0.018   3.284   8.844 -0.1046  0.0576  0.1339
  261loPI    C1 4161  16.092   2.759  11.244 -0.0525  0.2692 -0.1224
  261loPI    C2 4162  15.909   2.703  11.595 -0.2292  0.0149 -0.2519
  261loPI    C3 4163  15.977   3.074  11.462 -0.0056  0.1157  0.1280
  261loPI   PO4 4164  15.942   2.608  11.035 -0.1206  0.0288  0.0340
  261loPI   GL1 4165  15.974   2.582  10.607  0.1460 -0.0771 -0.0901
  261loPI   GL2 4166  15.775   2.742  10.546 -0.1103  0.1007 -0.1570
  261loPI   C1A 4167  16.200   2.560  10.118 -0.0922 -0.1743  0.0570
  261loPI   C2A 4168  16.096   2.516   9.687  0.0719  0.0102 -0.0570
  261loPI   C3A 4169  16.110   2.529   9.241 -0.2522  0.3194 -0.2859
  261loPI   C4A 4170  16.114   2.583   8.787  0.1014 -0.0056 -0.1724
  261loPI   C5A 4171  16.188   2.932   8.433 -0.0928  0.0482 -0.2141
  261loPI   C6A 4172  15.973   3.306   8.485 -0.0635  0.0873  0.0674
  261loPI   C1B 4173  15.661   2.708  10.114  0.3060  0.0962  0.1834
  261loPI   C2B 4174  15.610   2.854   9.641  0.2189 -0.0382  0.0397
  261loPI   C3B 4175  15.642   2.753   9.192  0.3277 -0.2203  0.0584
  261loPI   C4B 4176  15.742   2.880   8.882 -0.0735  0.1478  0.0958
  262loPI    C1 4177   9.459   3.439  11.041  0.1050  0.2118  0.1056
  262loPI    C2 4178   9.703   3.662  11.266 -0.0251  0.2181  0.2421
  262loPI    C3 4179   9.724   3.263  11.283  0.3730  0.2128 -0.1813
  262loPI   PO4 4180   9.508   3.496  10.720 -0.1243 -0.1566  0.0067
  262loPI   GL1 4181   9.325   3.339  10.384 -0.0863 -0.0644 -0.2360
  262loPI   GL2 4182   8.998   3.563  10.256 -0.2758  0.0032 -0.3394
  262loPI   C1A 4183   9.350   3.523   9.913 -0.1898  0.1482  0.1798
  262loPI   C2A 4184   9.316   3.463   9.455  0.0384 -0.3656 -0.3094
  262loPI   C3A 4185   9.328   3.428   9.028 -0.0864  0.4300 -0.1171
  262loPI   C4A 4186   9.450   3.537   8.641  0.1780 -0.0696 -0.1654
  262loPI   C5A 4187   9.561   3.749   8.216  0.0214  0.1063 -0.0338
  262loPI   C6A 4188   9.553   4.121   7.895 -0.0890 -0.3602  0.0663
  262loPI   C1B 4189   8.866   3.771   9.883 -0.2001 -0.1000 -0.1521
  262loPI   C2B 4190   8.871   3.645   9.442 -0.2906  0.1063  0.3474
  262loPI   C3B 4191   8.856   3.708   9.078  0.1709  0.2324  0.3278
  262loPI   C4B 4192   8.897   3.637   8.661 -0.1239 -0.0855  0.0823
  263loPI    C1 4193   3.857   3.174  11.086  0.0060  0.1133  0.0684
  263loPI    C2 4194   3.847   2.855  11.327 -0.0316  0.0887  0.0343
  263loPI    C3 4195   3.676   3.198  11.442  0.2015  0.1628  0.1655
  263loPI   PO4 4196   3.818   3.087  10.840 -0.0194  0.0754  0.3202
  263loPI   GL1 4197   3.475   3.063  10.573  0.1251  0.5840 -0.2171
  263loPI   GL2 4198   3.209   3.271  10.470  0.1250 -0.0345 -0.1273
  263loPI   C1A 4199   3.701   3.157  10.179  0.1076  0.2499 -0.0027
  263loPI   C2A 4200   3.676   3.216   9.808  0.2820  0.0695 -0.0650
  263loPI   C3A 4201   3.617   3.098   9.417 -0.0624 -0.4025  0.1237
  263loPI   C4A 4202   3.453   3.080   8.975 -0.2501 -0.0905  0.0830
  263loPI   C5A 4203   3.277   2.945   8.642  0.0384  0.1026  0.0841
  263loPI   C6A 4204   3.049   2.650   8.363  0.0952  0.3076 -0.0276
  263loPI   C1B 4205   3.193   3.345   9.988  0.1404 -0.1006 -0.0933
  263loPI   C2B 4206   3.209   3.446   9.670 -0.1893 -0.1009 -0.4497
  263loPI   C3B 4207   3.123   3.309   9.228  0.2088 -0.2543 -0.0145
  263loPI   C4B 4208   3.046   3.349   8.806  0.2685 -0.2439  0.1318
  264loPI    C1 4209  13.787   0.928  10.835 -0.2000 -0.1154 -0.0324
  264loPI    C2 4210  14.075   0.857  11.103  0.1269  0.1147 -0.3142
  264loPI    C3 4211  13.786   1.121  11.186 -0.1144 -0.2494  0.0423
  264loPI   PO4 4212  13.849   0.859  10.650 -0.1497 -0.0088 -0.2457
  264loPI   GL1 4213  13.922   1.106  10.319 -0.2717  0.0263  0.0755
  264loPI   GL2 4214  14.251   0.873  10.319 -0.3129  0.1297 -0.1825
  264loPI   C1A 4215  13.990   1.076   9.849  0.4571  0.2429 -0.0394
  264loPI   C2A 4216  14.021   0.989   9.419  0.0479  0.1617 -0.3749
  264loPI   C3A 4217  13.853   0.919   9.005  0.2424 -0.0283 -0.0135
  264loPI   C4A 4218  13.718   0.922   8.501  0.1466 -0.1048 -0.1581
  264loPI   C5A 4219  13.419   0.637   8.332 -0.2018  0.0164 -0.2583
  264loPI   C6A 4220  13.359   0.226   8.114  0.2889  0.1064 -0.0101
  264loPI   C1B 4221  14.378   0.734  10.001 -0.0544  0.1029  0.0031
  264loPI   C2B 4222  14.476   0.688   9.507  0.3337 -0.0774 -0.0679
  264loPI   C3B 4223  14.446   0.806   9.065 -0.0920  0.5134 -0.1165
  264loPI   C4B 4224  14.245   0.852   8.618 -0.2058 -0.1759 -0.2359
  265loPI    C1 4225  17.673   4.455  11.360  0.1313 -0.1853  0.0163
  265loPI    C2 4226  17.658   4.798  11.566 -0.0766 -0.0524 -0.2156
  265loPI    C3 4227  17.455   4.478  11.695  0.1509 -0.1032  0.0236
  265loPI   PO4 4228  17.901   4.575  11.171 -0.0449 -0.1105 -0.4025
  265loPI   GL1 4229  17.890   4.792  10.767 -0.1895  0.1594 -0.0526
  265loPI   GL2 4230  17.661   4.612  10.668  0.0323 -0.1024 -0.0637
  265loPI   C1A 4231  18.102   4.594  10.448 -0.1096 -0.1089 -0.1985
  265loPI   C2A 4232  18.317   4.601  10.045 -0.1196  0.0981  0.1084
  265loPI   C3A 4233  18.204   4.577   9.682 -0.1367 -0.1824  0.1209
  265loPI   C4A 4234  18.138   4.609   9.217 -0.1016 -0.1452  0.1561
  265loPI   C5A 4235  18.226   4.514   8.803  0.1495 -0.0409 -0.1757
  265loPI   C6A 4236  18.417   4.237   8.511  0.0475 -0.0838 -0.1718
  265loPI   C1B 4237  17.631   4.818  10.286 -0.2156 -0.0242  0.0289
  265loPI   C2B 4238  17.631   4.844   9.964 -0.1271  0.1451  0.1652
  265loPI   C3B 4239  17.726   4.879   9.488  0.1016  0.3036 -0.1705
  265loPI   C4B 4240  17.755   4.835   9.037  0.0290  0.0880 -0.0951
  266loPI    C1 4241   6.883   0.292  10.980  0.0454  0.0668 -0.0414
  266loPI    C2 4242   7.088   0.288  11.323 -0.1238 -0.1068  0.0598
  266loPI    C3 4243   6.690   0.244  11.327 -0.1373 -0.0154 -0.1523
  266loPI   PO4 4244   6.960   0.047  10.812 -0.1731 -0.1967 -0.2204
  266loPI   GL1 4245   7.223   0.076  10.483  0.2320  0.2643 -0.0823
  266loPI   GL2 4246   7.265   0.291  10.464  0.0020 -0.2536  0.0979
  266loPI   C1A 4247   7.139   0.154   9.978 -0.0438 -0.2842  0.1086
  266loPI   C2A 4248   7.147   0.221   9.502 -0.1377 -0.0006 -0.3016
  266loPI   C3A 4249   7.136   0.161   9.137  0.0566 -0.1277  0.2313
  266loPI   C4A 4250   7.197   0.028   8.714 -0.0349  0.0470 -0.1132
  266loPI   C5A 4251   7.001  -0.113   8.311  0.2786 -0.0989  0.1056
  266loPI   C6A 4252   6.651  -0.099   8.070  0.0240 -0.0696 -0.2105
  266loPI   C1B 4253   7.596   0.437  10.118  0.0182  0.0652 -0.1339
  266loPI   C2B 4254   7.573   0.481   9.669 -0.1321  0.0963 -0.1182
  266loPI   C3B 4255   7.575   0.400   9.209  0.0829  0.0621 -0.0598
  266loPI   C4B 4256   7.519   0.372   8.855 -0.0367  0.0946 -0.3411
  267loPI    C1 4257   2.303   1.148  11.101  0.3978 -0.1158 -0.0323
  267loPI    C2 4258   2.067   1.470  11.071  0.1327 -0.3200 -0.1784
  267loPI    C3 4259   2.234   1.377  11.422  0.1089 -0.0950 -0.1060
  267loPI   PO4 4260   2.318   1.076  10.846  0.2359  0.0679 -0.2449
  267loPI   GL1 4261   2.123   0.935  10.457  0.1921 -0.3495  0.0216
  267loPI   GL2 4262   2.413   1.137  10.313  0.1552  0.0808  0.0354
  267loPI   C1A 4263   2.024   0.917  10.026  0.0142 -0.0187  0.2687
  267loPI   C2A 4264   2.071   0.792   9.611 -0.0411  0.1401 -0.0981
  267loPI   C3A 4265   2.062   0.764   9.190  0.2457  0.1744  0.0581
  267loPI   C4A 4266   1.958   0.758   8.903 -0.0036 -0.0993 -0.1774
  267loPI   C5A 4267   2.101   0.880   8.497  0.0350  0.1315 -0.0680
  267loPI   C6A 4268   2.328   0.895   8.114  0.1816  0.1020 -0.0476
  267loPI   C1B 4269   2.437   1.157   9.860  0.0435  0.1120  0.1227
  267loPI   C2B 4270   2.481   1.159   9.326 -0.0016  0.2877 -0.1045
  267loPI   C3B 4271   2.437   1.132   8.917 -0.2713  0.2590  0.2400
  267loPI   C4B 4272   2.535   1.209   8.536  0.0797 -0.0316 -0.0273
  268loPI    C1 4273  17.523   9.155  11.363 -0.0299  0.1606  0.0214
  268loPI    C2 4274  17.251   9.023  11.624  0.2188 -0.0302  0.1895
  268loPI    C3 4275  17.327   9.414  11.595 -0.1214  0.0322  0.0891
  268loPI   PO4 4276  17.391   9.020  11.118 -0.4775 -0.0820  0.3261
  268loPI   GL1 4277  17.232   9.009  10.798 -0.0057 -0.1219 -0.2871
  268loPI   GL2 4278  17.166   8.699  10.737 -0.0297 -0.3101 -0.0852
  268loPI   C1A 4279  17.234   9.027  10.354  0.0232  0.1468  0.1010
  268loPI   C2A 4280  17.307   8.993   9.973  0.2332  0.1928 -0.2652
  268loPI   C3A 4281  17.275   9.025   9.535 -0.1280 -0.0120 -0.2592
  268loPI   C4A 4282  17.264   9.062   9.156  0.1399 -0.0772 -0.3383
  268loPI   C5A 4283  17.423   9.118   8.657 -0.1837  0.1135  0.4881
  268loPI   C6A 4284  17.298   9.277   8.270  0.0222 -0.0326 -0.0468
  268loPI   C1B 4285  17.336   8.555  10.368 -0.4058 -0.1865  0.1213
  268loPI   C2B 4286  17.323   8.471   9.963  0.2454 -0.0495 -0.2286
  268loPI   C3B 4287  17.301   8.499   9.562 -0.2927  0.1203 -0.0784
  268loPI   C4B 4288  17.272   8.476   9.146 -0.1012  0.3374  0.2875
  269loPI    C1 4289   4.370  11.665  11.288  0.1587 -0.1174  0.0299
  269loPI    C2 4290   4.018  11.494  11.370  0.0457 -0.0645 -0.3288
  269loPI    C3 4291   4.101  11.860  11.510  0.0439 -0.1623 -0.0687
  269loPI   PO4 4292   4.398  11.680  11.094  0.0833 -0.0257  0.1373
  269loPI   GL1 4293   4.444  11.750  10.711  0.0803 -0.1714 -0.0980
  269loPI   GL2 4294   4.210  11.941  10.597  0.0034  0.0641 -0.2667
  269loPI   C1A 4295   4.589  11.718  10.368  0.1351  0.0455 -0.4211
  269loPI   C2A 4296   4.659  11.742   9.991  0.2769  0.0592 -0.3578
  269loPI   C3A 4297   4.610  11.580   9.555 -0.2454 -0.4497  0.0232
  269loPI   C4A 4298   4.628  11.600   9.081  0.0856  0.1093  0.0249
  269loPI   C5A 4299   4.416  11.691   8.618 -0.0303  0.1747  0.1240
  269loPI   C6A 4300   4.158  11.605   8.342  0.1486  0.2225  0.0765
  269loPI   C1B 4301   4.152  11.853  10.159 -0.0498  0.0541  0.0446
  269loPI   C2B 4302   4.233  11.894   9.722 -0.0786 -0.2714 -0.1599
  269loPI   C3B 4303   4.167  11.811   9.319  0.1651 -0.0286 -0.0725
  269loPI   C4B 4304   4.020  11.794   8.921  0.1024 -0.0692 -0.0459
  270loPI    C1 4305   4.947  14.580  11.074 -0.0711  0.0247 -0.0713
  270loPI    C2 4306   5.299  14.771  11.092 -0.1669  0.2112 -0.1468
  270loPI    C3 4307   5.081  14.719  11.424  0.0770 -0.1868 -0.0421
  270loPI   PO4 4308   4.999  14.354  10.897  0.2575  0.0471 -0.1144
  270loPI   GL1 4309   5.077  14.258  10.523  0.1826 -0.0416  0.1253
  270loPI   GL2 4310   4.771  14.208  10.448 -0.3596  0.0633 -0.2274
  270loPI   C1A 4311   5.266  14.349  10.170 -0.1493 -0.0964 -0.0243
  270loPI   C2A 4312   5.205  14.358   9.807  0.1349 -0.3211 -0.0746
  270loPI   C3A 4313   5.212  14.221   9.283 -0.1768  0.0423 -0.0300
  270loPI   C4A 4314   5.121  14.228   8.766  0.1781 -0.4225 -0.1131
  270loPI   C5A 4315   5.073  14.087   8.380  0.0669 -0.1371  0.1127
  270loPI   C6A 4316   4.617  14.063   8.081 -0.1638 -0.0707 -0.2459
  270loPI   C1B 4317   4.741  14.099  10.063 -0.1455  0.1950 -0.0980
  270loPI   C2B 4318   4.821  13.993   9.595 -0.0867  0.1098  0.0386
  270loPI   C3B 4319   4.801  13.951   9.198 -0.1553  0.0949  0.1478
  270loPI   C4B 4320   4.703  13.866   8.751 -0.0486  0.2794 -0.2566
  271loPI    C1 4321  12.879  16.941  11.002  0.0257  0.0834 -0.0337
  271loPI    C2 4322  12.755  16.702  11.298  0.1292  0.0551 -0.0127
  271loPI    C3 4323  13.120  16.866  11.312  0.0174  0.3050  0.0286
  271loPI   PO4 4324  12.740  16.812  10.820 -0.1401 -0.0786  0.0344
  271loPI   GL1 4325  12.761  16.537  10.426  0.2242 -0.2615 -0.1064
  271loPI   GL2 4326  13.027  16.587  10.464  0.0317 -0.1670  0.0532
  271loPI   C1A 4327  12.748  16.527  10.012 -0.1682  0.2942 -0.0733
  271loPI   C2A 4328  12.728  16.713   9.628  0.3723 -0.3191 -0.1938
  271loPI   C3A 4329  12.686  16.747   9.205  0.1831  0.0110 -0.0594
  271loPI   C4A 4330  12.831  17.059   8.834 -0.0269 -0.1286 -0.1500
  271loPI   C5A 4331  12.613  17.254   8.571 -0.3128  0.1128 -0.1066
  271loPI   C6A 4332  12.166  17.293   8.467 -0.1597  0.1646  0.2474
  271loPI   C1B 4333  13.298  16.385  10.293  0.2513 -0.0106  0.0300
  271loPI   C2B 4334  13.616  16.230  10.102 -0.1304 -0.2181  0.1297
  271loPI   C3B 4335  13.729  16.382   9.734 -0.0663  0.2009  0.1062
  271loPI   C4B 4336  13.755  16.313   9.278  0.1290 -0.0609 -0.0234
  272loPI    C1 4337   2.963  15.650  11.243  0.0249  0.1839  0.1515
  272loPI    C2 4338   2.607  15.829  11.213 -0.1326 -0.1530 -0.0482
  272loPI    C3 4339   2.703  15.628  11.545  0.1271  0.4572  0.2628
  272loPI   PO4 4340   2.998  15.671  10.914  0.1422 -0.1054  0.0045
  272loPI   GL1 4341   2.868  15.983  10.641 -0.0384  0.0607 -0.1809
  272loPI   GL2 4342   3.137  16.092  10.570  0.2377  0.2432 -0.1396
  272loPI   C1A 4343   2.725  15.904  10.292  0.2395 -0.2875  0.2921
  272loPI   C2A 4344   2.701  15.916   9.943  0.2132  0.2053  0.0186
  272loPI   C3A 4345   2.800  15.900   9.556 -0.1016 -0.1915 -0.1057
  272loPI   C4A 4346   2.873  15.924   9.124  0.3826 -0.0089  0.1267
  272loPI   C5A 4347   2.804  15.938   8.691 -0.1054 -0.0008  0.1521
  272loPI   C6A 4348   2.777  16.276   8.361  0.2858 -0.3116  0.1085
  272loPI   C1B 4349   3.133  16.146  10.040 -0.2999  0.1555 -0.1883
  272loPI   C2B 4350   3.332  16.149   9.682  0.1303  0.1813  0.1792
  272loPI   C3B 4351   3.292  16.178   9.290  0.1659  0.0941  0.0853
  272loPI   C4B 4352   3.235  16.154   8.885 -0.1623 -0.1407 -0.1200
  273loPI    C1 4353   8.080   6.386  11.155 -0.1741  0.0962 -0.1680
  273loPI    C2 4354   8.037   6.002  11.258 -0.0183  0.1177 -0.0196
  273loPI    C3 4355   7.834   6.286  11.453  0.1455  0.1426  0.1174
  273loPI   PO4 4356   8.098   6.440  10.756  0.1715  0.1354  0.1028
  273loPI   GL1 4357   7.820   6.373  10.408 -0.4041  0.2910  0.1482
  273loPI   GL2 4358   7.683   6.052  10.365  0.2580 -0.1572 -0.0936
  273loPI   C1A 4359   7.764   6.297   9.928  0.1124 -0.0334 -0.0328
  273loPI   C2A 4360   7.740   6.243   9.507 -0.4512 -0.0163  0.1900
  273loPI   C3A 4361   7.738   6.162   9.057  0.2872  0.0785 -0.0801
  273loPI   C4A 4362   7.750   6.257   8.628  0.5247  0.1181  0.1677
  273loPI   C5A 4363   7.712   6.463   8.265  0.2750 -0.0842 -0.2446
  273loPI   C6A 4364   7.773   6.818   7.961  0.1806  0.0843  0.2945
  273loPI   C1B 4365   7.446   5.865  10.047 -0.0530  0.0401  0.1688
  273loPI   C2B 4366   7.363   5.925   9.577  0.4752  0.1135  0.2305
  273loPI   C3B 4367   7.369   5.903   9.168 -0.0485  0.0309 -0.1102
  273loPI   C4B 4368   7.355   5.802   8.813 -0.1273 -0.3073  0.1303
  274loPI    C1 4369  16.913   7.473  11.223  0.0719  0.0065  0.0251
  274loPI    C2 4370  16.979   7.151  11.450  0.1955  0.0230  0.0134
  274loPI    C3 4371  16.807   7.476  11.608 -0.2305 -0.1633 -0.0537
  274loPI   PO4 4372  16.821   7.392  10.993  0.0942 -0.2161  0.0495
  274loPI   GL1 4373  17.054   7.374  10.654 -0.2326  0.1238 -0.0918
  274loPI   GL2 4374  16.958   7.686  10.490 -0.2204 -0.0559 -0.0961
  274loPI   C1A 4375  17.076   7.218  10.243 -0.2987  0.0020  0.1654
  274loPI   C2A 4376  17.038   7.209   9.831 -0.0545  0.1363 -0.0858
  274loPI   C3A 4377  17.103   7.265   9.475  0.0710 -0.0450  0.0255
  274loPI   C4A 4378  17.049   7.003   9.175  0.0679  0.2021 -0.0833
  274loPI   C5A 4379  17.088   7.184   8.753 -0.1897 -0.0340 -0.2503
  274loPI   C6A 4380  17.376   7.095   8.358  0.0742 -0.1307 -0.4175
  274loPI   C1B 4381  17.038   7.711  10.082  0.0793  0.2639 -0.3019
  274loPI   C2B 4382  16.960   7.748   9.652  0.3331 -0.3090 -0.1250
  274loPI   C3B 4383  16.924   7.755   9.247  0.5653 -0.2748  0.1663
  274loPI   C4B 4384  17.086   7.725   8.796  0.0540  0.2651 -0.2291
  275loPI    C1 4385  17.229   5.307  11.136 -0.0211 -0.0337 -0.0918
  275loPI    C2 4386  17.007   5.637  11.173  0.0778 -0.0057  0.2947
  275loPI    C3 4387  17.406   5.665  11.161  0.0772 -0.0884  0.0047
  275loPI   PO4 4388  17.109   5.250  10.886 -0.0960  0.1895  0.0069
  275loPI   GL1 4389  17.116   5.092  10.532 -0.1965  0.1919  0.1080
  275loPI   GL2 4390  17.146   4.758  10.685  0.0572  0.0981 -0.0193
  275loPI   C1A 4391  17.189   5.007  10.195  0.1563 -0.1525 -0.0317
  275loPI   C2A 4392  17.216   5.050   9.824  0.0933  0.0792  0.3616
  275loPI   C3A 4393  17.234   5.070   9.512 -0.1654 -0.2612  0.2302
  275loPI   C4A 4394  17.277   5.025   9.068 -0.0778 -0.1368 -0.0375
  275loPI   C5A 4395  17.319   5.234   8.613  0.0350 -0.1979 -0.2501
  275loPI   C6A 4396  17.300   5.752   8.487 -0.0092 -0.1550 -0.0999
  275loPI   C1B 4397  17.233   4.536  10.345 -0.1113  0.0377  0.1949
  275loPI   C2B 4398  17.192   4.476   9.961 -0.1500 -0.0801  0.1753
  275loPI   C3B 4399  17.360   4.533   9.553 -0.3747  0.0057 -0.2895
  275loPI   C4B 4400  17.360   4.535   9.090 -0.1930  0.0793 -0.0357
  276loPI    C1 4401   7.407   4.138  11.360 -0.2898  0.0747 -0.1434
  276loPI    C2 4402   7.597   4.382  11.613 -0.0533 -0.0084 -0.2374
  276loPI    C3 4403   7.304   4.144  11.746 -0.0788  0.1057 -0.0864
  276loPI   PO4 4404   7.347   4.306  11.093 -0.1593 -0.1220  0.2554
  276loPI   GL1 4405   7.292   4.317  10.629  0.1329  0.3619  0.2723
  276loPI   GL2 4406   7.486   4.000  10.575  0.2581 -0.1993  0.1959
  276loPI   C1A 4407   7.541   4.355  10.213  0.0069  0.2311  0.1458
  276loPI   C2A 4408   7.500   4.338   9.858 -0.3080  0.0886 -0.0744
  276loPI   C3A 4409   7.504   4.194   9.501 -0.0748  0.2665  0.0946
  276loPI   C4A 4410   7.541   4.282   9.099  0.2027  0.0325  0.1132
  276loPI   C5A 4411   7.467   4.255   8.595 -0.2800 -0.1345 -0.0711
  276loPI   C6A 4412   7.687   4.400   8.238 -0.0359  0.0263 -0.1327
  276loPI   C1B 4413   7.629   3.834  10.122  0.0718 -0.0102 -0.0109
  276loPI   C2B 4414   7.570   3.720   9.734  0.1657  0.1236  0.1504
  276loPI   C3B 4415   7.567   3.759   9.314 -0.0750  0.0234 -0.2235
  276loPI   C4B 4416   7.632   3.815   8.884 -0.0208  0.0394 -0.0716
  277loPI    C1 4417   2.759   5.471  11.074  0.1617  0.1664  0.0103
  277loPI    C2 4418   2.585   5.290  11.385 -0.0478  0.0098 -0.1942
  277loPI    C3 4419   2.937   5.475  11.432  0.0182 -0.1814  0.0892
  277loPI   PO4 4420   2.615   5.342  10.879  0.0338 -0.0673  0.0553
  277loPI   GL1 4421   2.257   5.419  10.591  0.1403  0.0455 -0.0692
  277loPI   GL2 4422   2.499   5.663  10.419  0.1309 -0.0976  0.1138
  277loPI   C1A 4423   2.074   5.251  10.120 -0.0759 -0.0842  0.0333
  277loPI   C2A 4424   2.038   5.373   9.727  0.2878  0.2367  0.1770
  277loPI   C3A 4425   1.986   5.431   9.416 -0.1901 -0.0131  0.3202
  277loPI   C4A 4426   1.961   5.320   8.992 -0.1268 -0.2198  0.0868
  277loPI   C5A 4427   1.938   5.477   8.552  0.2576  0.1124 -0.2100
  277loPI   C6A 4428   1.976   5.707   8.154 -0.0813  0.1877 -0.0762
  277loPI   C1B 4429   2.406   5.587   9.954  0.2326  0.1201  0.1719
  277loPI   C2B 4430   2.411   5.665   9.527  0.0315  0.0152 -0.2293
  277loPI   C3B 4431   2.360   5.601   9.119 -0.2984 -0.0526  0.2784
  277loPI   C4B 4432   2.420   5.625   8.642  0.2794 -0.0297  0.1926
  278loPI    C1 4433   6.863  14.728  11.019  0.0388 -0.0163 -0.1338
  278loPI    C2 4434   7.162  14.831  11.263 -0.0154  0.0391 -0.0904
  278loPI    C3 4435   6.802  14.746  11.413 -0.0167 -0.0467 -0.1410
  278loPI   PO4 4436   7.067  14.442  10.817  0.0334  0.0741  0.2519
  278loPI   GL1 4437   7.022  14.046  10.560 -0.2970 -0.0238  0.0631
  278loPI   GL2 4438   7.245  13.833  10.450 -0.1290  0.2377  0.3451
  278loPI   C1A 4439   6.944  14.152  10.051  0.0030  0.1248 -0.1352
  278loPI   C2A 4440   7.044  14.483   9.719  0.0824  0.0347 -0.3851
  278loPI   C3A 4441   6.823  14.534   9.313  0.1462 -0.0529  0.1421
  278loPI   C4A 4442   6.925  14.568   8.903  0.1401  0.0837  0.0729
  278loPI   C5A 4443   6.943  14.166   8.564 -0.1339 -0.0862  0.6957
  278loPI   C6A 4444   6.864  13.628   8.391  0.1810  0.1298  0.0150
  278loPI   C1B 4445   7.455  14.154  10.134  0.4658  0.1387  0.0921
  278loPI   C2B 4446   7.442  14.234   9.695 -0.2206 -0.1050 -0.1759
  278loPI   C3B 4447   7.428  14.394   9.354  0.2349 -0.2565 -0.3455
  278loPI   C4B 4448   7.495  14.759   9.112  0.0206 -0.1687  0.0952
  279loPI    C1 4449  15.519   3.851  11.022  0.0281 -0.0555  0.0407
  279loPI    C2 4450  15.215   3.787  11.273  0.0246 -0.0796  0.0303
  279loPI    C3 4451  15.248   4.138  11.084 -0.0467 -0.1087 -0.0371
  279loPI   PO4 4452  15.531   3.519  10.845  0.4438  0.0624 -0.3335
  279loPI   GL1 4453  15.480   3.587  10.502 -0.2199 -0.1165 -0.2808
  279loPI   GL2 4454  15.687   3.782  10.410 -0.0592 -0.0670  0.2438
  279loPI   C1A 4455  15.214   3.543  10.063 -0.2281 -0.1629  0.0823
  279loPI   C2A 4456  15.156   3.515   9.557  0.2394  0.1773 -0.1274
  279loPI   C3A 4457  15.035   3.477   9.202 -0.1778  0.1314 -0.0544
  279loPI   C4A 4458  15.106   3.503   8.798 -0.2754 -0.0722  0.1113
  279loPI   C5A 4459  15.313   3.725   8.532  0.4933 -0.2385  0.0203
  279loPI   C6A 4460  15.328   4.121   8.203 -0.0772  0.0512 -0.0812
  279loPI   C1B 4461  15.644   3.836   9.870 -0.0397 -0.1249  0.0208
  279loPI   C2B 4462  15.549   3.773   9.415  0.2920  0.2522 -0.1084
  279loPI   C3B 4463  15.668   3.843   8.977  0.1580  0.3309 -0.0900
  279loPI   C4B 4464  15.757   3.998   8.517 -0.0591 -0.0474 -0.0108
  280loPI    C1 4465   3.527   3.804  11.204 -0.0521  0.1485  0.0269
  280loPI    C2 4466   3.358   4.001  11.509 -0.1796  0.0111  0.0458
  280loPI    C3 4467   3.303   3.606  11.470  0.0682 -0.0214  0.0039
  280loPI   PO4 4468   3.544   4.026  11.046  0.2020  0.0428  0.0149
  280loPI   GL1 4469   3.696   4.083  10.594 -0.1541  0.3552 -0.1439
  280loPI   GL2 4470   3.528   4.105  10.409  0.2956 -0.3032  0.2024
  280loPI   C1A 4471   3.970   3.869  10.259  0.1565 -0.0694 -0.4308
  280loPI   C2A 4472   4.059   3.946   9.835  0.0161 -0.1289 -0.0822
  280loPI   C3A 4473   4.068   3.981   9.363  0.0698 -0.1024  0.1002
  280loPI   C4A 4474   3.979   3.888   8.849  0.0499  0.1666 -0.3010
  280loPI   C5A 4475   3.965   4.023   8.417 -0.2712  0.1039  0.1111
  280loPI   C6A 4476   3.948   3.772   8.053  0.0583 -0.0512 -0.2397
  280loPI   C1B 4477   3.576   4.230   9.980  0.2506  0.1797  0.1249
  280loPI   C2B 4478   3.555   4.171   9.577 -0.2326  0.0122 -0.2389
  280loPI   C3B 4479   3.594   4.133   9.128  0.0315  0.1570 -0.0871
  280loPI   C4B 4480   3.540   4.081   8.671  0.0226  0.0755 -0.0172
  281loPI    C1 4481   7.061   3.820  11.208 -0.0125  0.1357  0.0258
  281loPI    C2 4482   7.326   3.626  11.436 -0.1362 -0.0345  0.0265
  281loPI    C3 4483   7.005   3.796  11.603 -0.0971  0.0559  0.0095
  281loPI   PO4 4484   7.236   3.839  10.959  0.4608  0.1248 -0.1778
  281loPI   GL1 4485   7.007   3.921  10.529  0.0550 -0.1605 -0.1490
  281loPI   GL2 4486   6.832   3.689  10.270 -0.0617 -0.0512 -0.2570
  281loPI   C1A 4487   7.177   4.058  10.192 -0.1259  0.0780 -0.2108
  281loPI   C2A 4488   7.132   3.969   9.727 -0.2539  0.1063  0.0109
  281loPI   C3A 4489   7.114   3.991   9.276 -0.0138  0.0519 -0.0051
  281loPI   C4A 4490   7.126   3.945   8.875 -0.1548 -0.2199 -0.0243
  281loPI   C5A 4491   7.110   3.961   8.390  0.1423 -0.2505  0.3332
  281loPI   C6A 4492   6.844   3.916   8.047 -0.0538 -0.1394  0.2514
  281loPI   C1B 4493   6.747   3.735   9.879 -0.0497  0.0225  0.2799
  281loPI   C2B 4494   6.723   3.704   9.386  0.0302 -0.2870  0.3618
  281loPI   C3B 4495   6.592   3.668   8.887 -0.0082  0.5443  0.1128
  281loPI   C4B 4496   6.725   3.646   8.455  0.1027 -0.0104 -0.0402
  282loPI    C1 4497   7.735  15.561  11.006 -0.0427  0.0769  0.0364
  282loPI    C2 4498   7.497  15.377  10.742 -0.1875  0.0979  0.1512
  282loPI    C3 4499   7.593  15.196  11.086 -0.2008  0.1711  0.1938
  282loPI   PO4 4500   7.805  15.775  10.858  0.1593  0.0662 -0.1463
  282loPI   GL1 4501   7.699  15.936  10.422 -0.3991  0.1119 -0.1449
  282loPI   GL2 4502   7.569  15.709  10.383  0.2576 -0.0821  0.0018
  282loPI   C1A 4503   7.747  16.211  10.143  0.0046  0.1860  0.0223
  282loPI   C2A 4504   7.708  16.208   9.661 -0.2206 -0.0696  0.2556
  282loPI   C3A 4505   7.744  16.302   9.245 -0.0061 -0.2955 -0.0990
  282loPI   C4A 4506   7.854  16.179   8.862 -0.1827  0.0396  0.2081
  282loPI   C5A 4507   8.250  16.137   8.510 -0.0217  0.1439 -0.0275
  282loPI   C6A 4508   8.394  15.744   8.422 -0.3052 -0.0253  0.2226
  282loPI   C1B 4509   7.787  15.674   9.988  0.0555  0.2330  0.2752
  282loPI   C2B 4510   7.816  15.620   9.591  0.0969 -0.0224  0.1227
  282loPI   C3B 4511   7.805  15.769   9.199 -0.2984  0.1844 -0.0984
  282loPI   C4B 4512   7.981  15.717   8.717  0.0062 -0.3080 -0.0809
  283loPI    C1 4513  15.167   6.199  10.948  0.1770 -0.1190 -0.0430
  283loPI    C2 4514  14.795   6.131  11.078  0.1276  0.0726 -0.0801
  283loPI    C3 4515  15.074   6.266  11.331  0.1972 -0.1568 -0.0314
  283loPI   PO4 4516  15.139   6.264  10.702 -0.2719 -0.0642 -0.0945
  283loPI   GL1 4517  14.938   6.034  10.397 -0.4953  0.1829 -0.1716
  283loPI   GL2 4518  15.310   5.803  10.433 -0.3148  0.2997  0.1172
  283loPI   C1A 4519  14.861   6.038   9.971 -0.1500 -0.0254 -0.2530
  283loPI   C2A 4520  14.814   6.013   9.571  0.2082  0.4757  0.1683
  283loPI   C3A 4521  14.907   6.068   9.119  0.1162 -0.0048 -0.2030
  283loPI   C4A 4522  14.876   6.163   8.848 -0.1084  0.0431  0.0457
  283loPI   C5A 4523  15.057   6.181   8.500  0.1960 -0.3779  0.1324
  283loPI   C6A 4524  15.505   6.005   8.293 -0.0137 -0.0650  0.0268
  283loPI   C1B 4525  15.305   5.862  10.050 -0.0547  0.0203  0.0140
  283loPI   C2B 4526  15.253   5.812   9.631  0.0269 -0.0935  0.2387
  283loPI   C3B 4527  15.324   5.793   9.217 -0.3745  0.0462  0.0982
  283loPI   C4B 4528  15.353   5.902   8.782  0.0255 -0.1883 -0.0520
  284loPI    C1 4529   7.742  17.595  11.028  0.0182 -0.2529 -0.0121
  284loPI    C2 4530   7.920  17.278  11.195  0.2792  0.0146  0.2289
  284loPI    C3 4531   7.534  17.354  11.270  0.1719 -0.3290  0.0454
  284loPI   PO4 4532   7.832  17.659  10.854 -0.0664  0.0220 -0.1624
  284loPI   GL1 4533   7.761  17.780  10.557  0.0211 -0.1788  0.1460
  284loPI   GL2 4534   7.752  18.130  10.571 -0.1244  0.0100  0.0918
  284loPI   C1A 4535   7.577  17.776  10.192  0.0025 -0.0728 -0.0156
  284loPI   C2A 4536   7.557  17.825   9.764  0.0155  0.0745 -0.0408
  284loPI   C3A 4537   7.650  17.808   9.369  0.1151  0.1295  0.2188
  284loPI   C4A 4538   7.682  17.730   8.905  0.3003  0.2215  0.0724
  284loPI   C5A 4539   8.037  17.667   8.591 -0.0126  0.0651 -0.1311
  284loPI   C6A 4540   8.524  17.648   8.483 -0.1089  0.0893 -0.1814
  284loPI   C1B 4541   8.023  18.513  10.366 -0.1216  0.2971  0.0802
  284loPI   C2B 4542   8.050  18.633   9.820 -0.0551  0.0829 -0.4833
  284loPI   C3B 4543   7.996  18.625   9.445  0.0464  0.2995 -0.2239
  284loPI   C4B 4544   7.991  18.569   8.952 -0.0808  0.1130  0.1304
  285loPI    C1 4545   9.972  17.400  11.297 -0.0820  0.0806  0.0200
  285loPI    C2 4546   9.742  17.675  11.473  0.0743  0.2050  0.0321
  285loPI    C3 4547  10.103  17.591  11.624  0.0184 -0.0233  0.0413
  285loPI   PO4 4548   9.906  17.529  11.022 -0.0327 -0.0366 -0.0166
  285loPI   GL1 4549   9.922  17.443  10.614  0.0282  0.0275  0.2090
  285loPI   GL2 4550   9.819  17.846  10.597 -0.0675 -0.0383 -0.1390
  285loPI   C1A 4551   9.927  17.283  10.269  0.2127 -0.0598 -0.1611
  285loPI   C2A 4552   9.974  17.204   9.814 -0.2258 -0.0909 -0.0768
  285loPI   C3A 4553   9.892  17.207   9.340 -0.0080 -0.1830 -0.0890
  285loPI   C4A 4554   9.982  17.330   8.900 -0.2031  0.1965 -0.0468
  285loPI   C5A 4555   9.855  17.236   8.499 -0.0383 -0.3507  0.1657
  285loPI   C6A 4556   9.831  17.535   8.202 -0.1683 -0.2258  0.0945
  285loPI   C1B 4557   9.544  17.997  10.340  0.0599 -0.1315 -0.0447
  285loPI   C2B 4558   9.430  17.973   9.867 -0.0293 -0.2112 -0.0020
  285loPI   C3B 4559   9.378  17.913   9.402  0.1509  0.3453 -0.0382
  285loPI   C4B 4560   9.321  17.925   8.978 -0.0143 -0.1460  0.2026
  286loPI    C1 4561   2.852  12.215  11.321 -0.2721 -0.0803 -0.0847
  286loPI    C2 4562   2.596  12.148  11.620  0.1703 -0.1981  0.2803
  286loPI    C3 4563   2.911  11.907  11.570  0.2449 -0.0235 -0.1255
  286loPI   PO4 4564   2.807  12.301  11.022 -0.1841 -0.1882  0.1329
  286loPI   GL1 4565   2.620  12.101  10.681  0.1453 -0.2070  0.3673
  286loPI   GL2 4566   2.339  12.152  10.769 -0.3286  0.1440 -0.0139
  286loPI   C1A 4567   2.683  11.988  10.247  0.2892 -0.0958  0.1579
  286loPI   C2A 4568   2.716  11.977   9.919 -0.3136  0.0514 -0.1169
  286loPI   C3A 4569   2.791  11.947   9.479 -0.0840 -0.0136  0.0304
  286loPI   C4A 4570   2.777  12.036   9.055  0.0112  0.2064  0.2007
  286loPI   C5A 4571   2.692  12.048   8.632 -0.0998  0.1478  0.2108
  286loPI   C6A 4572   2.895  12.281   8.295 -0.3014 -0.3218 -0.2311
  286loPI   C1B 4573   2.252  12.190  10.399 -0.0672  0.2040  0.0294
  286loPI   C2B 4574   2.311  12.195   9.928  0.0906 -0.1298  0.0478
  286loPI   C3B 4575   2.340  12.202   9.552 -0.1260 -0.2307 -0.3418
  286loPI   C4B 4576   2.259  12.236   9.063  0.0130  0.0216 -0.0672
  287loPI    C1 4577   4.010   3.991  11.267 -0.0797  0.0136  0.0777
  287loPI    C2 4578   3.968   3.641  11.457  0.0068  0.0600  0.1834
  287loPI    C3 4579   3.831   3.977  11.625  0.0861  0.1017  0.1650
  287loPI   PO4 4580   4.116   4.009  11.005  0.0629 -0.5532  0.1910
  287loPI   GL1 4581   4.353   3.805  10.670  0.0216 -0.0480 -0.0249
  287loPI   GL2 4582   4.278   4.219  10.534 -0.0819  0.0160 -0.1759
  287loPI   C1A 4583   4.446   3.797  10.199  0.2259  0.0596 -0.0073
  287loPI   C2A 4584   4.557   3.820   9.732  0.1444  0.5205  0.2609
  287loPI   C3A 4585   4.524   3.773   9.297  0.3084  0.0881 -0.1199
  287loPI   C4A 4586   4.400   3.601   8.928  0.1263 -0.2150  0.1200
  287loPI   C5A 4587   4.412   3.493   8.499 -0.0894  0.0890  0.2818
  287loPI   C6A 4588   3.985   3.325   8.219  0.1269 -0.1500  0.3408
  287loPI   C1B 4589   4.389   4.272  10.063  0.0540 -0.1372 -0.0844
  287loPI   C2B 4590   4.376   4.288   9.598 -0.1005 -0.2972 -0.1368
  287loPI   C3B 4591   4.511   4.278   9.215 -0.0643  0.0408 -0.1247
  287loPI   C4B 4592   4.402   4.215   8.801  0.0355 -0.4258  0.5573
  288loPI    C1 4593  17.562  17.428  11.228  0.0400  0.0527  0.2552
  288loPI    C2 4594  17.204  17.389  11.402  0.0196 -0.0666  0.1873
  288loPI    C3 4595  17.486  17.111  11.460  0.0336 -0.0751  0.0806
  288loPI   PO4 4596  17.519  17.432  11.007  0.0769 -0.1466  0.2661
  288loPI   GL1 4597  17.519  17.403  10.635  0.1009  0.2243  0.1927
  288loPI   GL2 4598  17.554  17.030  10.550  0.0380 -0.3007  0.0960
  288loPI   C1A 4599  17.276  17.336  10.320  0.1212  0.1250  0.0894
  288loPI   C2A 4600  17.218  17.319   9.841 -0.2610 -0.1619  0.2847
  288loPI   C3A 4601  17.294  17.337   9.411 -0.3432  0.0461 -0.0697
  288loPI   C4A 4602  17.301  17.481   9.099  0.0616  0.0542 -0.1404
  288loPI   C5A 4603  17.342  17.492   8.632  0.0651  0.1430  0.1112
  288loPI   C6A 4604  17.711  17.552   8.299  0.1579 -0.1677 -0.0580
  288loPI   C1B 4605  17.643  17.171  10.065 -0.1144  0.4360  0.1265
  288loPI   C2B 4606  17.792  17.239   9.668 -0.1461 -0.1807  0.0014
  288loPI   C3B 4607  17.744  17.170   9.257  0.0020  0.0672  0.0106
  288loPI   C4B 4608  17.785  17.240   8.722  0.2886 -0.2390  0.1216
  289loPI    C1 4609   9.865   0.832  11.270  0.1865  0.1705 -0.1176
  289loPI    C2 4610  10.155   0.557  11.287 -0.0796 -0.0974  0.2565
  289loPI    C3 4611  10.135   0.843  11.565  0.0323  0.1393  0.0260
  289loPI   PO4 4612   9.859   0.970  11.087 -0.2319  0.1151 -0.1278
  289loPI   GL1 4613   9.668   1.115  10.688 -0.0239 -0.2670 -0.1426
  289loPI   GL2 4614   9.701   1.420  10.487 -0.2765 -0.0151 -0.3244
  289loPI   C1A 4615   9.750   1.001  10.229 -0.0634  0.0441 -0.0548
  289loPI   C2A 4616   9.736   0.835   9.799 -0.2582  0.0861  0.3848
  289loPI   C3A 4617   9.668   0.948   9.385  0.0079 -0.0199  0.0250
  289loPI   C4A 4618   9.609   1.028   8.980  0.2360  0.0458  0.0084
  289loPI   C5A 4619   9.448   0.838   8.595  0.0369  0.2120 -0.0791
  289loPI   C6A 4620   9.352   0.456   8.401 -0.1113 -0.1637 -0.1135
  289loPI   C1B 4621   9.730   1.416   9.978  0.0383  0.0297 -0.2831
  289loPI   C2B 4622   9.539   1.434   9.586 -0.0354 -0.1674  0.1382
  289loPI   C3B 4623   9.683   1.547   9.169  0.0951  0.0523 -0.2684
  289loPI   C4B 4624   9.590   1.482   8.706  0.2399 -0.3155  0.0622
  290loPI    C1 4625   9.313  15.205  11.278  0.0637  0.2589 -0.0564
  290loPI    C2 4626   9.363  15.477  11.567 -0.0582  0.0925  0.1237
  290loPI    C3 4627   9.043  15.237  11.571  0.0540 -0.0623 -0.0271
  290loPI   PO4 4628   9.607  15.107  11.253 -0.1356 -0.0443  0.1869
  290loPI   GL1 4629   9.852  14.845  10.936  0.3145 -0.0373 -0.1435
  290loPI   GL2 4630  10.020  14.679  10.884  0.0477 -0.1047  0.0179
  290loPI   C1A 4631   9.733  14.923  10.539  0.0176  0.0852  0.2147
  290loPI   C2A 4632   9.658  14.821  10.194  0.1536 -0.2238 -0.1248
  290loPI   C3A 4633   9.775  14.900   9.784  0.1265  0.0821 -0.0542
  290loPI   C4A 4634   9.797  14.937   9.336 -0.0235 -0.1910 -0.1188
  290loPI   C5A 4635   9.816  14.862   8.856 -0.1190  0.0775  0.1545
  290loPI   C6A 4636   9.878  14.636   8.451 -0.0515  0.0419  0.0900
  290loPI   C1B 4637   9.875  14.416  10.390 -0.1211 -0.3799  0.0717
  290loPI   C2B 4638   9.723  14.348   9.990 -0.0210  0.1046 -0.0057
  290loPI   C3B 4639   9.803  14.484   9.537  0.1238 -0.2683  0.0227
  290loPI   C4B 4640   9.829  14.439   9.155  0.2808  0.1209 -0.0200
  291loPI    C1 4641   1.166   8.438  11.436  0.1308  0.1155 -0.2338
  291loPI    C2 4642   1.425   8.717  11.560  0.0437  0.0326  0.1448
  291loPI    C3 4643   1.453   8.342  11.698 -0.0351 -0.0719 -0.1180
  291loPI   PO4 4644   1.207   8.540  11.106 -0.2424  0.0010 -0.1690
  291loPI   GL1 4645   1.234   8.369  10.732 -0.0926 -0.0118  0.1618
  291loPI   GL2 4646   1.248   8.084  10.799 -0.1142  0.0510  0.0919
  291loPI   C1A 4647   1.312   8.490  10.301 -0.0209  0.0146  0.0820
  291loPI   C2A 4648   1.212   8.668   9.878 -0.0072  0.3400  0.2960
  291loPI   C3A 4649   1.222   8.778   9.456  0.3705  0.0315  0.1072
  291loPI   C4A 4650   1.244   8.714   8.999  0.1467  0.1091  0.1115
  291loPI   C5A 4651   1.203   8.496   8.624 -0.1325 -0.0875 -0.0619
  291loPI   C6A 4652   1.316   8.036   8.469  0.0285 -0.0549 -0.0763
  291loPI   C1B 4653   1.324   8.027  10.398 -0.0200  0.2803  0.0939
  291loPI   C2B 4654   1.302   8.110   9.952 -0.0560 -0.0730 -0.2423
  291loPI   C3B 4655   1.256   8.173   9.524  0.1710  0.2369 -0.2036
  291loPI   C4B 4656   1.333   8.256   9.094 -0.0172  0.0132 -0.0335
  292loPI    C1 4657   5.275   2.218  11.524 -0.0938  0.0118  0.1130
  292loPI    C2 4658   5.579   2.252  11.782 -0.0909 -0.3048  0.1556
  292loPI    C3 4659   5.205   2.209  11.917 -0.1806  0.2417  0.1040
  292loPI   PO4 4660   5.397   2.361  11.349  0.0269  0.0096  0.0587
  292loPI   GL1 4661   5.440   2.456  10.952  0.2765  0.2322  0.2517
  292loPI   GL2 4662   5.172   2.484  10.843 -0.1563  0.1881 -0.0899
  292loPI   C1A 4663   5.527   2.247  10.509 -0.1295  0.1520  0.0341
  292loPI   C2A 4664   5.514   2.333  10.158 -0.1207  0.1567  0.0554
  292loPI   C3A 4665   5.384   2.272   9.687  0.0146 -0.1795 -0.0344
  292loPI   C4A 4666   5.569   2.346   9.354  0.0847  0.0040  0.0197
  292loPI   C5A 4667   5.529   2.224   8.861  0.2421 -0.2411 -0.4495
  292loPI   C6A 4668   5.241   2.340   8.655  0.0689  0.3072 -0.1864
  292loPI   C1B 4669   5.000   2.507  10.442 -0.1804  0.2728 -0.1530
  292loPI   C2B 4670   5.048   2.502   9.964  0.0544  0.3520 -0.0786
  292loPI   C3B 4671   4.907   2.471   9.553 -0.1408  0.0141  0.0086
  292loPI   C4B 4672   5.082   2.482   9.144  0.5865  0.0208 -0.2552
  293loPI    C1 4673  10.777  15.916  11.248 -0.0534 -0.1800 -0.0836
  293loPI    C2 4674  11.097  15.832  11.023  0.0831  0.1861 -0.0327
  293loPI    C3 4675  11.093  15.732  11.410  0.1022  0.1088 -0.0524
  293loPI   PO4 4676  10.646  16.052  10.935  0.1569  0.1055  0.2023
  293loPI   GL1 4677  10.811  16.092  10.542 -0.1693  0.0138  0.0260
  293loPI   GL2 4678  10.454  16.064  10.466 -0.1234  0.2051  0.1264
  293loPI   C1A 4679  11.037  15.734  10.303 -0.2338  0.0062  0.0929
  293loPI   C2A 4680  11.076  15.784   9.906  0.1035 -0.0055 -0.0722
  293loPI   C3A 4681  11.064  15.893   9.446 -0.1742 -0.3283 -0.0388
  293loPI   C4A 4682  11.060  15.914   8.948 -0.1312 -0.0321 -0.2021
  293loPI   C5A 4683  11.005  15.898   8.522 -0.0248  0.1312 -0.0004
  293loPI   C6A 4684  10.968  16.037   8.094 -0.2883 -0.0818 -0.4020
  293loPI   C1B 4685  10.584  16.075  10.097 -0.2219  0.0325  0.1535
  293loPI   C2B 4686  10.497  16.058   9.692  0.3338  0.1311 -0.1309
  293loPI   C3B 4687  10.672  16.096   9.233  0.0148 -0.0752 -0.1968
  293loPI   C4B 4688  10.560  16.066   8.790 -0.1687 -0.0534 -0.2514
  294loPI    C1 4689  13.140   1.895  11.043  0.1698  0.0547 -0.1374
  294loPI    C2 4690  13.307   1.702  11.351  0.0307  0.1317 -0.0128
  294loPI    C3 4691  13.326   2.102  11.331 -0.2891  0.1554  0.0958
  294loPI   PO4 4692  13.163   1.802  10.891  0.0656 -0.1205  0.0995
  294loPI   GL1 4693  13.076   1.736  10.397 -0.2127 -0.2414  0.2993
  294loPI   GL2 4694  13.435   1.644  10.406  0.2336 -0.3637 -0.1869
  294loPI   C1A 4695  13.060   2.011  10.176  0.1041  0.0126 -0.2798
  294loPI   C2A 4696  13.059   2.068   9.754 -0.0617  0.0098 -0.2483
  294loPI   C3A 4697  13.135   1.962   9.266 -0.1642 -0.1904  0.0161
  294loPI   C4A 4698  13.110   2.044   8.835 -0.2361 -0.0058  0.0548
  294loPI   C5A 4699  12.995   2.010   8.420 -0.0281  0.4927  0.1027
  294loPI   C6A 4700  12.991   1.932   8.049 -0.0963 -0.1295  0.0765
  294loPI   C1B 4701  13.464   1.787   9.952 -0.0435  0.0108  0.0580
  294loPI   C2B 4702  13.578   1.745   9.495 -0.1878  0.0552  0.3103
  294loPI   C3B 4703  13.574   1.822   9.088 -0.0556 -0.0081  0.3192
  294loPI   C4B 4704  13.385   1.676   8.675  0.2806  0.0366  0.1411
  295loPI    C1 4705  13.765  17.555  11.002 -0.1871 -0.0785  0.1469
  295loPI    C2 4706  13.979  17.822  11.209  0.0448  0.0262 -0.2174
  295loPI    C3 4707  13.952  17.445  11.338 -0.1415  0.1783  0.2081
  295loPI   PO4 4708  13.658  17.818  10.797 -0.0050  0.0315 -0.0929
  295loPI   GL1 4709  13.516  18.076  10.528  0.0493 -0.1850  0.0216
  295loPI   GL2 4710  13.532  18.383  10.409 -0.1086  0.4703  0.3800
  295loPI   C1A 4711  13.392  17.919  10.105  0.1151 -0.1965  0.0771
  295loPI   C2A 4712  13.617  17.650   9.769 -0.0697  0.1568 -0.3300
  295loPI   C3A 4713  13.855  17.509   9.426  0.0122  0.1981  0.0759
  295loPI   C4A 4714  13.657  17.428   9.081 -0.2202 -0.0692 -0.1025
  295loPI   C5A 4715  13.693  17.417   8.679 -0.1074 -0.1398 -0.0557
  295loPI   C6A 4716  13.535  17.886   8.570  0.4267 -0.0619 -0.0855
  295loPI   C1B 4717  13.583  18.660  10.032 -0.1986 -0.1696 -0.1107
  295loPI   C2B 4718  13.583  18.634   9.549  0.3223  0.1843  0.1088
  295loPI   C3B 4719  13.518  18.432   9.191  0.1945 -0.5708  0.2351
  295loPI   C4B 4720  13.506  18.382   8.787 -0.1441 -0.1692 -0.2022
  296loPI    C1 4721   2.409   3.453  11.237 -0.0873 -0.1643  0.2811
  296loPI    C2 4722   2.501   3.114  11.047  0.0406 -0.0879  0.2054
  296loPI    C3 4723   2.375   3.103  11.427 -0.0273 -0.2255  0.1793
  296loPI   PO4 4724   2.303   3.578  11.001 -0.0029 -0.1822 -0.2197
  296loPI   GL1 4725   2.325   3.674  10.608  0.0656  0.0646  0.0353
  296loPI   GL2 4726   2.335   3.336  10.570  0.0808  0.0034 -0.0832
  296loPI   C1A 4727   2.207   3.799  10.213 -0.0580  0.2214  0.2813
  296loPI   C2A 4728   2.187   3.842   9.729  0.0228 -0.1147  0.2481
  296loPI   C3A 4729   2.141   3.734   9.331 -0.0899 -0.0769  0.0243
  296loPI   C4A 4730   2.176   3.756   8.889 -0.1070  0.0132 -0.1802
  296loPI   C5A 4731   2.519   3.665   8.597 -0.0468 -0.2637  0.1562
  296loPI   C6A 4732   2.462   3.361   8.275 -0.1070  0.0495  0.3408
  296loPI   C1B 4733   2.269   3.245  10.155  0.0448 -0.1339  0.0805
  296loPI   C2B 4734   2.239   3.334   9.783  0.0803  0.1369  0.2579
  296loPI   C3B 4735   2.136   3.227   9.397 -0.1646  0.0426  0.1466
  296loPI   C4B 4736   1.844   2.941   9.240 -0.0152  0.3494  0.0923
  297loPI    C1 4737   2.217   6.029  11.122  0.1971 -0.0254  0.1835
  297loPI    C2 4738   2.519   5.876  10.909 -0.0393 -0.3142  0.0476
  297loPI    C3 4739   2.505   5.822  11.305  0.1604 -0.1749  0.0749
  297loPI   PO4 4740   2.201   6.282  10.935  0.1013  0.0192 -0.2609
  297loPI   GL1 4741   2.205   6.265  10.537 -0.1413 -0.0347  0.1897
  297loPI   GL2 4742   2.490   6.190  10.523  0.0618 -0.0086  0.1862
  297loPI   C1A 4743   2.303   6.667  10.266  0.2117 -0.0613  0.0309
  297loPI   C2A 4744   2.240   6.656   9.801 -0.1098  0.1945 -0.1307
  297loPI   C3A 4745   2.346   6.647   9.293  0.2845 -0.2385 -0.0481
  297loPI   C4A 4746   2.271   6.859   8.913  0.0240 -0.2701 -0.1913
  297loPI   C5A 4747   2.068   6.976   8.508 -0.0624  0.2035  0.1164
  297loPI   C6A 4748   2.392   7.230   8.202  0.0475  0.0197 -0.0102
  297loPI   C1B 4749   2.406   6.103  10.113 -0.1750 -0.1673 -0.0881
  297loPI   C2B 4750   2.349   6.155   9.691  0.1133  0.0741  0.0104
  297loPI   C3B 4751   2.416   6.092   9.260  0.0025  0.1504  0.0407
  297loPI   C4B 4752   2.352   6.206   8.890  0.0224  0.0068  0.3134
  298loPI    C1 4753   8.376   7.354  11.029  0.1131 -0.1053  0.1297
  298loPI    C2 4754   8.384   7.694  11.238 -0.0316 -0.0848  0.1032
  298loPI    C3 4755   8.085   7.434  11.292  0.0761 -0.2058  0.1200
  298loPI   PO4 4756   8.396   7.455  10.766 -0.3481 -0.1066 -0.1907
  298loPI   GL1 4757   8.341   7.275  10.403 -0.3484  0.0890 -0.3172
  298loPI   GL2 4758   8.111   7.551  10.354  0.0661  0.0660  0.3439
  298loPI   C1A 4759   8.176   7.153  10.004 -0.1471 -0.1601 -0.0937
  298loPI   C2A 4760   8.112   7.105   9.597  0.1278  0.3323 -0.1865
  298loPI   C3A 4761   8.132   7.050   9.230  0.0163  0.1252  0.1401
  298loPI   C4A 4762   8.084   7.150   8.884 -0.2577 -0.0055  0.1958
  298loPI   C5A 4763   8.276   7.138   8.538  0.1657  0.4406  0.2203
  298loPI   C6A 4764   8.125   7.131   8.076  0.0977 -0.1721  0.0669
  298loPI   C1B 4765   8.135   7.655   9.943 -0.0523  0.1575  0.0251
  298loPI   C2B 4766   8.100   7.607   9.524  0.2789  0.0270  0.1165
  298loPI   C3B 4767   8.078   7.597   9.057  0.0483 -0.0483 -0.1547
  298loPI   C4B 4768   8.163   7.607   8.680  0.0171 -0.1915  0.0243
  299loPI    C1 4769   2.808   4.444  11.100 -0.1367  0.0610  0.0214
  299loPI    C2 4770   3.169   4.441  11.272 -0.0293  0.0740 -0.2006
  299loPI    C3 4771   2.867   4.239  11.439  0.1117 -0.0409 -0.0807
  299loPI   PO4 4772   2.913   4.449  10.768 -0.1886  0.2855 -0.1613
  299loPI   GL1 4773   3.066   4.219  10.551 -0.0451  0.1055 -0.0191
  299loPI   GL2 4774   2.767   4.029  10.491  0.2035  0.0097 -0.3376
  299loPI   C1A 4775   3.124   4.410  10.151  0.0584 -0.1628 -0.1550
  299loPI   C2A 4776   2.998   4.402   9.721 -0.2843 -0.1377 -0.0345
  299loPI   C3A 4777   3.011   4.271   9.318  0.0805  0.2479 -0.0862
  299loPI   C4A 4778   3.015   4.424   9.002  0.1511  0.1091 -0.0267
  299loPI   C5A 4779   3.107   4.314   8.560 -0.2378  0.0259  0.2488
  299loPI   C6A 4780   3.018   4.466   8.202  0.1928  0.2802  0.1900
  299loPI   C1B 4781   2.628   4.094  10.120  0.0426  0.1221 -0.0047
  299loPI   C2B 4782   2.612   4.108   9.641  0.2584  0.0755  0.2109
  299loPI   C3B 4783   2.606   4.031   9.229  0.0982 -0.0828 -0.1756
  299loPI   C4B 4784   2.590   4.052   8.901  0.1008 -0.0464  0.2740
  300loPI    C1 4785   3.079   6.535  11.266  0.1396  0.0214 -0.0925
  300loPI    C2 4786   3.255   6.823  11.480  0.0439 -0.0202  0.0434
  300loPI    C3 4787   2.932   6.636  11.624 -0.0043 -0.0685 -0.1254
  300loPI   PO4 4788   3.104   6.572  10.976  0.0479 -0.1946  0.0590
  300loPI   GL1 4789   3.392   6.633  10.732 -0.0630  0.0974 -0.2507
  300loPI   GL2 4790   3.376   6.340  10.513  0.1482  0.3903  0.0636
  300loPI   C1A 4791   3.259   6.837  10.371  0.0053  0.1953 -0.2292
  300loPI   C2A 4792   3.204   6.906   9.975  0.3408  0.3697 -0.1981
  300loPI   C3A 4793   3.190   6.795   9.567  0.0897  0.0873 -0.1680
  300loPI   C4A 4794   3.259   6.855   9.113 -0.0063 -0.1215 -0.0022
  300loPI   C5A 4795   3.291   6.903   8.717 -0.1156  0.0969 -0.1218
  300loPI   C6A 4796   3.192   6.835   8.313  0.2990 -0.1101 -0.1665
  300loPI   C1B 4797   3.330   6.286  10.092 -0.1433  0.0207 -0.1200
  300loPI   C2B 4798   3.310   6.177   9.666  0.1203  0.0928  0.1577
  300loPI   C3B 4799   3.281   6.274   9.245 -0.0644  0.1100 -0.0291
  300loPI   C4B 4800   3.266   6.366   8.806  0.1239 -0.1451  0.0735
  301loPI    C1 4801  17.423  13.385  11.019 -0.1393 -0.1570 -0.2459
  301loPI    C2 4802  17.409  12.986  10.988 -0.0544 -0.1977  0.1833
  301loPI    C3 4803  17.580  13.157  11.307 -0.1721  0.1834  0.0482
  301loPI   PO4 4804  17.537  13.446  10.851 -0.0743 -0.0808 -0.4351
  301loPI   GL1 4805  17.716  13.596  10.465 -0.1031 -0.1304  0.0798
  301loPI   GL2 4806  17.523  13.851  10.344 -0.0076 -0.3010 -0.1791
  301loPI   C1A 4807  17.608  13.359  10.122 -0.2485 -0.1859  0.0976
  301loPI   C2A 4808  17.667  13.253   9.648 -0.0703 -0.1090 -0.1420
  301loPI   C3A 4809  17.772  13.282   9.185 -0.3514 -0.0141  0.3075
  301loPI   C4A 4810  17.842  13.175   8.748  0.1116  0.0869 -0.0269
  301loPI   C5A 4811  17.852  12.913   8.515 -0.1652  0.3106  0.0690
  301loPI   C6A 4812  17.789  12.643   8.098 -0.2721  0.1454  0.0753
  301loPI   C1B 4813  17.683  13.796   9.819  0.2397  0.1166  0.0647
  301loPI   C2B 4814  17.762  13.775   9.424  0.0664  0.0287 -0.4455
  301loPI   C3B 4815  17.752  13.772   8.968 -0.1828 -0.3334 -0.1367
  301loPI   C4B 4816  17.810  13.614   8.604 -0.0896 -0.0166 -0.1232
  302loPI    C1 4817  11.541   5.757  10.946  0.0439  0.3594  0.0282
  302loPI    C2 4818  11.475   5.376  11.052  0.0505  0.2540 -0.3337
  302loPI    C3 4819  11.780   5.579  11.213 -0.1084  0.1919  0.0553
  302loPI   PO4 4820  11.458   5.742  10.641  0.0735  0.3215  0.3621
  302loPI   GL1 4821  11.250   5.572  10.264  0.1244 -0.1855 -0.1368
  302loPI   GL2 4822  11.006   5.469  10.391 -0.1314  0.0338  0.0002
  302loPI   C1A 4823  11.324   5.718   9.837  0.3535  0.1310 -0.1728
  302loPI   C2A 4824  11.317   5.812   9.386 -0.1370  0.0093  0.0237
  302loPI   C3A 4825  11.333   5.697   8.902  0.1960 -0.0664 -0.0625
  302loPI   C4A 4826  11.351   5.614   8.472 -0.3665 -0.0189  0.3213
  302loPI   C5A 4827  11.371   5.408   8.090 -0.0436  0.0038 -0.0978
  302loPI   C6A 4828  11.176   5.040   7.829 -0.1714  0.0774 -0.2331
  302loPI   C1B 4829  10.892   5.418   9.857  0.0923  0.0374 -0.0351
  302loPI   C2B 4830  10.869   5.475   9.471 -0.0917  0.2043 -0.2150
  302loPI   C3B 4831  10.880   5.431   9.063  0.1052 -0.1143  0.0623
  302loPI   C4B 4832  11.047   5.265   8.703  0.1136  0.2889  0.0880
  303loPI    C1 4833   1.223   6.131  11.292  0.0563 -0.0494 -0.0989
  303loPI    C2 4834   1.147   5.814  11.524  0.1804 -0.1010 -0.1281
  303loPI    C3 4835   1.226   6.170  11.690 -0.1060 -0.0499 -0.0969
  303loPI   PO4 4836   1.290   6.107  11.071 -0.0573  0.0029 -0.1701
  303loPI   GL1 4837   1.205   6.060  10.697 -0.2299 -0.1077 -0.0725
  303loPI   GL2 4838   0.917   6.208  10.612 -0.1024  0.1075  0.1181
  303loPI   C1A 4839   1.134   5.858  10.295 -0.0798  0.0580  0.0402
  303loPI   C2A 4840   1.104   5.795   9.836  0.1623 -0.3423 -0.2719
  303loPI   C3A 4841   1.058   5.727   9.426  0.0049 -0.0091  0.2088
  303loPI   C4A 4842   1.018   5.700   8.941  0.0409 -0.1453  0.0574
  303loPI   C5A 4843   0.902   5.653   8.593 -0.1708 -0.2033  0.1502
  303loPI   C6A 4844   1.133   5.620   8.194  0.1420  0.1682  0.1013
  303loPI   C1B 4845   0.940   6.284  10.164  0.0181 -0.2422  0.1979
  303loPI   C2B 4846   0.947   6.340   9.708  0.0093  0.2103 -0.0412
  303loPI   C3B 4847   0.984   6.250   9.271 -0.1773  0.1017 -0.2661
  303loPI   C4B 4848   0.963   6.214   8.796  0.1100 -0.1520 -0.4205
  304loPI    C1 4849  15.701  14.061  11.367 -0.3898 -0.1392  0.0372
  304loPI    C2 4850  15.630  14.090  11.759 -0.0842 -0.0708  0.0900
  304loPI    C3 4851  15.936  13.869  11.627 -0.0892  0.0345 -0.1009
  304loPI   PO4 4852  15.520  14.026  11.289 -0.2124  0.0222 -0.4120
  304loPI   GL1 4853  15.451  13.982  10.893  0.3547  0.0983  0.1224
  304loPI   GL2 4854  15.723  13.926  10.873 -0.0653 -0.1245 -0.2786
  304loPI   C1A 4855  15.374  13.711  10.536  0.1288 -0.1139 -0.0031
  304loPI   C2A 4856  15.340  13.720  10.109 -0.1966 -0.0843 -0.1728
  304loPI   C3A 4857  15.481  13.713   9.650  0.0844  0.2153  0.0282
  304loPI   C4A 4858  15.384  13.680   9.159  0.0656  0.1177  0.1051
  304loPI   C5A 4859  15.457  13.744   8.736 -0.0168  0.2783  0.2465
  304loPI   C6A 4860  15.522  14.208   8.450 -0.2922 -0.1401  0.3150
  304loPI   C1B 4861  15.772  14.072  10.401 -0.1827 -0.2935  0.3976
  304loPI   C2B 4862  15.812  14.108   9.943  0.0194 -0.0578  0.0184
  304loPI   C3B 4863  15.867  13.984   9.476  0.4511  0.1412 -0.0073
  304loPI   C4B 4864  15.739  14.031   9.052 -0.0558 -0.0474 -0.0732
  305loPI    C1 4865   6.830  11.288  10.866 -0.1244 -0.0153  0.0919
  305loPI    C2 4866   7.010  11.628  10.754 -0.0644 -0.0936 -0.0526
  305loPI    C3 4867   6.898  11.576  11.135  0.2877 -0.0736  0.0573
  305loPI   PO4 4868   6.733  11.217  10.630  0.0244 -0.0426 -0.3122
  305loPI   GL1 4869   6.506  10.914  10.340  0.3579 -0.0495 -0.2832
  305loPI   GL2 4870   6.734  10.739  10.279 -0.0799 -0.0341 -0.1080
  305loPI   C1A 4871   6.612  11.231  10.031 -0.1117 -0.1174 -0.1481
  305loPI   C2A 4872   6.365  11.313   9.709 -0.0069 -0.0386 -0.0972
  305loPI   C3A 4873   6.480  11.357   9.212 -0.0382  0.2137 -0.0469
  305loPI   C4A 4874   6.441  11.331   8.749 -0.1391 -0.0016  0.0189
  305loPI   C5A 4875   6.219  11.217   8.307 -0.0812  0.1627  0.2064
  305loPI   C6A 4876   6.275  11.359   7.814  0.1070  0.1128  0.1830
  305loPI   C1B 4877   6.524  10.790   9.845  0.1446  0.2653 -0.2070
  305loPI   C2B 4878   6.456  10.821   9.400 -0.0572  0.0489 -0.3502
  305loPI   C3B 4879   6.485  10.821   8.933 -0.1299 -0.3321  0.2777
  305loPI   C4B 4880   6.513  10.869   8.495  0.0277 -0.0321 -0.3922
  306loPI    C1 4881   6.135  17.820  11.370  0.0741 -0.1900  0.0361
  306loPI    C2 4882   6.471  17.662  11.520  0.2631  0.3485  0.2041
  306loPI    C3 4883   6.139  17.677  11.743  0.0745 -0.3102 -0.0095
  306loPI   PO4 4884   6.212  18.044  11.196  0.0188  0.3741 -0.0008
  306loPI   GL1 4885   6.259  17.968  10.737 -0.1531 -0.3515  0.0950
  306loPI   GL2 4886   6.531  17.967  10.641 -0.0468 -0.0708 -0.0286
  306loPI   C1A 4887   6.074  18.042  10.411 -0.0158  0.1080 -0.0427
  306loPI   C2A 4888   6.198  17.958  10.007  0.1361 -0.1443 -0.0314
  306loPI   C3A 4889   6.229  17.821   9.646  0.0193  0.1412 -0.3708
  306loPI   C4A 4890   6.212  17.881   9.265 -0.2241  0.0948  0.0040
  306loPI   C5A 4891   6.328  17.744   8.831  0.0231  0.0703 -0.1448
  306loPI   C6A 4892   6.585  17.560   8.545 -0.0442 -0.0710  0.0792
  306loPI   C1B 4893   6.600  17.828  10.329  0.0943 -0.0732 -0.0708
  306loPI   C2B 4894   6.605  17.697   9.905  0.2099  0.3491  0.3275
  306loPI   C3B 4895   6.726  17.620   9.441  0.1662  0.1310 -0.2131
  306loPI   C4B 4896   6.828  17.651   8.997  0.0468 -0.0439 -0.0384
  307loPI    C1 4897   1.070  12.279  10.961  0.1483 -0.0404 -0.1027
  307loPI    C2 4898   0.883  12.262  11.314 -0.1324  0.0345 -0.2445
  307loPI    C3 4899   1.278  12.320  11.300 -0.1215  0.0503  0.0558
  307loPI   PO4 4900   0.845  12.131  10.772  0.0372 -0.2034  0.2277
  307loPI   GL1 4901   0.894  12.302  10.376  0.2731 -0.1534 -0.0653
  307loPI   GL2 4902   0.854  12.527  10.156 -0.0079  0.2984  0.2886
  307loPI   C1A 4903   0.459  12.197  10.238 -0.0619 -0.3766 -0.4048
  307loPI   C2A 4904   0.405  11.967   9.816 -0.0942 -0.0914 -0.0686
  307loPI   C3A 4905   0.393  12.043   9.331 -0.2505 -0.0080  0.0290
  307loPI   C4A 4906   0.462  12.005   8.957  0.0949 -0.1362 -0.1868
  307loPI   C5A 4907   0.560  11.974   8.573 -0.4439  0.0116 -0.4287
  307loPI   C6A 4908   0.523  12.081   8.134  0.2221 -0.3106 -0.0603
  307loPI   C1B 4909   0.764  12.384   9.725 -0.0111 -0.3435  0.3521
  307loPI   C2B 4910   0.798  12.369   9.269 -0.0425  0.1649 -0.1851
  307loPI   C3B 4911   0.899  12.265   8.867 -0.2992 -0.0862 -0.0350
  307loPI   C4B 4912   0.878  12.339   8.450 -0.1246  0.2340  0.0643
  308loPI    C1 4913   4.695   1.831  11.081  0.0383 -0.0908  0.1479
  308loPI    C2 4914   5.001   2.083  11.130 -0.1334  0.1024  0.2402
  308loPI    C3 4915   4.681   2.108  11.369 -0.3796  0.1426 -0.0856
  308loPI   PO4 4916   4.637   1.770  10.863  0.1330 -0.0809 -0.1069
  308loPI   GL1 4917   4.870   1.670  10.565  0.1352 -0.1755 -0.1254
  308loPI   GL2 4918   5.114   1.804  10.556  0.4681  0.0652 -0.0517
  308loPI   C1A 4919   4.687   1.675  10.158  0.0571  0.2565 -0.2315
  308loPI   C2A 4920   4.586   1.689   9.713 -0.0450  0.0958  0.0799
  308loPI   C3A 4921   4.712   1.610   9.363 -0.1518  0.4272  0.1755
  308loPI   C4A 4922   4.741   1.547   8.917 -0.0496 -0.1267 -0.0176
  308loPI   C5A 4923   4.698   1.635   8.454 -0.3721 -0.1042  0.1608
  308loPI   C6A 4924   4.627   2.056   8.295  0.0990  0.2313 -0.2937
  308loPI   C1B 4925   5.466   1.824  10.251 -0.0116  0.6226 -0.4127
  308loPI   C2B 4926   5.619   1.711   9.910 -0.0982 -0.1641  0.2287
  308loPI   C3B 4927   5.507   1.816   9.402  0.2950  0.3171  0.1660
  308loPI   C4B 4928   5.585   1.729   9.008 -0.0561  0.1457  0.1980
  309loPI    C1 4929   8.774   0.060  11.264 -0.1192 -0.0153 -0.0191
  309loPI    C2 4930   9.029   0.007  11.568 -0.2189  0.2469  0.1137
  309loPI    C3 4931   8.682  -0.193  11.560  0.0601 -0.2480 -0.1583
  309loPI   PO4 4932   8.918   0.059  11.059 -0.3758  0.0252 -0.2269
  309loPI   GL1 4933   9.134  -0.034  10.674 -0.2770 -0.0101 -0.1840
  309loPI   GL2 4934   9.237   0.309  10.735  0.0723  0.0478 -0.0385
  309loPI   C1A 4935   9.068  -0.122  10.180  0.3270 -0.0510 -0.0585
  309loPI   C2A 4936   8.966  -0.220   9.709  0.0782 -0.2072  0.4596
  309loPI   C3A 4937   8.961  -0.248   9.247  0.0813  0.0098 -0.0845
  309loPI   C4A 4938   8.875  -0.046   8.835  0.2758 -0.2523  0.1023
  309loPI   C5A 4939   8.886   0.274   8.477 -0.1821  0.1083  0.0368
  309loPI   C6A 4940   9.132   0.354   8.016  0.1425 -0.1366 -0.0903
  309loPI   C1B 4941   8.983   0.336  10.440 -0.2169 -0.0947  0.4508
  309loPI   C2B 4942   8.944   0.341  10.019  0.1406  0.3071 -0.1166
  309loPI   C3B 4943   8.964   0.283   9.594 -0.1200  0.0699  0.0187
  309loPI   C4B 4944   8.904   0.266   9.232  0.2025  0.0005  0.2007
  310loPI    C1 4945  11.902  10.681  10.614  0.4575  0.0525 -0.0251
  310loPI    C2 4946  11.855  10.373  10.364  0.0080  0.1637 -0.0867
  310loPI    C3 4947  11.895  10.307  10.756  0.1256  0.0188 -0.1219
  310loPI   PO4 4948  12.085  10.812  10.508 -0.0683 -0.1120  0.2117
  310loPI   GL1 4949  12.154  10.926  10.152 -0.1059 -0.1205  0.0922
  310loPI   GL2 4950  12.235  10.616  10.063 -0.1611  0.0120  0.0915
  310loPI   C1A 4951  12.185  11.068   9.788 -0.1387  0.0187  0.1947
  310loPI   C2A 4952  12.042  11.074   9.349  0.0680 -0.0853  0.0833
  310loPI   C3A 4953  11.990  10.685   9.273 -0.0641  0.0458 -0.1064
  310loPI   C4A 4954  11.799  10.370   9.029  0.2253  0.4424  0.1614
  310loPI   C5A 4955  11.531  10.071   8.789 -0.0349 -0.0130  0.2727
  310loPI   C6A 4956  11.137  10.031   8.474 -0.4476  0.1711 -0.3282
  310loPI   C1B 4957  11.999  10.460   9.769 -0.1308 -0.2876 -0.2138
  310loPI   C2B 4958  12.131  10.167   9.311 -0.1721 -0.2680 -0.2112
  310loPI   C3B 4959  12.442   9.973   9.139  0.2652  0.2694  0.1354
  310loPI   C4B 4960  12.720   9.906   8.772  0.0226 -0.0250 -0.1040
  311loPI    C1 4961  10.893   3.167  10.925  0.0757 -0.1270  0.0112
  311loPI    C2 4962  10.696   3.026  11.243 -0.0734  0.1446  0.0430
  311loPI    C3 4963  10.942   3.339  11.283  0.1336 -0.0032 -0.0554
  311loPI   PO4 4964  10.949   3.005  10.705  0.0890 -0.3353  0.5572
  311loPI   GL1 4965  11.122   2.785  10.464 -0.1189 -0.0051 -0.2830
  311loPI   GL2 4966  11.141   2.403  10.337  0.3573  0.1029 -0.2159
  311loPI   C1A 4967  11.290   2.766  10.014  0.1662 -0.1739 -0.1563
  311loPI   C2A 4968  11.262   2.871   9.630  0.0030 -0.1548 -0.0982
  311loPI   C3A 4969  11.301   2.751   9.170 -0.2377  0.0512 -0.0584
  311loPI   C4A 4970  11.278   2.775   8.699 -0.0146 -0.1865 -0.0993
  311loPI   C5A 4971  11.488   2.690   8.315 -0.1533  0.1217 -0.0068
  311loPI   C6A 4972  11.871   2.603   8.167 -0.2826  0.2429 -0.1174
  311loPI   C1B 4973  10.967   2.097  10.093 -0.0241  0.0763  0.2266
  311loPI   C2B 4974  10.942   2.024   9.662 -0.3129 -0.1317  0.0101
  311loPI   C3B 4975  10.955   1.924   9.188  0.1731 -0.2166 -0.1191
  311loPI   C4B 4976  10.869   1.891   8.856 -0.1187  0.0864  0.0540
  312loPI    C1 4977  15.190  12.089  11.360  0.0275 -0.2020 -0.0652
  312loPI    C2 4978  15.379  12.041  11.709 -0.0489  0.1184  0.0235
  312loPI    C3 4979  15.010  11.894  11.660 -0.1243  0.2605  0.1540
  312loPI   PO4 4980  15.315  12.068  11.193  0.0349  0.1873  0.0959
  312loPI   GL1 4981  15.094  12.121  10.741  0.2801 -0.0022  0.0156
  312loPI   GL2 4982  15.386  11.752  10.696  0.1615 -0.1944 -0.1468
  312loPI   C1A 4983  15.111  12.385  10.454 -0.1084 -0.0091 -0.0937
  312loPI   C2A 4984  15.194  12.396   9.995 -0.2909  0.1163  0.0012
  312loPI   C3A 4985  15.121  12.460   9.579 -0.1931  0.1414  0.2453
  312loPI   C4A 4986  15.073  12.333   9.171  0.2971  0.0554 -0.1869
  312loPI   C5A 4987  14.884  12.625   8.785 -0.1697  0.0918  0.2604
  312loPI   C6A 4988  14.401  12.606   8.598  0.1189  0.0135  0.1150
  312loPI   C1B 4989  15.216  11.916  10.254  0.1089 -0.0748  0.0046
  312loPI   C2B 4990  15.196  11.882   9.905  0.1907 -0.0143  0.2766
  312loPI   C3B 4991  15.162  11.939   9.515 -0.2956  0.1493 -0.3316
  312loPI   C4B 4992  15.142  11.858   9.064 -0.1069  0.0640 -0.2561
  313loPI    C1 4993   3.992  14.958  11.276  0.0150 -0.0934 -0.0276
  313loPI    C2 4994   3.850  14.680  11.526  0.2171 -0.0020  0.1923
  313loPI    C3 4995   3.644  15.017  11.464  0.1351 -0.0533  0.1848
  313loPI   PO4 4996   4.051  14.825  11.123  0.2727 -0.4020 -0.3491
  313loPI   GL1 4997   3.979  14.814  10.700 -0.0813  0.0943  0.1833
  313loPI   GL2 4998   4.240  14.765  10.402 -0.1417  0.2510  0.1038
  313loPI   C1A 4999   3.797  14.921  10.321  0.0886  0.0583 -0.2992
  313loPI   C2A 5000   3.738  14.905   9.866  0.0247 -0.1877  0.0932
  313loPI   C3A 5001   3.742  14.892   9.481  0.2915 -0.1645 -0.0666
  313loPI   C4A 5002   3.838  15.072   9.175  0.2826 -0.2233 -0.1970
  313loPI   C5A 5003   3.847  14.927   8.728  0.0021 -0.0958 -0.2632
  313loPI   C6A 5004   3.613  15.167   8.424 -0.0152  0.0558 -0.0263
  313loPI   C1B 5005   4.234  14.713   9.979  0.2000 -0.0693 -0.0467
  313loPI   C2B 5006   4.287  14.701   9.422  0.2489  0.1877  0.0812
  313loPI   C3B 5007   4.167  14.717   9.021  0.0905 -0.1494 -0.0131
  313loPI   C4B 5008   4.212  14.636   8.634 -0.1917  0.0721 -0.1651
  314loPI    C1 5009  10.246   4.701  10.809 -0.0529  0.1503 -0.0882
  314loPI    C2 5010  10.456   4.845  11.118  0.1934 -0.1998 -0.0867
  314loPI    C3 5011  10.060   4.800  11.149  0.2065 -0.1637  0.1518
  314loPI   PO4 5012  10.374   4.717  10.595 -0.0185  0.1430  0.2043
  314loPI   GL1 5013  10.262   4.812  10.265  0.0819 -0.1367  0.0498
  314loPI   GL2 5014  10.469   4.969  10.158 -0.1724 -0.1718  0.2910
  314loPI   C1A 5015  10.162   4.814   9.808 -0.5462  0.0081  0.1099
  314loPI   C2A 5016  10.118   4.842   9.397  0.3764  0.1445  0.4768
  314loPI   C3A 5017  10.196   4.696   8.969 -0.0644  0.0424  0.0107
  314loPI   C4A 5018  10.005   4.619   8.566 -0.0973  0.0603  0.0632
  314loPI   C5A 5019  10.274   4.417   8.300 -0.0814 -0.0017  0.0588
  314loPI   C6A 5020  10.412   4.185   8.015  0.1919 -0.1322 -0.4113
  314loPI   C1B 5021  10.516   5.156   9.703 -0.0377  0.1983 -0.0883
  314loPI   C2B 5022  10.549   5.080   9.259 -0.0945 -0.1384  0.1928
  314loPI   C3B 5023  10.590   5.040   8.867 -0.2578 -0.0463  0.1093
  314loPI   C4B 5024  10.639   4.986   8.422  0.0577 -0.0702  0.1684
  315loPI    C1 5025   5.579   3.843  10.845  0.1048  0.1483  0.1831
  315loPI    C2 5026   5.236   3.861  11.049 -0.1102 -0.1116 -0.1451
  315loPI    C3 5027   5.347   4.167  10.816  0.1670  0.2131  0.3947
  315loPI   PO4 5028   5.539   3.554  10.748 -0.1559  0.1558  0.0645
  315loPI   GL1 5029   5.267   3.488  10.454  0.0692  0.1435  0.1141
  315loPI   GL2 5030   5.334   3.845  10.394 -0.2283 -0.2859 -0.3083
  315loPI   C1A 5031   5.476   3.301  10.099 -0.2890  0.0908 -0.2151
  315loPI   C2A 5032   5.416   3.380   9.595  0.1530 -0.2989 -0.1995
  315loPI   C3A 5033   5.349   3.286   9.243 -0.2239  0.0707  0.0835
  315loPI   C4A 5034   5.437   3.235   8.791  0.3402  0.1235  0.1031
  315loPI   C5A 5035   5.824   3.115   8.442  0.3250 -0.0259  0.1346
  315loPI   C6A 5036   5.721   2.752   8.116 -0.0063 -0.2812  0.0624
  315loPI   C1B 5037   5.372   3.914   9.970 -0.0663 -0.3173  0.1822
  315loPI   C2B 5038   5.413   3.852   9.491  0.3158  0.0058  0.0507
  315loPI   C3B 5039   5.297   3.781   9.065 -0.0624  0.1865  0.1532
  315loPI   C4B 5040   5.235   3.918   8.690 -0.1957  0.1536  0.0256
  316loPI    C1 5041   2.371   8.809  11.520  0.0457  0.2280  0.0189
  316loPI    C2 5042   2.338   9.045  11.841  0.0660 -0.0051  0.1959
  316loPI    C3 5043   2.336   8.648  11.885 -0.0013 -0.0401 -0.1014
  316loPI   PO4 5044   2.335   8.870  11.310  0.2282 -0.2931 -0.0333
  316loPI   GL1 5045   2.488   8.779  10.930  0.1385  0.1921  0.1207
  316loPI   GL2 5046   2.146   8.444  10.949 -0.1969  0.0410  0.3868
  316loPI   C1A 5047   2.607   8.620  10.496 -0.0322  0.2914  0.3453
  316loPI   C2A 5048   2.558   8.618  10.070  0.1935 -0.1518 -0.2114
  316loPI   C3A 5049   2.612   8.551   9.578  0.0037 -0.1363 -0.3294
  316loPI   C4A 5050   2.589   8.625   9.155 -0.0771 -0.0563  0.0882
  316loPI   C5A 5051   2.817   8.859   8.915 -0.0403  0.1930 -0.0170
  316loPI   C6A 5052   2.929   9.180   8.558  0.0732 -0.0231  0.0074
  316loPI   C1B 5053   2.215   8.370  10.529  0.1062  0.0564  0.1133
  316loPI   C2B 5054   2.180   8.281  10.050  0.0786  0.2058 -0.0317
  316loPI   C3B 5055   2.164   8.192   9.651  0.1268  0.1528 -0.0787
  316loPI   C4B 5056   2.203   8.282   9.257  0.3207 -0.1502  0.1459
  317loPI    C1 5057   6.861  13.979  11.058  0.0517 -0.0924  0.0769
  317loPI    C2 5058   6.635  14.302  11.122 -0.0376 -0.1116 -0.1347
  317loPI    C3 5059   6.956  14.235  11.350  0.0490  0.1888 -0.1643
  317loPI   PO4 5060   6.695  13.806  11.014 -0.0221 -0.0145 -0.0083
  317loPI   GL1 5061   6.730  13.638  10.650 -0.0408 -0.0641 -0.0468
  317loPI   GL2 5062   6.541  13.917  10.535  0.0432 -0.2810  0.0240
  317loPI   C1A 5063   6.764  13.578  10.105  0.1518  0.2052  0.3280
  317loPI   C2A 5064   6.715  13.625   9.609  0.0216  0.1834  0.1384
  317loPI   C3A 5065   6.696  13.750   9.208 -0.0216 -0.0431 -0.1248
  317loPI   C4A 5066   6.546  13.846   8.688 -0.1085  0.1521 -0.0588
  317loPI   C5A 5067   6.394  14.219   8.539 -0.1668 -0.2110  0.1936
  317loPI   C6A 5068   6.593  14.535   8.275 -0.3258  0.1187 -0.0685
  317loPI   C1B 5069   6.459  13.987  10.100  0.0489 -0.2363  0.2564
  317loPI   C2B 5070   6.203  13.858   9.737  0.0892 -0.1017  0.0979
  317loPI   C3B 5071   6.218  13.900   9.241 -0.1061  0.2866  0.0065
  317loPI   C4B 5072   6.090  13.930   8.850 -0.2083 -0.2126 -0.1752
  318loPI    C1 5073  14.902   3.098  10.881  0.0101 -0.0026  0.0032
  318loPI    C2 5074  14.999   2.898  11.213  0.0227 -0.0298 -0.0167
  318loPI    C3 5075  15.201   3.228  11.113  0.0624 -0.0585 -0.0321
  318loPI   PO4 5076  14.809   2.924  10.765  0.0530  0.1997 -0.0958
  318loPI   GL1 5077  14.628   2.745  10.475  0.3669 -0.0494  0.0816
  318loPI   GL2 5078  14.370   2.923  10.269 -0.0006 -0.0756 -0.4504
  318loPI   C1A 5079  14.798   2.583  10.029  0.1102  0.2755 -0.2736
  318loPI   C2A 5080  14.742   2.668   9.615 -0.0278  0.1406  0.1122
  318loPI   C3A 5081  14.775   2.619   9.190  0.0276 -0.0675 -0.1211
  318loPI   C4A 5082  14.778   2.695   8.735 -0.1321  0.1776  0.3666
  318loPI   C5A 5083  14.926   2.432   8.415  0.0922  0.2901 -0.2620
  318loPI   C6A 5084  15.268   2.335   8.076 -0.2163  0.2368 -0.0290
  318loPI   C1B 5085  14.334   2.801   9.809  0.1453  0.2275 -0.2051
  318loPI   C2B 5086  14.330   2.871   9.430 -0.0872 -0.1015  0.3574
  318loPI   C3B 5087  14.294   2.891   8.981  0.0345  0.2562  0.3265
  318loPI   C4B 5088  14.297   2.893   8.568 -0.0736  0.1885  0.1007
  319loPI    C1 5089  14.588   8.738  11.257  0.2782  0.0607 -0.0518
  319loPI    C2 5090  14.738   8.548  11.575  0.2499 -0.0887 -0.1268
  319loPI    C3 5091  14.659   8.939  11.595 -0.0944 -0.1682  0.1692
  319loPI   PO4 5092  14.771   8.602  11.041  0.0942  0.0293 -0.0063
  319loPI   GL1 5093  14.645   8.656  10.577 -0.3942  0.0791 -0.1787
  319loPI   GL2 5094  15.015   8.666  10.497 -0.1848  0.1023 -0.0371
  319loPI   C1A 5095  14.565   8.701  10.157  0.1941 -0.0969  0.1800
  319loPI   C2A 5096  14.590   8.820   9.698 -0.2192 -0.2267 -0.2609
  319loPI   C3A 5097  14.528   9.116   9.219  0.0379  0.1593  0.2257
  319loPI   C4A 5098  14.609   9.200   8.837  0.0273  0.2283 -0.2210
  319loPI   C5A 5099  14.661   9.171   8.416 -0.2556  0.3620  0.1312
  319loPI   C6A 5100  14.322   9.237   8.136  0.2652 -0.0821 -0.1992
  319loPI   C1B 5101  14.995   8.405  10.115 -0.0873  0.0227  0.0876
  319loPI   C2B 5102  15.095   8.455   9.677 -0.3044  0.1888 -0.0384
  319loPI   C3B 5103  15.088   8.470   9.252  0.2602  0.0720 -0.4319
  319loPI   C4B 5104  15.045   8.494   8.858 -0.0612 -0.1309  0.0882
  320loPI    C1 5105   4.052   0.633  10.854  0.2678 -0.0212  0.0301
  320loPI    C2 5106   4.264   0.532  11.177  0.0471 -0.0408  0.1704
  320loPI    C3 5107   4.106   0.898  11.148  0.0673 -0.0387  0.0837
  320loPI   PO4 5108   4.196   0.566  10.605 -0.0593  0.0974  0.0156
  320loPI   GL1 5109   4.066   0.430  10.234  0.3451  0.3533  0.0177
  320loPI   GL2 5110   3.811   0.477  10.101 -0.1097 -0.2810  0.0365
  320loPI   C1A 5111   4.243   0.203   9.862 -0.1969  0.0157 -0.0441
  320loPI   C2A 5112   4.333   0.267   9.445 -0.1425  0.1828  0.0604
  320loPI   C3A 5113   4.544   0.266   9.045  0.1637  0.1960  0.0603
  320loPI   C4A 5114   4.339   0.279   8.674  0.0002 -0.1306  0.1764
  320loPI   C5A 5115   3.951  -0.007   8.594  0.4129  0.0263 -0.0133
  320loPI   C6A 5116   3.619  -0.283   8.414  0.1766 -0.1715 -0.1262
  320loPI   C1B 5117   3.838   0.428   9.630  0.1361  0.0255  0.0693
  320loPI   C2B 5118   3.832   0.600   9.244  0.2041 -0.4366 -0.0462
  320loPI   C3B 5119   3.863   0.504   8.844 -0.1456  0.2468 -0.0906
  320loPI   C4B 5120   3.931   0.403   8.339 -0.0890  0.1184  0.4256
  321loPI    C1 5121  11.349  16.260  11.025  0.2564  0.1598  0.0483
  321loPI    C2 5122  11.123  16.228  11.354  0.3623 -0.3698  0.0785
  321loPI    C3 5123  11.492  16.381  11.379  0.1929  0.0471  0.1130
  321loPI   PO4 5124  11.106  16.334  10.889  0.0289 -0.1752  0.1615
  321loPI   GL1 5125  10.900  16.615  10.625  0.0812 -0.0605  0.2144
  321loPI   GL2 5126  10.629  16.576  10.745  0.3622 -0.2654 -0.3398
  321loPI   C1A 5127  10.948  16.421  10.216  0.0674 -0.1218 -0.0967
  321loPI   C2A 5128  10.926  16.309   9.695 -0.0465 -0.2248 -0.2202
  321loPI   C3A 5129  11.045  16.399   9.223 -0.0579  0.0943 -0.0391
  321loPI   C4A 5130  10.970  16.376   8.810  0.2849  0.1345  0.2024
  321loPI   C5A 5131  10.774  16.342   8.453 -0.3904  0.2551  0.0148
  321loPI   C6A 5132  10.407  16.044   8.295 -0.2384 -0.3500 -0.0732
  321loPI   C1B 5133  10.483  16.610  10.383 -0.0781 -0.1443  0.0572
  321loPI   C2B 5134  10.446  16.480   9.918 -0.0543 -0.0952  0.1906
  321loPI   C3B 5135  10.528  16.492   9.456  0.0585 -0.1277 -0.0589
  321loPI   C4B 5136  10.484  16.560   8.983 -0.2447  0.3834 -0.0307
  322loPI    C1 5137  13.171   0.077  10.943 -0.0142 -0.1649 -0.2005
  322loPI    C2 5138  13.108   0.060  11.337 -0.3208 -0.1711 -0.2478
  322loPI    C3 5139  13.458   0.192  11.196 -0.3880  0.3174  0.0196
  322loPI   PO4 5140  12.991   0.216  10.812  0.2045  0.0947  0.1177
  322loPI   GL1 5141  12.971   0.107  10.409  0.1261 -0.2133  0.0031
  322loPI   GL2 5142  12.964   0.423  10.364 -0.0287 -0.2359 -0.0201
  322loPI   C1A 5143  12.903   0.072   9.949 -0.0429  0.1483  0.0137
  322loPI   C2A 5144  13.123  -0.162   9.610 -0.0483  0.0081 -0.0789
  322loPI   C3A 5145  13.108  -0.335   9.126 -0.0383  0.0654  0.1253
  322loPI   C4A 5146  13.125  -0.315   8.780 -0.0441 -0.1692  0.0596
  322loPI   C5A 5147  12.888  -0.023   8.682 -0.0293 -0.2905 -0.0531
  322loPI   C6A 5148  13.009   0.332   8.508  0.2144  0.0245 -0.1332
  322loPI   C1B 5149  13.184   0.488   9.926 -0.1176 -0.0129 -0.1898
  322loPI   C2B 5150  13.360   0.292   9.595  0.1015 -0.2056 -0.1198
  322loPI   C3B 5151  13.579   0.057   9.349 -0.0826 -0.0268  0.1296
  322loPI   C4B 5152  13.737   0.081   9.034 -0.0648  0.2107  0.0419
  323loPI    C1 5153   0.385  11.451  11.184 -0.0171  0.1740  0.0849
  323loPI    C2 5154   0.014  11.360  11.301  0.0055 -0.0453 -0.0100
  323loPI    C3 5155   0.328  11.228  11.511  0.0299  0.1973  0.1092
  323loPI   PO4 5156   0.414  11.337  10.991 -0.1022  0.1302 -0.0211
  323loPI   GL1 5157   0.295  11.252  10.600 -0.2233 -0.0949  0.0758
  323loPI   GL2 5158   0.113  11.070  10.568 -0.3008  0.1838 -0.1245
  323loPI   C1A 5159   0.512  11.077  10.258 -0.1526 -0.0066  0.1089
  323loPI   C2A 5160   0.470  11.012   9.750 -0.1616  0.1853 -0.2214
  323loPI   C3A 5161   0.599  10.921   9.322 -0.1881 -0.1582  0.2480
  323loPI   C4A 5162   0.534  10.952   8.850  0.2162 -0.1771  0.2061
  323loPI   C5A 5163   0.273  10.838   8.586 -0.3729 -0.0807 -0.0414
  323loPI   C6A 5164   0.063  10.556   8.362  0.0977  0.2305 -0.1286
  323loPI   C1B 5165   0.076  11.138  10.073  0.1383 -0.1222  0.3342
  323loPI   C2B 5166   0.048  11.178   9.695  0.3271  0.1973  0.0261
  323loPI   C3B 5167   0.120  11.219   9.303  0.0478  0.1783 -0.2708
  323loPI   C4B 5168   0.043  11.216   8.890 -0.1095  0.1491 -0.0078
  324loPI    C1 5169   3.720   6.617  11.115 -0.0081 -0.2501 -0.1854
  324loPI    C2 5170   3.881   6.274  11.241  0.2092 -0.0685  0.0405
  324loPI    C3 5171   3.586   6.446  11.450  0.1018 -0.1155 -0.0714
  324loPI   PO4 5172   3.848   6.764  11.062 -0.2859 -0.1513  0.2152
  324loPI   GL1 5173   3.945   6.961  10.709  0.0167 -0.1566  0.0621
  324loPI   GL2 5174   3.621   7.149  10.605 -0.0522  0.3119 -0.1368
  324loPI   C1A 5175   4.091   6.978  10.299 -0.1985 -0.2299  0.0176
  324loPI   C2A 5176   4.109   6.943   9.926  0.0310  0.0462  0.2645
  324loPI   C3A 5177   4.144   6.873   9.497  0.2086  0.1247 -0.3893
  324loPI   C4A 5178   4.098   6.806   9.077  0.2128  0.0787 -0.0616
  324loPI   C5A 5179   4.035   6.898   8.587 -0.0572 -0.1249  0.0665
  324loPI   C6A 5180   3.978   7.249   8.320 -0.0890  0.0756 -0.1523
  324loPI   C1B 5181   3.602   7.157  10.161 -0.3264  0.0016  0.1427
  324loPI   C2B 5182   3.665   7.108   9.751 -0.2603 -0.2209 -0.1625
  324loPI   C3B 5183   3.782   7.153   9.304  0.0010  0.0991  0.0022
  324loPI   C4B 5184   4.069   7.292   9.036 -0.1205  0.1078 -0.2258
  325loPI    C1 5185  13.098   3.591  10.901 -0.0978 -0.0408  0.0298
  325loPI    C2 5186  13.212   3.920  11.098 -0.0319 -0.0310 -0.0247
  325loPI    C3 5187  13.438   3.590  11.112 -0.0728 -0.0584 -0.0105
  325loPI   PO4 5188  13.104   3.639  10.612  0.0605  0.2388  0.0374
  325loPI   GL1 5189  13.002   3.700  10.110  0.1226  0.1255  0.0908
  325loPI   GL2 5190  13.385   3.803  10.237 -0.0086 -0.2408  0.1029
  325loPI   C1A 5191  13.009   3.494   9.747 -0.0853 -0.0047 -0.1701
  325loPI   C2A 5192  12.924   3.463   9.309  0.0927  0.0944 -0.0386
  325loPI   C3A 5193  12.971   3.514   8.923  0.1295  0.1192 -0.4552
  325loPI   C4A 5194  12.926   3.517   8.459 -0.0206 -0.0779  0.0399
  325loPI   C5A 5195  13.113   3.276   8.143 -0.3319 -0.4518  0.1753
  325loPI   C6A 5196  13.421   3.128   7.927 -0.0426  0.0309  0.2468
  325loPI   C1B 5197  13.483   3.796   9.882  0.0265 -0.1384  0.0344
  325loPI   C2B 5198  13.392   3.808   9.485 -0.0679  0.3617  0.2056
  325loPI   C3B 5199  13.314   3.810   9.009  0.2392 -0.1743  0.0277
  325loPI   C4B 5200  13.425   3.944   8.591  0.4522 -0.1914  0.2447
  326loPI    C1 5201   2.442  13.884  10.774  0.1292  0.3213  0.1257
  326loPI    C2 5202   2.247  13.857  11.122  0.2095  0.0271  0.1509
  326loPI    C3 5203   2.435  13.537  10.974 -0.1091  0.0523 -0.3327
  326loPI   PO4 5204   2.384  13.956  10.650  0.0113 -0.2553 -0.3773
  326loPI   GL1 5205   2.520  14.188  10.243  0.1216  0.1148  0.0440
  326loPI   GL2 5206   2.152  14.251  10.319  0.0500  0.4093 -0.1097
  326loPI   C1A 5207   2.492  14.080   9.798 -0.0205 -0.0610 -0.0666
  326loPI   C2A 5208   2.523  14.067   9.326  0.0274 -0.2642 -0.0565
  326loPI   C3A 5209   2.571  14.082   8.900  0.1229  0.0851 -0.0098
  326loPI   C4A 5210   2.799  14.007   8.479  0.0662 -0.3621 -0.2722
  326loPI   C5A 5211   2.882  14.012   8.077  0.3674  0.0977 -0.2134
  326loPI   C6A 5212   3.124  14.073   7.868  0.1075 -0.1228 -0.1025
  326loPI   C1B 5213   1.960  14.279   9.902 -0.1884 -0.1236  0.2521
  326loPI   C2B 5214   2.040  14.204   9.434  0.3662 -0.0199 -0.0224
  326loPI   C3B 5215   2.106  14.279   8.972 -0.0244  0.0473  0.0285
  326loPI   C4B 5216   2.070  14.250   8.622  0.3659 -0.1971  0.2995
  327loPI    C1 5217   6.004  15.832  11.251 -0.0998 -0.0839 -0.1723
  327loPI    C2 5218   6.311  15.578  11.289 -0.1904 -0.1582  0.0880
  327loPI    C3 5219   6.329  15.939  11.459 -0.2055 -0.1233  0.0156
  327loPI   PO4 5220   5.964  15.766  10.950 -0.1960 -0.0332  0.0583
  327loPI   GL1 5221   5.837  15.589  10.654  0.2305  0.2649  0.0979
  327loPI   GL2 5222   6.207  15.639  10.491 -0.0561  0.2116  0.0220
  327loPI   C1A 5223   5.826  15.544  10.163  0.0952  0.1181 -0.0945
  327loPI   C2A 5224   5.930  15.521   9.703  0.1640  0.1524 -0.0191
  327loPI   C3A 5225   5.933  15.309   9.288  0.0364  0.0123  0.2032
  327loPI   C4A 5226   5.978  15.242   8.885  0.1083  0.2719 -0.2458
  327loPI   C5A 5227   6.218  14.971   8.706 -0.1603 -0.1153 -0.0397
  327loPI   C6A 5228   6.417  14.638   8.789  0.2226 -0.0658  0.1277
  327loPI   C1B 5229   6.340  15.798  10.195 -0.0252  0.0826  0.1126
  327loPI   C2B 5230   6.364  15.760   9.801  0.0275 -0.2546  0.1432
  327loPI   C3B 5231   6.381  15.866   9.376  0.0881 -0.5796  0.1427
  327loPI   C4B 5232   6.536  15.922   8.980 -0.3153  0.2625 -0.2586
  328loPI    C1 5233   5.093  13.045  11.308 -0.0994 -0.1613  0.0376
  328loPI    C2 5234   5.196  12.894  11.663 -0.4531 -0.3210  0.0766
  328loPI    C3 5235   5.021  13.253  11.642 -0.1461 -0.1708  0.0336
  328loPI   PO4 5236   5.027  12.820  11.165  0.0967 -0.0624  0.0063
  328loPI   GL1 5237   5.125  12.776  10.801 -0.2272  0.3842 -0.0152
  328loPI   GL2 5238   4.768  12.816  10.703 -0.0042  0.2424 -0.0791
  328loPI   C1A 5239   5.038  12.555  10.341 -0.1676  0.1087 -0.0091
  328loPI   C2A 5240   4.996  12.491   9.829  0.0056 -0.1874  0.1845
  328loPI   C3A 5241   4.943  12.448   9.436  0.3322 -0.0706  0.0957
  328loPI   C4A 5242   4.999  12.429   9.007 -0.2409  0.3174  0.2611
  328loPI   C5A 5243   4.737  12.371   8.633 -0.2088  0.0301  0.0370
  328loPI   C6A 5244   4.553  12.125   8.369  0.0128  0.3591 -0.1477
  328loPI   C1B 5245   4.583  12.717  10.371 -0.3218 -0.2372  0.1506
  328loPI   C2B 5246   4.577  12.740  10.008  0.1995 -0.0850 -0.1510
  328loPI   C3B 5247   4.515  12.711   9.531 -0.0616 -0.1939  0.0872
  328loPI   C4B 5248   4.514  12.690   9.148 -0.1745  0.0673 -0.0880
  329loPI    C1 5249   2.604   1.444  10.810  0.2205 -0.1393 -0.3677
  329loPI    C2 5250   2.950   1.398  11.005  0.0463  0.1218  0.0158
  329loPI    C3 5251   2.649   1.595  11.177 -0.2541  0.0071 -0.3642
  329loPI   PO4 5252   2.705   1.390  10.591 -0.0400 -0.1047  0.1805
  329loPI   GL1 5253   2.909   1.247  10.274 -0.4043  0.2104 -0.1645
  329loPI   GL2 5254   2.730   1.450  10.117 -0.4776 -0.1490 -0.0289
  329loPI   C1A 5255   2.897   0.896   9.990  0.3158  0.1585 -0.0045
  329loPI   C2A 5256   2.914   0.909   9.632 -0.1522  0.0311 -0.0578
  329loPI   C3A 5257   2.874   0.942   9.185  0.0601  0.1466  0.2724
  329loPI   C4A 5258   2.959   0.907   8.753 -0.0636 -0.3405 -0.1080
  329loPI   C5A 5259   2.860   0.783   8.313  0.1166 -0.1803  0.0559
  329loPI   C6A 5260   2.787   0.607   7.897 -0.3390  0.2162  0.0046
  329loPI   C1B 5261   2.822   1.460   9.698 -0.2751  0.0309 -0.0446
  329loPI   C2B 5262   2.890   1.485   9.283 -0.2474  0.0561  0.2343
  329loPI   C3B 5263   2.875   1.385   8.939  0.0204 -0.1920 -0.2749
  329loPI   C4B 5264   3.012   1.326   8.511 -0.1455 -0.2674 -0.3272
  330loPI    C1 5265   2.710  13.843  11.277  0.0100 -0.2208 -0.0505
  330loPI    C2 5266   2.708  14.146  11.537  0.1585 -0.0030 -0.2986
  330loPI    C3 5267   2.906  13.810  11.624 -0.0349 -0.0452 -0.0076
  330loPI   PO4 5268   2.839  14.004  11.069 -0.1258  0.0418 -0.2713
  330loPI   GL1 5269   2.902  14.128  10.646 -0.0746 -0.0115  0.0750
  330loPI   GL2 5270   2.917  14.381  10.478 -0.0972 -0.1632  0.2308
  330loPI   C1A 5271   2.958  13.903  10.229 -0.1694  0.1405 -0.0004
  330loPI   C2A 5272   3.039  13.874   9.743  0.0216 -0.2525  0.0440
  330loPI   C3A 5273   3.061  13.841   9.240  0.1139 -0.2745  0.1481
  330loPI   C4A 5274   3.095  13.741   8.818  0.0872  0.0899 -0.1105
  330loPI   C5A 5275   3.385  13.523   8.564 -0.2942 -0.5009 -0.1252
  330loPI   C6A 5276   3.318  13.121   8.427 -0.2606  0.1030  0.1604
  330loPI   C1B 5277   2.971  14.387   9.984  0.1247 -0.0505  0.2173
  330loPI   C2B 5278   2.905  14.302   9.537 -0.0879 -0.0365 -0.3672
  330loPI   C3B 5279   2.945  14.345   9.075 -0.0975 -0.1189 -0.1631
  330loPI   C4B 5280   3.029  14.389   8.656  0.2762  0.0982  0.1291
  331loPI    C1 5281   1.001   8.940  11.459  0.0739 -0.0941 -0.0602
  331loPI    C2 5282   0.895   9.079  11.819  0.1005 -0.0156 -0.0823
  331loPI    C3 5283   0.678   8.793  11.642  0.0764 -0.0405 -0.0125
  331loPI   PO4 5284   0.983   9.192  11.292 -0.1756 -0.1526  0.0866
  331loPI   GL1 5285   1.073   9.253  10.774  0.1799 -0.0098  0.1782
  331loPI   GL2 5286   1.078   8.935  10.791  0.0632 -0.1268 -0.2416
  331loPI   C1A 5287   1.173   9.260  10.312  0.1383 -0.3335  0.1841
  331loPI   C2A 5288   1.224   9.211   9.809  0.0212 -0.1466 -0.1190
  331loPI   C3A 5289   1.117   9.229   9.324 -0.2563  0.0964 -0.1166
  331loPI   C4A 5290   1.102   9.253   8.887  0.0106 -0.1469 -0.1594
  331loPI   C5A 5291   0.768   9.147   8.660 -0.0549  0.0720  0.1106
  331loPI   C6A 5292   0.493   8.798   8.496  0.0791  0.0246 -0.3207
  331loPI   C1B 5293   0.921   8.818  10.404  0.0502 -0.1145 -0.0473
  331loPI   C2B 5294   0.802   8.896  10.026  0.0918 -0.0556 -0.1426
  331loPI   C3B 5295   0.784   8.902   9.608 -0.1112  0.1981 -0.0848
  331loPI   C4B 5296   0.765   8.939   9.137 -0.1164  0.1347 -0.0322
  332loPI    C1 5297  17.418   6.127  11.395 -0.0870 -0.0294  0.0574
  332loPI    C2 5298  17.025   6.068  11.350 -0.0563 -0.0932 -0.1366
  332loPI    C3 5299  17.241   5.815  11.572 -0.1028 -0.1303 -0.1332
  332loPI   PO4 5300  17.515   6.162  11.136 -0.1735  0.1387  0.2828
  332loPI   GL1 5301  17.469   6.346  10.591  0.1136 -0.1400 -0.2277
  332loPI   GL2 5302  17.593   6.011  10.455 -0.0974 -0.3124 -0.1905
  332loPI   C1A 5303  17.477   6.425  10.143 -0.1663  0.0307 -0.0840
  332loPI   C2A 5304  17.507   6.358   9.582  0.2270 -0.4014 -0.2208
  332loPI   C3A 5305  17.516   6.435   9.188  0.1388 -0.2475  0.1147
  332loPI   C4A 5306  17.616   6.449   8.761  0.2964  0.0468  0.3948
  332loPI   C5A 5307  17.582   6.534   8.314 -0.1120 -0.0279  0.0816
  332loPI   C6A 5308  17.856   6.449   7.907  0.1228 -0.0676 -0.4282
  332loPI   C1B 5309  17.626   5.883  10.097 -0.1005  0.0782  0.0994
  332loPI   C2B 5310  17.566   5.870   9.689  0.1168 -0.0050 -0.1791
  332loPI   C3B 5311  17.635   5.889   9.203  0.2013  0.3505  0.1637
  332loPI   C4B 5312  17.684   5.896   8.782 -0.0704 -0.2115  0.1490
  333loPI    C1 5313  15.874   6.076  10.709  0.2839  0.0049  0.0991
  333loPI    C2 5314  16.207   6.208  10.886  0.2409 -0.1061  0.2661
  333loPI    C3 5315  15.995   5.915  11.055 -0.0913  0.1502  0.3043
  333loPI   PO4 5316  15.777   6.260  10.631  0.0522  0.0630 -0.2523
  333loPI   GL1 5317  15.397   6.292  10.317  0.1496 -0.0480 -0.1857
  333loPI   GL2 5318  15.696   6.194  10.170  0.0272  0.3046  0.0019
  333loPI   C1A 5319  15.256   6.348   9.879 -0.3126 -0.0822 -0.0490
  333loPI   C2A 5320  15.316   6.401   9.492  0.3854 -0.0325  0.4316
  333loPI   C3A 5321  15.273   6.361   9.061 -0.1060 -0.0466  0.1617
  333loPI   C4A 5322  15.428   6.509   8.679 -0.0037 -0.0223  0.1261
  333loPI   C5A 5323  15.236   6.659   8.375 -0.0894 -0.0069  0.1734
  333loPI   C6A 5324  14.682   6.532   8.193 -0.2205  0.0856 -0.3939
  333loPI   C1B 5325  15.725   6.123   9.717 -0.0043  0.3264  0.2558
  333loPI   C2B 5326  15.714   6.123   9.213 -0.0359  0.0199  0.4714
  333loPI   C3B 5327  15.851   6.186   8.794 -0.2359 -0.3150  0.2112
  333loPI   C4B 5328  16.055   6.210   8.399  0.0386  0.0729  0.3307
  334loPI    C1 5329  16.680   6.910  11.155  0.1449  0.1246  0.0596
  334loPI    C2 5330  16.372   7.087  10.970 -0.0067  0.0439  0.2313
  334loPI    C3 5331  16.487   7.212  11.332  0.2887  0.2014  0.0867
  334loPI   PO4 5332  16.870   6.867  10.983 -0.1957  0.1307  0.2867
  334loPI   GL1 5333  17.008   6.831  10.514 -0.2119 -0.0184 -0.1108
  334loPI   GL2 5334  16.699   7.069  10.570 -0.0216  0.0561 -0.0752
  334loPI   C1A 5335  17.126   6.748  10.097 -0.0864  0.0776  0.0361
  334loPI   C2A 5336  17.082   6.606   9.673  0.0997 -0.0030  0.0694
  334loPI   C3A 5337  17.010   6.487   9.307  0.0526 -0.0916 -0.1559
  334loPI   C4A 5338  17.156   6.609   8.936  0.1019 -0.1189  0.1315
  334loPI   C5A 5339  17.132   6.714   8.574  0.1313 -0.2106 -0.3577
  334loPI   C6A 5340  16.796   6.982   8.366 -0.1331 -0.0061 -0.1188
  334loPI   C1B 5341  16.609   7.242  10.178  0.1383  0.3059  0.1562
  334loPI   C2B 5342  16.488   7.302   9.813 -0.3888 -0.2220  0.2240
  334loPI   C3B 5343  16.546   7.408   9.440  0.0359 -0.1659 -0.0976
  334loPI   C4B 5344  16.660   7.330   9.042 -0.2285  0.0614 -0.0706
  335loPI    C1 5345   1.584   3.928  11.117  0.1000 -0.1025  0.1201
  335loPI    C2 5346   1.680   3.979  11.502  0.0873 -0.0586  0.1174
  335loPI    C3 5347   1.644   3.610  11.352 -0.0586 -0.0770  0.1964
  335loPI   PO4 5348   1.486   4.100  11.028  0.1730  0.1352 -0.0820
  335loPI   GL1 5349   1.436   4.034  10.603  0.0467  0.2180 -0.1329
  335loPI   GL2 5350   1.798   4.009  10.396  0.1703  0.1006 -0.3645
  335loPI   C1A 5351   1.321   4.288  10.204  0.2135  0.1409  0.3799
  335loPI   C2A 5352   1.309   4.240   9.781  0.0870 -0.0609 -0.0039
  335loPI   C3A 5353   1.212   4.245   9.367  0.4254 -0.2471 -0.1556
  335loPI   C4A 5354   1.328   4.136   9.050 -0.1007  0.1059 -0.0006
  335loPI   C5A 5355   1.466   4.007   8.665 -0.0856  0.0821 -0.3828
  335loPI   C6A 5356   1.852   3.952   8.465 -0.0728  0.0310  0.2427
  335loPI   C1B 5357   1.750   4.009   9.940 -0.0558  0.0985 -0.4313
  335loPI   C2B 5358   1.770   4.007   9.481  0.2549 -0.1102 -0.1113
  335loPI   C3B 5359   1.744   3.850   9.025 -0.0084  0.1411 -0.1839
  335loPI   C4B 5360   1.782   3.382   9.029  0.1871 -0.0757  0.2005
  336loPI    C1 5361   8.782   2.933  10.954 -0.1139  0.0175  0.0514
  336loPI    C2 5362   8.936   3.174  11.234  0.0395  0.0305 -0.0426
  336loPI    C3 5363   8.834   2.798  11.327  0.1111  0.0278  0.0252
  336loPI   PO4 5364   8.621   3.189  10.814 -0.0854 -0.2504 -0.2339
  336loPI   GL1 5365   8.639   3.290  10.451 -0.2428 -0.1359  0.1106
  336loPI   GL2 5366   8.925   3.092  10.438 -0.1622 -0.1356  0.0416
  336loPI   C1A 5367   8.519   3.446  10.158 -0.0125 -0.2813 -0.2009
  336loPI   C2A 5368   8.456   3.334   9.707  0.0303  0.1517 -0.2063
  336loPI   C3A 5369   8.427   3.369   9.316 -0.0788 -0.2105  0.0800
  336loPI   C4A 5370   8.501   3.402   8.869 -0.1261 -0.0860 -0.0020
  336loPI   C5A 5371   8.494   3.325   8.424 -0.2371 -0.4142  0.2615
  336loPI   C6A 5372   8.788   3.378   8.048 -0.2918 -0.0856 -0.0242
  336loPI   C1B 5373   9.010   3.166  10.017  0.1496  0.0606  0.1045
  336loPI   C2B 5374   8.944   3.165   9.528  0.0383 -0.1396 -0.0277
  336loPI   C3B 5375   8.869   3.212   9.128  0.4343 -0.1283  0.2292
  336loPI   C4B 5376   8.907   3.104   8.587 -0.1367  0.2864 -0.0618
  337loPI    C1 5377   3.369   8.650  11.230  0.1007  0.1260 -0.1466
  337loPI    C2 5378   3.305   8.442  11.565  0.0967  0.0571 -0.1900
  337loPI    C3 5379   3.297   8.842  11.573 -0.1454  0.0530 -0.1559
  337loPI   PO4 5380   3.532   8.590  11.127  0.0468 -0.0312  0.1470
  337loPI   GL1 5381   3.580   8.332  10.842  0.1391 -0.2680  0.0294
  337loPI   GL2 5382   3.856   8.119  10.795  0.1306 -0.1388 -0.5132
  337loPI   C1A 5383   3.428   8.675  10.508  0.1329 -0.0860 -0.1940
  337loPI   C2A 5384   3.422   8.760  10.127  0.0480  0.2674  0.0873
  337loPI   C3A 5385   3.503   8.787   9.659 -0.0088 -0.0284 -0.0543
  337loPI   C4A 5386   3.545   8.694   9.308 -0.0507  0.1084  0.1876
  337loPI   C5A 5387   3.471   8.688   8.832 -0.0551  0.0799 -0.0729
  337loPI   C6A 5388   3.083   8.661   8.497 -0.2938  0.0347  0.3357
  337loPI   C1B 5389   4.017   7.946  10.372 -0.1074 -0.1290 -0.0067
  337loPI   C2B 5390   3.961   7.951   9.937 -0.0300  0.1641 -0.2696
  337loPI   C3B 5391   3.909   8.000   9.537 -0.2815  0.4183 -0.3763
  337loPI   C4B 5392   4.136   7.999   9.176 -0.1146 -0.0260  0.0711
  338loPI    C1 5393  17.039  16.806  11.601  0.1002  0.0595  0.0349
  338loPI    C2 5394  16.747  16.776  11.873 -0.1617  0.0661 -0.2399
  338loPI    C3 5395  17.079  16.555  11.910 -0.1822  0.0861  0.0956
  338loPI   PO4 5396  16.929  16.968  11.419  0.0026  0.0979 -0.0833
  338loPI   GL1 5397  17.091  17.044  11.001  0.2091  0.2503 -0.0929
  338loPI   GL2 5398  17.039  17.391  10.751  0.0428  0.2567  0.1547
  338loPI   C1A 5399  17.084  16.906  10.553  0.1297  0.1394 -0.1612
  338loPI   C2A 5400  16.827  16.961  10.083 -0.1374  0.1761  0.3740
  338loPI   C3A 5401  16.928  17.016   9.593  0.0242 -0.0167 -0.2788
  338loPI   C4A 5402  16.894  17.010   9.191  0.2505 -0.1273 -0.2435
  338loPI   C5A 5403  17.049  16.987   8.856  0.3341 -0.0264 -0.0698
  338loPI   C6A 5404  16.919  17.314   8.485  0.3321 -0.0464  0.0975
  338loPI   C1B 5405  16.787  17.495  10.245  0.1679  0.1054 -0.0676
  338loPI   C2B 5406  16.831  17.594   9.852  0.3649 -0.0872  0.2147
  338loPI   C3B 5407  16.905  17.637   9.379  0.3004 -0.3831 -0.2318
  338loPI   C4B 5408  16.896  17.601   8.885  0.3801 -0.1932  0.2258
  339loPI    C1 5409   2.473   0.643  11.049 -0.2866 -0.2671 -0.0825
  339loPI    C2 5410   2.388   0.275  11.179 -0.3214 -0.1532  0.2257
  339loPI    C3 5411   2.284   0.593  11.398 -0.0717  0.0310  0.0816
  339loPI   PO4 5412   2.381   0.589  10.729  0.1723 -0.1494 -0.2705
  339loPI   GL1 5413   2.625   0.668  10.346 -0.1331 -0.2536  0.0369
  339loPI   GL2 5414   2.888   0.491  10.260 -0.0534 -0.4206  0.2681
  339loPI   C1A 5415   2.473   0.594  10.007  0.2712  0.2622  0.1624
  339loPI   C2A 5416   2.535   0.592   9.542 -0.0932  0.2073 -0.1021
  339loPI   C3A 5417   2.505   0.543   9.092  0.1964 -0.1588  0.3073
  339loPI   C4A 5418   2.546   0.653   8.683 -0.1668  0.1179 -0.1920
  339loPI   C5A 5419   2.478   0.435   8.277  0.1800 -0.0889  0.0441
  339loPI   C6A 5420   2.712   0.084   8.156 -0.4068 -0.1468  0.0938
  339loPI   C1B 5421   2.896   0.358   9.792 -0.0276  0.1580 -0.0118
  339loPI   C2B 5422   3.028   0.321   9.359 -0.0282  0.1125  0.0156
  339loPI   C3B 5423   3.034   0.315   8.944  0.0429  0.1886  0.1850
  339loPI   C4B 5424   3.024   0.385   8.536 -0.0764  0.1573  0.1045
  340loPI    C1 5425   8.378  13.390  11.207 -0.0673 -0.1465 -0.0023
  340loPI    C2 5426   8.131  13.703  11.235  0.1835  0.0813 -0.2728
  340loPI    C3 5427   8.375  13.613  11.539 -0.2019 -0.1262 -0.0167
  340loPI   PO4 5428   8.350  13.352  10.944 -0.0595  0.0743 -0.1671
  340loPI   GL1 5429   8.442  13.428  10.525 -0.0206 -0.1265  0.0667
  340loPI   GL2 5430   8.131  13.499  10.409  0.0672  0.4065  0.0842
  340loPI   C1A 5431   8.576  13.368  10.109  0.0557  0.0595  0.2881
  340loPI   C2A 5432   8.509  13.434   9.676  0.0107  0.1725 -0.0309
  340loPI   C3A 5433   8.544  13.543   9.273 -0.0306  0.0090 -0.1584
  340loPI   C4A 5434   8.409  13.524   8.866  0.0153 -0.0486 -0.2199
  340loPI   C5A 5435   8.237  13.505   8.537 -0.1535  0.0422 -0.1688
  340loPI   C6A 5436   7.807  13.376   8.540 -0.0594 -0.0768  0.1261
  340loPI   C1B 5437   8.062  13.488  10.047  0.0792  0.0260 -0.4139
  340loPI   C2B 5438   8.007  13.561   9.645 -0.0440 -0.0904  0.0218
  340loPI   C3B 5439   7.994  13.544   9.155 -0.3113 -0.2373  0.0785
  340loPI   C4B 5440   8.030  13.809   8.897  0.3198  0.0277  0.1893
  341loPI    C1 5441  14.348   6.889  11.032 -0.1560 -0.0657 -0.0966
  341loPI    C2 5442  13.998   7.024  11.171  0.0763  0.2803  0.1695
  341loPI    C3 5443  14.331   7.239  11.225  0.3482 -0.0870 -0.0000
  341loPI   PO4 5444  14.387   6.829  10.878 -0.0086 -0.0707  0.0180
  341loPI   GL1 5445  14.452   6.873  10.479 -0.0126 -0.0149 -0.2611
  341loPI   GL2 5446  14.742   7.049  10.380  0.0230 -0.0689  0.1918
  341loPI   C1A 5447  14.296   6.718   9.993  0.3314 -0.2369 -0.2093
  341loPI   C2A 5448  14.398   6.782   9.599  0.1468 -0.1593  0.0246
  341loPI   C3A 5449  14.355   6.876   9.233  0.1977  0.1398 -0.1185
  341loPI   C4A 5450  14.368   6.780   8.782 -0.1108  0.1896  0.1328
  341loPI   C5A 5451  14.434   6.942   8.357 -0.0370  0.2101 -0.1282
  341loPI   C6A 5452  14.650   7.065   8.005 -0.1184 -0.0294 -0.2712
  341loPI   C1B 5453  14.727   7.101   9.890 -0.0995 -0.0260  0.1123
  341loPI   C2B 5454  14.789   7.067   9.524  0.1369 -0.0230 -0.1497
  341loPI   C3B 5455  14.799   7.153   9.028  0.0827  0.2721 -0.0178
  341loPI   C4B 5456  14.741   7.552   8.721 -0.5180  0.0582  0.1811
  342loPI    C1 5457   5.773   2.957  11.198  0.0465  0.0270  0.1702
  342loPI    C2 5458   5.507   3.253  11.165  0.1530  0.1131  0.0767
  342loPI    C3 5459   5.897   3.330  11.123  0.1711 -0.0647 -0.0926
  342loPI   PO4 5460   5.700   2.819  11.071  0.1334 -0.0000  0.1833
  342loPI   GL1 5461   5.420   2.936  10.803 -0.0153 -0.0831 -0.0475
  342loPI   GL2 5462   5.630   3.088  10.638  0.3510  0.0106 -0.0933
  342loPI   C1A 5463   5.428   2.721  10.442  0.1224  0.0701 -0.1757
  342loPI   C2A 5464   5.444   2.784  10.021  0.0255  0.1661  0.1619
  342loPI   C3A 5465   5.379   2.821   9.580  0.1430 -0.0258  0.0290
  342loPI   C4A 5466   5.493   2.800   9.117 -0.2588  0.0495 -0.0223
  342loPI   C5A 5467   5.567   2.732   8.706 -0.0355  0.2126 -0.0525
  342loPI   C6A 5468   5.763   2.428   8.463  0.0674 -0.3290 -0.1176
  342loPI   C1B 5469   5.870   3.164  10.347 -0.1799 -0.0473 -0.3917
  342loPI   C2B 5470   5.906   3.023   9.932  0.0247 -0.1013 -0.4305
  342loPI   C3B 5471   5.809   3.034   9.548 -0.0843 -0.1227  0.1174
  342loPI   C4B 5472   5.935   3.089   9.164  0.0842  0.0132 -0.2852
  343loPI    C1 5473   5.888   9.043  11.209 -0.1037  0.0284 -0.1651
  343loPI    C2 5474   5.556   8.822  11.188  0.0572 -0.2075 -0.2759
  343loPI    C3 5475   5.532   9.211  11.278 -0.2374 -0.2468 -0.1722
  343loPI   PO4 5476   6.042   8.968  11.083 -0.3312 -0.2953  0.2541
  343loPI   GL1 5477   6.166   8.898  10.640  0.0566  0.2704  0.0424
  343loPI   GL2 5478   5.941   8.686  10.692  0.0961  0.1485 -0.1665
  343loPI   C1A 5479   6.123   8.993  10.129 -0.1176  0.1253 -0.0530
  343loPI   C2A 5480   6.062   9.105   9.829  0.0981 -0.5187  0.0983
  343loPI   C3A 5481   5.817   9.276   9.472  0.1065  0.1613  0.0807
  343loPI   C4A 5482   5.654   9.157   9.097 -0.3265  0.0831  0.0409
  343loPI   C5A 5483   5.757   9.228   8.683  0.0229  0.0664  0.2081
  343loPI   C6A 5484   5.751   8.761   8.513 -0.1132  0.0382 -0.0844
  343loPI   C1B 5485   5.789   8.703  10.332 -0.0876 -0.1506  0.3174
  343loPI   C2B 5486   5.658   8.643   9.921  0.0513  0.2192  0.2996
  343loPI   C3B 5487   5.793   8.750   9.545 -0.0039 -0.2645  0.0588
  343loPI   C4B 5488   5.787   8.595   9.125  0.1938 -0.0522 -0.2087
  344loPI    C1 5489  12.062  11.516  11.251  0.3379 -0.3717 -0.1895
  344loPI    C2 5490  12.201  11.307  11.563 -0.0370 -0.0107  0.2325
  344loPI    C3 5491  11.828  11.247  11.432  0.0832 -0.0847 -0.0857
  344loPI   PO4 5492  12.134  11.506  11.014  0.2278  0.0290  0.3184
  344loPI   GL1 5493  12.219  11.293  10.532  0.0475  0.0591 -0.2156
  344loPI   GL2 5494  12.438  11.140  10.508 -0.1226 -0.1769 -0.1934
  344loPI   C1A 5495  12.117  11.492  10.141  0.1506  0.4275  0.0649
  344loPI   C2A 5496  12.082  11.538   9.643 -0.0077 -0.1116  0.0919
  344loPI   C3A 5497  12.066  11.716   9.198 -0.3312  0.1187 -0.3757
  344loPI   C4A 5498  11.887  11.725   8.788 -0.2930 -0.0843  0.0578
  344loPI   C5A 5499  11.739  11.977   8.486 -0.2153 -0.0027 -0.1353
  344loPI   C6A 5500  11.743  12.224   8.157 -0.0453 -0.0772  0.0327
  344loPI   C1B 5501  12.638  11.321  10.189  0.2073 -0.1246  0.4233
  344loPI   C2B 5502  12.581  11.437   9.739  0.4209 -0.2053  0.0069
  344loPI   C3B 5503  12.408  11.348   9.304 -0.5444  0.1227 -0.2719
  344loPI   C4B 5504  12.323  11.467   8.864 -0.1133 -0.2286 -0.3124
  345loPI    C1 5505  17.199  11.998  11.074 -0.1660  0.0121 -0.0856
  345loPI    C2 5506  16.982  11.712  10.898 -0.0581 -0.1985  0.1181
  345loPI    C3 5507  17.342  11.625  11.049  0.1870  0.1530 -0.2435
  345loPI   PO4 5508  17.106  12.279  10.996  0.0429  0.0065 -0.0032
  345loPI   GL1 5509  16.865  12.151  10.673 -0.0388  0.2642 -0.1125
  345loPI   GL2 5510  16.591  12.339  10.665  0.1592 -0.0721  0.1235
  345loPI   C1A 5511  16.908  12.078  10.194  0.2861 -0.3989  0.1651
  345loPI   C2A 5512  16.993  12.074   9.782 -0.2101 -0.2152  0.0060
  345loPI   C3A 5513  16.999  12.072   9.353 -0.0488 -0.0003  0.1979
  345loPI   C4A 5514  16.944  12.114   8.865 -0.0340  0.0917  0.0194
  345loPI   C5A 5515  17.025  12.125   8.446 -0.0762 -0.0005  0.1108
  345loPI   C6A 5516  16.913  12.281   8.015 -0.0429 -0.1317  0.0194
  345loPI   C1B 5517  16.429  12.276  10.248 -0.2570  0.1336  0.1014
  345loPI   C2B 5518  16.568  12.268   9.780  0.2778 -0.0856 -0.0054
  345loPI   C3B 5519  16.443  12.272   9.392  0.2843  0.1353  0.0633
  345loPI   C4B 5520  16.434  12.328   8.945 -0.0730 -0.1497  0.2959
  346loPI    C1 5521  14.253   4.382  11.078 -0.1647  0.2262 -0.1549
  346loPI    C2 5522  14.504   4.429  11.387  0.0249 -0.4097 -0.1990
  346loPI    C3 5523  14.120   4.339  11.453 -0.0824  0.0662 -0.1431
  346loPI   PO4 5524  14.365   4.228  10.922 -0.1530 -0.1267  0.1374
  346loPI   GL1 5525  14.429   4.006  10.594 -0.1257 -0.0238 -0.1598
  346loPI   GL2 5526  14.734   4.053  10.566 -0.0858  0.0332 -0.1804
  346loPI   C1A 5527  14.257   3.881  10.244  0.3037 -0.0593 -0.1018
  346loPI   C2A 5528  14.271   3.825   9.833  0.0278  0.5312 -0.2371
  346loPI   C3A 5529  14.258   3.938   9.391 -0.4502  0.0098  0.2948
  346loPI   C4A 5530  14.165   4.013   8.998 -0.1034  0.0528  0.0728
  346loPI   C5A 5531  14.237   4.038   8.572  0.2609 -0.0227  0.1077
  346loPI   C6A 5532  14.532   4.324   8.311  0.0478  0.1986  0.0975
  346loPI   C1B 5533  14.688   4.114  10.145 -0.0716  0.1512 -0.1388
  346loPI   C2B 5534  14.667   4.203   9.733  0.1443 -0.0668  0.2762
  346loPI   C3B 5535  14.639   4.268   9.269  0.0481 -0.2981  0.1257
  346loPI   C4B 5536  14.569   4.287   8.840 -0.0258  0.1615 -0.1078
  347loPI    C1 5537   9.342   2.945  10.950 -0.4300  0.1401 -0.0945
  347loPI    C2 5538   9.213   2.601  11.108  0.0225  0.0169  0.0219
  347loPI    C3 5539   9.320   2.903  11.347 -0.0314  0.1110 -0.0717
  347loPI   PO4 5540   9.408   2.882  10.772 -0.0982  0.3733  0.0726
  347loPI   GL1 5541   9.549   2.697  10.421 -0.2683  0.0586  0.2284
  347loPI   GL2 5542   9.669   2.458  10.364 -0.2467 -0.0782  0.1879
  347loPI   C1A 5543   9.463   2.921  10.127  0.3665 -0.2293 -0.0513
  347loPI   C2A 5544   9.372   2.972   9.710  0.0317  0.2809 -0.0739
  347loPI   C3A 5545   9.366   3.004   9.275 -0.0588 -0.1197  0.0188
  347loPI   C4A 5546   9.512   2.991   8.820 -0.0370  0.1526 -0.1135
  347loPI   C5A 5547   9.277   2.768   8.502 -0.1542  0.1195  0.0240
  347loPI   C6A 5548   9.312   2.307   8.287  0.1482 -0.2170 -0.2178
  347loPI   C1B 5549   9.483   2.433   9.977 -0.0518 -0.1045 -0.0834
  347loPI   C2B 5550   9.486   2.485   9.507 -0.1310 -0.1400  0.0020
  347loPI   C3B 5551   9.526   2.576   9.123 -0.0882  0.1469  0.3492
  347loPI   C4B 5552   9.496   2.473   8.796  0.0959  0.0027  0.3355
  348loPI    C1 5553   8.266   9.474  10.910 -0.0876 -0.0670  0.0110
  348loPI    C2 5554   8.648   9.522  11.019 -0.1182  0.0309  0.0760
  348loPI    C3 5555   8.362   9.496  11.297 -0.1671  0.0279  0.0257
  348loPI   PO4 5556   8.359   9.675  10.670  0.2698 -0.0797  0.0139
  348loPI   GL1 5557   8.360   9.474  10.241 -0.0978 -0.1974  0.3243
  348loPI   GL2 5558   8.438   9.812  10.161 -0.1817 -0.1058 -0.1249
  348loPI   C1A 5559   8.588   9.356   9.830  0.1279  0.1752  0.0922
  348loPI   C2A 5560   8.480   9.346   9.406  0.2138 -0.0797 -0.3457
  348loPI   C3A 5561   8.491   9.502   9.055  0.0502 -0.1828 -0.1978
  348loPI   C4A 5562   8.586   9.574   8.670 -0.1048  0.1884  0.1247
  348loPI   C5A 5563   8.468   9.436   8.229 -0.1147 -0.1131 -0.0974
  348loPI   C6A 5564   8.799   9.372   8.035 -0.2092 -0.1900 -0.2379
  348loPI   C1B 5565   8.249   9.879   9.783 -0.3066 -0.2357 -0.0084
  348loPI   C2B 5566   8.134   9.738   9.412 -0.1546 -0.0064 -0.3077
  348loPI   C3B 5567   7.938   9.676   9.090  0.1809  0.1267 -0.3692
  348loPI   C4B 5568   8.118   9.435   8.723 -0.4335 -0.1134 -0.0245
  349loPI    C1 5569  17.824   6.888  11.256  0.1201  0.0467  0.0059
  349loPI    C2 5570  17.507   7.019  11.461  0.0308 -0.1388 -0.0117
  349loPI    C3 5571  17.857   6.966  11.646  0.0283 -0.0203  0.0273
  349loPI   PO4 5572  17.801   6.995  11.014  0.1395 -0.2595  0.0561
  349loPI   GL1 5573  17.827   6.812  10.653  0.0729 -0.0723 -0.0809
  349loPI   GL2 5574  17.508   6.996  10.577 -0.2841 -0.1151  0.2241
  349loPI   C1A 5575  17.926   6.795  10.266 -0.1842 -0.0477  0.1016
  349loPI   C2A 5576  17.815   6.758   9.861  0.0089  0.1883  0.0173
  349loPI   C3A 5577  17.952   6.758   9.468  0.2624  0.0502 -0.1161
  349loPI   C4A 5578  17.943   6.758   9.000 -0.1827 -0.2631  0.1987
  349loPI   C5A 5579  17.973   6.992   8.575  0.2786  0.1345 -0.0000
  349loPI   C6A 5580  17.904   7.095   8.179 -0.1861  0.0765  0.1573
  349loPI   C1B 5581  17.522   7.032  10.143 -0.3120  0.2367 -0.0054
  349loPI   C2B 5582  17.451   6.987   9.655  0.4060 -0.1861 -0.1801
  349loPI   C3B 5583  17.494   6.935   9.294 -0.1936  0.0274  0.0546
  349loPI   C4B 5584  17.501   6.924   8.831 -0.0040  0.1493  0.0484
  350loPI    C1 5585   5.220   8.153  11.341  0.5183  0.2530 -0.1331
  350loPI    C2 5586   5.454   8.449  11.472  0.1741  0.3364  0.3197
  350loPI    C3 5587   5.081   8.414  11.610  0.0187  0.0212 -0.1553
  350loPI   PO4 5588   5.280   8.153  11.104 -0.2546 -0.1566  0.2249
  350loPI   GL1 5589   5.293   8.318  10.733 -0.2518 -0.2563 -0.3599
  350loPI   GL2 5590   5.414   8.626  10.700 -0.0761  0.0733  0.3935
  350loPI   C1A 5591   5.315   8.370  10.256  0.1915 -0.0567 -0.1422
  350loPI   C2A 5592   5.285   8.285   9.862  0.1404  0.4193  0.2541
  350loPI   C3A 5593   5.406   8.446   9.443 -0.0659 -0.0124 -0.1132
  350loPI   C4A 5594   5.323   8.222   9.042 -0.0413  0.3496 -0.3558
  350loPI   C5A 5595   5.269   8.429   8.565  0.1084  0.1102 -0.0578
  350loPI   C6A 5596   5.275   8.588   8.120 -0.1016 -0.2100 -0.0168
  350loPI   C1B 5597   5.319   8.852  10.332 -0.0515 -0.0858  0.0917
  350loPI   C2B 5598   5.149   8.751   9.823 -0.0058 -0.2544  0.0236
  350loPI   C3B 5599   5.272   8.882   9.341  0.2447  0.1704  0.1701
  350loPI   C4B 5600   5.351   8.846   8.893  0.3120 -0.1366 -0.2798
  351loPI    C1 5601  12.621   1.193  11.074  0.1478  0.1533 -0.2258
  351loPI    C2 5602  12.993   1.047  11.062  0.0700 -0.0688 -0.0154
  351loPI    C3 5603  12.925   1.408  11.220  0.1933 -0.0345 -0.0396
  351loPI   PO4 5604  12.535   1.107  10.765  0.0732  0.1198 -0.1688
  351loPI   GL1 5605  12.614   0.995  10.471 -0.0364  0.2206  0.2327
  351loPI   GL2 5606  12.502   0.528  10.326  0.4700 -0.0443 -0.2534
  351loPI   C1A 5607  12.526   1.019  10.037 -0.2354 -0.0538 -0.3135
  351loPI   C2A 5608  12.718   1.195   9.697  0.2601 -0.1892  0.0288
  351loPI   C3A 5609  12.883   1.181   9.332  0.1342  0.0268  0.3008
  351loPI   C4A 5610  12.934   1.565   8.968 -0.2559  0.0981 -0.3544
  351loPI   C5A 5611  12.649   1.702   8.717  0.2035  0.1462  0.2922
  351loPI   C6A 5612  12.527   1.578   8.271  0.3409 -0.0716  0.0706
  351loPI   C1B 5613  12.672   0.514   9.951 -0.0615  0.1660 -0.3191
  351loPI   C2B 5614  12.738   0.286   9.507  0.0251  0.1758 -0.0914
  351loPI   C3B 5615  12.877   0.117   9.189  0.0171  0.0601 -0.2450
  351loPI   C4B 5616  13.246   0.158   8.946 -0.3482  0.1205  0.1687
  352loPI    C1 5617   7.464   1.884  11.177  0.0689  0.0517 -0.1296
  352loPI    C2 5618   7.330   1.776  11.538  0.0317 -0.1258 -0.1953
  352loPI    C3 5619   7.478   2.144  11.481 -0.0086 -0.0802 -0.0123
  352loPI   PO4 5620   7.425   1.893  10.866 -0.3082 -0.1487  0.1071
  352loPI   GL1 5621   7.285   2.096  10.596 -0.1345 -0.3861 -0.2296
  352loPI   GL2 5622   7.420   1.899  10.394  0.1620  0.0720 -0.0649
  352loPI   C1A 5623   7.372   2.411  10.347  0.0053  0.0189 -0.0787
  352loPI   C2A 5624   7.248   2.498  10.061  0.1624 -0.1407  0.1907
  352loPI   C3A 5625   7.298   2.505   9.619 -0.0561  0.0502 -0.4558
  352loPI   C4A 5626   7.195   2.458   9.236  0.0730 -0.0540  0.2917
  352loPI   C5A 5627   7.262   2.490   8.856  0.1785 -0.3402  0.1253
  352loPI   C6A 5628   7.308   2.441   8.424 -0.1840  0.0588  0.0369
  352loPI   C1B 5629   7.360   1.971   9.979 -0.1476  0.1018  0.3372
  352loPI   C2B 5630   7.373   1.984   9.458  0.0957  0.0809 -0.1285
  352loPI   C3B 5631   7.315   1.853   8.972 -0.1443 -0.0399  0.2242
  352loPI   C4B 5632   7.349   1.843   8.436 -0.2584  0.2612  0.0614
  353loPI    C1 5633   6.338  16.415  11.207  0.2195 -0.1016  0.0123
  353loPI    C2 5634   6.248  16.522  11.582 -0.0428 -0.1867 -0.0242
  353loPI    C3 5635   6.610  16.375  11.497  0.0969  0.0505  0.1502
  353loPI   PO4 5636   6.080  16.335  11.118 -0.0781 -0.2153 -0.0345
  353loPI   GL1 5637   5.905  16.226  10.718 -0.0260  0.3515 -0.1046
  353loPI   GL2 5638   6.272  16.335  10.576  0.1340  0.0004 -0.2081
  353loPI   C1A 5639   5.868  16.013  10.347 -0.1905  0.3265  0.2937
  353loPI   C2A 5640   5.950  16.015   9.853  0.2809  0.1669  0.2341
  353loPI   C3A 5641   5.864  15.995   9.474  0.0653 -0.0053 -0.1823
  353loPI   C4A 5642   5.925  15.728   9.081  0.2849 -0.2872  0.0526
  353loPI   C5A 5643   6.073  15.738   8.744  0.1631  0.1028 -0.0090
  353loPI   C6A 5644   6.202  16.085   8.541  0.1492  0.1794  0.1246
  353loPI   C1B 5645   6.358  16.338  10.151 -0.2228  0.3063 -0.4935
  353loPI   C2B 5646   6.450  16.375   9.710  0.2080  0.2124  0.0877
  353loPI   C3B 5647   6.488  16.378   9.272  0.0287 -0.1613 -0.2156
  353loPI   C4B 5648   6.467  16.449   8.750  0.1867 -0.2965  0.0381
  354loPI    C1 5649  10.330   9.343  10.936 -0.1104  0.1019 -0.1488
  354loPI    C2 5650  10.148   9.208  11.265 -0.1380  0.0637 -0.1796
  354loPI    C3 5651  10.377   9.535  11.283 -0.0617  0.0066 -0.1026
  354loPI   PO4 5652  10.072   9.289  10.679  0.0780  0.0809 -0.3113
  354loPI   GL1 5653   9.916   9.320  10.291  0.1894 -0.0756 -0.0024
  354loPI   GL2 5654   9.786   9.099  10.131  0.3335 -0.1524  0.1406
  354loPI   C1A 5655  10.139   9.344   9.920 -0.1300 -0.2374  0.1577
  354loPI   C2A 5656  10.146   9.622   9.730  0.0256 -0.1059 -0.2251
  354loPI   C3A 5657  10.306   9.923   9.539 -0.0995  0.0698  0.0178
  354loPI   C4A 5658  10.447  10.201   9.207 -0.2268 -0.0759  0.1089
  354loPI   C5A 5659  10.313  10.390   8.817  0.4418 -0.0230 -0.0962
  354loPI   C6A 5660   9.821  10.238   8.739  0.0666  0.1358  0.0391
  354loPI   C1B 5661   9.668   8.955   9.761 -0.1059  0.2105 -0.3423
  354loPI   C2B 5662   9.779   8.860   9.437  0.1544 -0.3197  0.0793
  354loPI   C3B 5663   9.824   8.740   9.006 -0.1443  0.0846 -0.0324
  354loPI   C4B 5664   9.778   8.509   8.627  0.0402 -0.1130  0.0591
  355loPI    C1 5665   4.288  16.076  11.231  0.1465  0.1999 -0.1428
  355loPI    C2 5666   4.362  15.697  11.337  0.2864  0.2638 -0.0087
  355loPI    C3 5667   4.141  15.932  11.574  0.0645  0.2196 -0.1696
  355loPI   PO4 5668   4.251  16.065  10.995 -0.0906  0.1559 -0.2234
  355loPI   GL1 5669   3.988  15.838  10.582  0.0971 -0.1297 -0.1151
  355loPI   GL2 5670   3.719  15.959  10.365  0.0840  0.0928 -0.1022
  355loPI   C1A 5671   4.139  15.721  10.149 -0.1668  0.3450  0.1495
  355loPI   C2A 5672   4.219  15.754   9.785  0.1347  0.0651 -0.2066
  355loPI   C3A 5673   4.205  15.773   9.282 -0.3417  0.0551 -0.0494
  355loPI   C4A 5674   4.194  15.733   8.864 -0.2828 -0.2756 -0.1414
  355loPI   C5A 5675   4.250  15.819   8.406  0.0314 -0.0705  0.0152
  355loPI   C6A 5676   4.226  15.849   8.001  0.4584 -0.1158  0.1067
  355loPI   C1B 5677   3.715  15.987   9.953 -0.1110 -0.1251 -0.2964
  355loPI   C2B 5678   3.796  15.963   9.543  0.3649  0.1148 -0.2085
  355loPI   C3B 5679   3.817  15.962   9.104  0.0886 -0.2008  0.1641
  355loPI   C4B 5680   3.750  16.123   8.737 -0.3585  0.0145  0.0928
  356loPI    C1 5681   3.274   1.774  10.839  0.0143  0.0316 -0.2160
  356loPI    C2 5682   2.964   1.994  10.963  0.0836 -0.0431  0.0999
  356loPI    C3 5683   2.947   1.805  10.611 -0.2306 -0.0496  0.1155
  356loPI   PO4 5684   3.538   1.909  10.799  0.2657  0.1096 -0.0970
  356loPI   GL1 5685   3.618   1.910  10.448 -0.2865  0.0984  0.1005
  356loPI   GL2 5686   3.372   1.675  10.336 -0.1818  0.1816  0.1494
  356loPI   C1A 5687   3.627   2.036  10.063  0.1541 -0.2704  0.1942
  356loPI   C2A 5688   3.607   2.007   9.607 -0.0703  0.3664  0.1090
  356loPI   C3A 5689   3.671   2.034   9.240 -0.1352  0.2123 -0.4096
  356loPI   C4A 5690   3.690   2.019   8.837 -0.1234  0.1883 -0.2316
  356loPI   C5A 5691   3.729   2.277   8.445  0.2926  0.1482  0.3029
  356loPI   C6A 5692   3.890   2.734   8.332  0.0879 -0.3081 -0.2570
  356loPI   C1B 5693   3.203   1.773   9.893  0.1576 -0.3143  0.0138
  356loPI   C2B 5694   3.275   1.749   9.413  0.2435 -0.0434 -0.2159
  356loPI   C3B 5695   3.193   1.760   9.017 -0.0422  0.0940  0.0215
  356loPI   C4B 5696   3.345   1.739   8.629  0.0817 -0.4186  0.1429
  357loPI    C1 5697   7.281   6.782  11.295 -0.1382 -0.2600 -0.0629
  357loPI    C2 5698   6.945   6.666  11.478 -0.0564 -0.2661  0.0859
  357loPI    C3 5699   7.149   6.981  11.616 -0.0605 -0.1934 -0.0720
  357loPI   PO4 5700   7.215   6.662  11.006  0.0334  0.0465  0.0474
  357loPI   GL1 5701   7.356   6.541  10.562  0.1724  0.0302  0.1542
  357loPI   GL2 5702   7.427   6.836  10.380 -0.1193  0.3882  0.0512
  357loPI   C1A 5703   7.322   6.428  10.131 -0.2209  0.2994  0.1368
  357loPI   C2A 5704   7.281   6.463   9.725 -0.1593 -0.2331  0.0700
  357loPI   C3A 5705   7.284   6.427   9.310 -0.0261 -0.1040 -0.0072
  357loPI   C4A 5706   7.292   6.393   8.864 -0.0231  0.1537  0.0361
  357loPI   C5A 5707   7.263   6.236   8.439  0.1594  0.0162 -0.0456
  357loPI   C6A 5708   7.084   6.182   8.091 -0.0876  0.0250 -0.1321
  357loPI   C1B 5709   7.277   7.039  10.001 -0.1007 -0.0386 -0.1745
  357loPI   C2B 5710   7.287   6.912   9.535  0.0493  0.1094 -0.0035
  357loPI   C3B 5711   7.301   6.897   9.110  0.3524  0.1792  0.2650
  357loPI   C4B 5712   7.272   6.897   8.666 -0.0412 -0.0068 -0.1407
  358loPI    C1 5713   7.560  11.664  11.150 -0.2027 -0.3839 -0.0662
  358loPI    C2 5714   7.276  11.796  11.400 -0.0626 -0.0104 -0.0975
  358loPI    C3 5715   7.627  11.670  11.544 -0.0133  0.1243 -0.0986
  358loPI   PO4 5716   7.488  11.722  10.948  0.0953 -0.0448  0.1764
  358loPI   GL1 5717   7.289  11.886  10.488  0.1880 -0.0960  0.0082
  358loPI   GL2 5718   7.546  11.975  10.537  0.0712 -0.3858  0.0469
  358loPI   C1A 5719   6.978  11.720  10.202  0.0731 -0.0476  0.1421
  358loPI   C2A 5720   6.913  11.595   9.747  0.0846 -0.1032 -0.0435
  358loPI   C3A 5721   6.907  11.666   9.352  0.1904  0.2661 -0.1458
  358loPI   C4A 5722   6.885  11.601   8.942 -0.0252 -0.0689  0.0425
  358loPI   C5A 5723   6.839  11.542   8.441  0.2680  0.0970  0.0159
  358loPI   C6A 5724   6.714  11.229   8.225 -0.1685  0.0221 -0.2660
  358loPI   C1B 5725   7.655  11.791  10.143 -0.2640 -0.0777 -0.0979
  358loPI   C2B 5726   7.480  11.831   9.712 -0.1936 -0.0093  0.1172
  358loPI   C3B 5727   7.341  11.931   9.298  0.2479  0.0526  0.1253
  358loPI   C4B 5728   7.259  11.929   8.889 -0.0295  0.1058  0.2150
  359loPI    C1 5729   0.896   1.128  11.033 -0.0171  0.0885 -0.2264
  359loPI    C2 5730   0.966   0.859  11.320 -0.0456 -0.0789 -0.3751
  359loPI    C3 5731   1.192   1.188  11.295 -0.3480  0.1793  0.1361
  359loPI   PO4 5732   0.747   1.022  10.903 -0.1952  0.0443 -0.2234
  359loPI   GL1 5733   0.968   0.763  10.495  0.1940  0.0587  0.0411
  359loPI   GL2 5734   0.754   0.993  10.419  0.0949  0.1788 -0.1052
  359loPI   C1A 5735   1.104   0.834  10.078  0.1363  0.1096 -0.1238
  359loPI   C2A 5736   1.204   0.767   9.644  0.0340  0.0892 -0.1386
  359loPI   C3A 5737   1.042   0.682   9.241  0.0661  0.0219 -0.0142
  359loPI   C4A 5738   1.074   0.772   8.748 -0.3087  0.1813  0.1842
  359loPI   C5A 5739   1.191   0.708   8.321  0.0884  0.0904  0.3103
  359loPI   C6A 5740   1.374   0.784   7.882 -0.2150 -0.2417 -0.2142
  359loPI   C1B 5741   0.675   0.985   9.936 -0.0082  0.0253  0.1043
  359loPI   C2B 5742   0.599   0.961   9.498  0.3418 -0.0391  0.0808
  359loPI   C3B 5743   0.650   1.013   9.008 -0.4368  0.0082 -0.0181
  359loPI   C4B 5744   0.592   1.071   8.613  0.0857 -0.1010  0.1586
  360loPI    C1 5745  11.914  12.396  11.250  0.0307 -0.0449 -0.0778
  360loPI    C2 5746  11.750  12.347  11.611 -0.1669 -0.2719 -0.1959
  360loPI    C3 5747  12.141  12.285  11.559 -0.0906  0.0014  0.0287
  360loPI   PO4 5748  11.738  12.294  11.046  0.0254  0.0540 -0.0777
  360loPI   GL1 5749  11.526  12.467  10.708  0.0377 -0.0647  0.1456
  360loPI   GL2 5750  11.738  12.745  10.696 -0.6306  0.0022 -0.0646
  360loPI   C1A 5751  11.344  12.808  10.330  0.0039  0.0309 -0.1076
  360loPI   C2A 5752  11.400  12.767   9.927  0.2655  0.0400 -0.0654
  360loPI   C3A 5753  11.378  12.796   9.418 -0.0456 -0.0572 -0.2660
  360loPI   C4A 5754  11.397  12.890   8.901  0.1080 -0.1990  0.1887
  360loPI   C5A 5755  11.388  12.774   8.493 -0.3258  0.0536  0.2116
  360loPI   C6A 5756  11.391  13.058   8.097  0.1346 -0.2289 -0.2812
  360loPI   C1B 5757  11.771  13.090  10.287 -0.0656  0.0152 -0.2619
  360loPI   C2B 5758  11.861  13.133  10.000  0.1606 -0.0275  0.2371
  360loPI   C3B 5759  11.739  13.108   9.695  0.0267  0.2821 -0.0302
  360loPI   C4B 5760  11.772  13.166   9.294 -0.0010 -0.0350 -0.2412
  361loPI    C1 5761  14.050   7.308  10.764  0.0461 -0.0203 -0.0143
  361loPI    C2 5762  13.858   7.653  10.704  0.1409  0.0050 -0.1788
  361loPI    C3 5763  13.896   7.507  11.075  0.3632  0.3245 -0.0712
  361loPI   PO4 5764  14.245   7.270  10.675 -0.1866  0.3191  0.1046
  361loPI   GL1 5765  14.279   7.316  10.249  0.1800  0.0808 -0.0615
  361loPI   GL2 5766  13.914   7.218  10.288 -0.0944 -0.0781  0.1292
  361loPI   C1A 5767  14.283   7.325   9.810 -0.2677  0.0033 -0.2371
  361loPI   C2A 5768  14.368   7.300   9.478 -0.0643  0.0207  0.1388
  361loPI   C3A 5769  14.272   7.337   9.000  0.2654  0.1721 -0.0183
  361loPI   C4A 5770  14.247   7.434   8.595 -0.0793 -0.0086  0.0823
  361loPI   C5A 5771  14.427   7.447   8.289 -0.1100 -0.1640  0.2537
  361loPI   C6A 5772  14.821   7.598   8.157  0.0613  0.0480 -0.4200
  361loPI   C1B 5773  13.880   7.064   9.992 -0.3372  0.2396  0.1323
  361loPI   C2B 5774  13.923   7.027   9.614 -0.1458 -0.3237  0.0155
  361loPI   C3B 5775  13.892   7.028   9.173  0.2119  0.1017 -0.3210
  361loPI   C4B 5776  13.977   7.043   8.732 -0.1185  0.1394 -0.1865
  362loPI    C1 5777   2.164  17.250  11.071 -0.0418  0.3127  0.1807
  362loPI    C2 5778   1.892  17.299  11.360 -0.0512  0.2278  0.1868
  362loPI    C3 5779   2.259  17.166  11.450 -0.1128  0.0211  0.1363
  362loPI   PO4 5780   2.127  17.469  10.887  0.1973  0.0340 -0.1951
  362loPI   GL1 5781   2.102  17.586  10.463 -0.0741 -0.1061  0.0901
  362loPI   GL2 5782   1.809  17.467  10.356  0.1442  0.2169  0.1060
  362loPI   C1A 5783   2.142  17.622  10.079 -0.0588  0.3397 -0.4646
  362loPI   C2A 5784   2.114  17.619   9.600  0.1062 -0.1988  0.0749
  362loPI   C3A 5785   2.125  17.604   9.260 -0.0948  0.1716 -0.1499
  362loPI   C4A 5786   2.248  17.634   8.771  0.2604  0.2032 -0.0439
  362loPI   C5A 5787   2.237  17.747   8.417 -0.4038  0.1915 -0.1726
  362loPI   C6A 5788   1.846  17.541   8.171 -0.0266 -0.2198  0.0391
  362loPI   C1B 5789   1.629  17.367   9.943 -0.1835  0.2321 -0.1423
  362loPI   C2B 5790   1.745  17.333   9.452 -0.0420  0.2869 -0.1729
  362loPI   C3B 5791   1.813  17.323   8.974 -0.0433  0.0339 -0.2575
  362loPI   C4B 5792   1.993  17.278   8.561  0.0815  0.1132  0.0011
  363loPI    C1 5793   0.052  16.394  11.190 -0.0914  0.3471  0.1351
  363loPI    C2 5794  -0.125  16.151  11.455  0.2272 -0.0234  0.0188
  363loPI    C3 5795   0.227  16.320  11.543  0.0730  0.2921  0.0433
  363loPI   PO4 5796  -0.102  16.382  11.019  0.1342 -0.0629 -0.1629
  363loPI   GL1 5797  -0.044  16.443  10.602  0.2857 -0.0256  0.1181
  363loPI   GL2 5798   0.080  16.723  10.665  0.1347  0.0374  0.4478
  363loPI   C1A 5799  -0.003  16.283  10.227 -0.2473  0.1243 -0.0078
  363loPI   C2A 5800   0.006  16.115   9.807  0.1888  0.1973  0.1057
  363loPI   C3A 5801   0.062  16.178   9.381  0.1356  0.0412 -0.1703
  363loPI   C4A 5802   0.088  16.039   8.989 -0.3006 -0.0232 -0.0062
  363loPI   C5A 5803   0.042  16.155   8.666 -0.0973  0.1190 -0.1218
  363loPI   C6A 5804   0.015  16.246   8.325 -0.1978  0.3425  0.1521
  363loPI   C1B 5805   0.100  16.786  10.267  0.0299 -0.1159 -0.2542
  363loPI   C2B 5806   0.020  16.675   9.830 -0.1376 -0.0538  0.0102
  363loPI   C3B 5807   0.012  16.694   9.395  0.0191  0.3547 -0.1035
  363loPI   C4B 5808  -0.013  16.617   9.024 -0.0467 -0.0442 -0.1766
  364loPI    C1 5809  16.676   1.146  11.401 -0.3296 -0.0182 -0.0073
  364loPI    C2 5810  16.877   1.401  11.635 -0.0579 -0.0967 -0.1513
  364loPI    C3 5811  16.582   1.178  11.788 -0.2259  0.2230 -0.0002
  364loPI   PO4 5812  16.778   1.299  11.153  0.0036  0.2593  0.1260
  364loPI   GL1 5813  16.737   1.344  10.563  0.0581  0.2002 -0.0965
  364loPI   GL2 5814  16.442   1.500  10.513 -0.0399 -0.0688 -0.2187
  364loPI   C1A 5815  16.720   1.324  10.059  0.3562 -0.1317 -0.0566
  364loPI   C2A 5816  16.703   1.230   9.600  0.0451 -0.0256  0.0238
  364loPI   C3A 5817  16.713   1.294   9.052 -0.2510 -0.0847  0.0637
  364loPI   C4A 5818  16.593   1.298   8.635  0.1756  0.2082 -0.1882
  364loPI   C5A 5819  16.730   1.036   8.295 -0.1259  0.0841 -0.1046
  364loPI   C6A 5820  16.606   0.839   7.903  0.1423 -0.1099  0.0862
  364loPI   C1B 5821  16.284   1.589  10.035 -0.0248  0.0676  0.0480
  364loPI   C2B 5822  16.234   1.423   9.581 -0.0897 -0.1209 -0.0270
  364loPI   C3B 5823  16.217   1.445   9.145  0.1558  0.3152  0.0604
  364loPI   C4B 5824  16.189   1.537   8.744 -0.1580 -0.0668 -0.1766
  365loPI    C1 5825  15.670  12.327  11.353 -0.1563  0.0808 -0.1306
  365loPI    C2 5826  15.417  12.531  11.587 -0.0829  0.1520 -0.1127
  365loPI    C3 5827  15.743  12.360  11.745 -0.0861  0.1145 -0.1462
  365loPI   PO4 5828  15.667  12.493  11.174 -0.0571 -0.0600  0.1067
  365loPI   GL1 5829  15.508  12.494  10.742 -0.3155 -0.0542  0.0952
  365loPI   GL2 5830  15.576  12.214  10.631  0.1701  0.1167 -0.2240
  365loPI   C1A 5831  15.431  12.726  10.243 -0.1927 -0.0343  0.0918
  365loPI   C2A 5832  15.565  12.714   9.852  0.0251  0.0736 -0.1105
  365loPI   C3A 5833  15.540  12.680   9.395 -0.1256 -0.1068 -0.0094
  365loPI   C4A 5834  15.464  12.625   8.880 -0.1003 -0.2288  0.1156
  365loPI   C5A 5835  15.277  12.480   8.468 -0.0443  0.1919  0.3378
  365loPI   C6A 5836  14.883  12.628   8.255  0.2863 -0.1692  0.2071
  365loPI   C1B 5837  15.598  12.229  10.246 -0.0318 -0.1597 -0.0508
  365loPI   C2B 5838  15.579  12.191   9.726  0.3849  0.1161  0.0476
  365loPI   C3B 5839  15.494  12.173   9.261 -0.1499 -0.2654  0.0835
  365loPI   C4B 5840  15.435  12.130   8.807  0.1455 -0.1128  0.2610
  366loPI    C1 5841   8.241  11.521  11.005 -0.0513  0.0166  0.0289
  366loPI    C2 5842   7.888  11.332  11.009 -0.0349 -0.0136  0.0653
  366loPI    C3 5843   8.117  11.333  11.337 -0.0298  0.0601  0.0616
  366loPI   PO4 5844   8.289  11.471  10.739 -0.1593 -0.4054 -0.0314
  366loPI   GL1 5845   8.575  11.666  10.494 -0.1182 -0.4050  0.3283
  366loPI   GL2 5846   8.497  11.386  10.288 -0.1663 -0.1191  0.1698
  366loPI   C1A 5847   8.128  11.782  10.245 -0.0915 -0.2995  0.1075
  366loPI   C2A 5848   8.009  11.738   9.796  0.0867  0.2413 -0.0629
  366loPI   C3A 5849   7.824  11.784   9.330 -0.0884  0.1382  0.0574
  366loPI   C4A 5850   7.708  11.696   8.841 -0.4037 -0.3449 -0.2389
  366loPI   C5A 5851   7.577  11.888   8.425  0.1999  0.3454  0.0435
  366loPI   C6A 5852   7.202  12.032   8.385 -0.3854 -0.1443  0.0165
  366loPI   C1B 5853   8.462  11.544   9.960 -0.0399 -0.1218  0.2198
  366loPI   C2B 5854   8.456  11.558   9.536 -0.0486  0.1348  0.0496
  366loPI   C3B 5855   8.268  11.447   9.182 -0.0565  0.2625  0.2260
  366loPI   C4B 5856   8.293  11.474   8.748 -0.1266  0.2756  0.1488
  367loPI    C1 5857  13.736  14.244  11.504  0.0091 -0.0802  0.2742
  367loPI    C2 5858  13.919  13.930  11.671  0.0103 -0.0394  0.3503
  367loPI    C3 5859  13.524  13.920  11.606  0.0443 -0.1430  0.1499
  367loPI   PO4 5860  13.815  14.298  11.294  0.3845  0.3001 -0.2395
  367loPI   GL1 5861  13.857  14.365  10.813 -0.3589 -0.0551 -0.0335
  367loPI   GL2 5862  13.588  14.107  10.830  0.0198  0.0361  0.1307
  367loPI   C1A 5863  13.837  14.225  10.341  0.0512  0.1128  0.0098
  367loPI   C2A 5864  13.935  14.258   9.982  0.4844 -0.0304 -0.0554
  367loPI   C3A 5865  14.013  14.226   9.503  0.0487 -0.0478  0.2807
  367loPI   C4A 5866  13.953  14.260   9.130  0.1165 -0.1061  0.1089
  367loPI   C5A 5867  13.861  14.290   8.691 -0.1504  0.0961  0.1726
  367loPI   C6A 5868  13.647  14.275   8.283  0.0167  0.0302  0.0003
  367loPI   C1B 5869  13.484  13.970  10.492 -0.2138  0.3125  0.2870
  367loPI   C2B 5870  13.589  13.908  10.026 -0.3844  0.2282  0.1545
  367loPI   C3B 5871  13.545  13.927   9.629  0.1335  0.0907  0.0488
  367loPI   C4B 5872  13.507  13.899   9.226  0.1579 -0.3505 -0.4399
  368loPI    C1 5873  10.011   8.639  10.675  0.0031  0.0336  0.2177
  368loPI    C2 5874   9.906   8.896  10.964  0.0972  0.1513  0.1479
  368loPI    C3 5875  10.287   8.873  10.845  0.0330  0.2159 -0.0749
  368loPI   PO4 5876   9.929   8.668  10.381 -0.1632  0.2284  0.0643
  368loPI   GL1 5877  10.105   8.770   9.975  0.1857  0.2345  0.0454
  368loPI   GL2 5878  10.323   8.514  10.080  0.1772 -0.0275  0.1476
  368loPI   C1A 5879  10.085   8.514   9.632 -0.1359  0.0327 -0.2197
  368loPI   C2A 5880  10.003   8.141   9.503  0.2044 -0.0759 -0.1576
  368loPI   C3A 5881   9.898   7.808   9.271  0.3395 -0.0996 -0.4253
  368loPI   C4A 5882   9.977   7.629   8.885  0.1120 -0.3066  0.2325
  368loPI   C5A 5883  10.215   7.511   8.496  0.0973  0.2452 -0.0167
  368loPI   C6A 5884  10.454   7.482   8.107 -0.0578 -0.1171 -0.2497
  368loPI   C1B 5885  10.587   8.461   9.596 -0.0669  0.4535 -0.1697
  368loPI   C2B 5886  10.756   8.350   9.266 -0.1916 -0.0661  0.0091
  368loPI   C3B 5887  10.745   8.380   8.884 -0.0366  0.0211  0.1935
  368loPI   C4B 5888  10.681   8.664   8.576 -0.0878 -0.0242  0.1682
  369loPI    C1 5889   0.853   2.317  10.652  0.0310 -0.0210  0.0292
  369loPI    C2 5890   0.844   1.922  10.713  0.0558  0.0107  0.2457
  369loPI    C3 5891   0.688   2.170  10.985 -0.1902  0.1393 -0.0075
  369loPI   PO4 5892   1.102   2.377  10.500  0.3239  0.1050 -0.0782
  369loPI   GL1 5893   1.365   2.221  10.236  0.2292 -0.3274  0.2903
  369loPI   GL2 5894   1.111   1.933  10.202 -0.2338 -0.0360 -0.3705
  369loPI   C1A 5895   1.395   2.126   9.792  0.0763  0.0378 -0.2564
  369loPI   C2A 5896   1.425   2.037   9.378  0.1242  0.0318 -0.1242
  369loPI   C3A 5897   1.484   2.014   8.977 -0.1820  0.4402 -0.0215
  369loPI   C4A 5898   1.473   2.214   8.566  0.7325  0.0444  0.0572
  369loPI   C5A 5899   1.387   1.996   8.274  0.1064  0.0009 -0.0992
  369loPI   C6A 5900   1.441   1.654   8.285  0.0511 -0.1949  0.3252
  369loPI   C1B 5901   0.994   1.764   9.825 -0.0686 -0.1449 -0.0244
  369loPI   C2B 5902   1.031   1.721   9.448 -0.1516 -0.1023  0.0898
  369loPI   C3B 5903   1.024   1.857   9.090 -0.0727  0.2846  0.2840
  369loPI   C4B 5904   1.102   1.836   8.661  0.1882 -0.1767  0.2777
  370loPI    C1 5905   3.636   5.704  11.165 -0.1701 -0.0768  0.0758
  370loPI    C2 5906   3.602   5.966  11.466 -0.0454 -0.1221  0.1302
  370loPI    C3 5907   3.453   5.597  11.505 -0.2352 -0.0557  0.0476
  370loPI   PO4 5908   3.815   5.840  11.015 -0.1270  0.0311 -0.3284
  370loPI   GL1 5909   3.901   5.928  10.679  0.1432  0.0400 -0.0861
  370loPI   GL2 5910   3.841   6.291  10.741 -0.0263 -0.1513 -0.2558
  370loPI   C1A 5911   3.864   6.134  10.263 -0.1572  0.0814 -0.1134
  370loPI   C2A 5912   3.760   6.071   9.798  0.0590  0.1297  0.0393
  370loPI   C3A 5913   3.766   6.043   9.296 -0.0855 -0.0498  0.2848
  370loPI   C4A 5914   3.812   6.021   8.894 -0.2754 -0.1248  0.1532
  370loPI   C5A 5915   3.385   5.931   8.636 -0.4062 -0.1760 -0.1884
  370loPI   C6A 5916   3.105   5.638   8.644  0.2742 -0.0917 -0.2055
  370loPI   C1B 5917   3.732   6.625  10.367 -0.0095 -0.1223 -0.1241
  370loPI   C2B 5918   3.712   6.621   9.898  0.0140 -0.2365 -0.2158
  370loPI   C3B 5919   3.647   6.647   9.404  0.1195 -0.3360 -0.0052
  370loPI   C4B 5920   3.700   6.502   9.041  0.2958  0.1212  0.0477
  371loPI    C1 5921   7.165   9.544  10.910 -0.0969  0.1813  0.0937
  371loPI    C2 5922   6.949   9.342  11.180 -0.1029 -0.0569 -0.0859
  371loPI    C3 5923   7.280   9.536  11.293 -0.1708 -0.0546  0.1126
  371loPI   PO4 5924   6.922   9.690  10.774  0.2044 -0.1679 -0.4215
  371loPI   GL1 5925   6.812  10.030  10.505  0.0385  0.0307  0.2921
  371loPI   GL2 5926   6.605  10.260  10.425 -0.0757  0.0723 -0.2138
  371loPI   C1A 5927   6.985   9.991  10.020 -0.0855  0.1837  0.3011
  371loPI   C2A 5928   7.064  10.061   9.542 -0.0611 -0.2700 -0.1571
  371loPI   C3A 5929   6.955  10.047   9.111 -0.0965  0.0700  0.2503
  371loPI   C4A 5930   6.954  10.137   8.642 -0.1217  0.0429 -0.1596
  371loPI   C5A 5931   7.042   9.922   8.308 -0.2258 -0.1182  0.1623
  371loPI   C6A 5932   7.102   9.486   8.135 -0.1289 -0.0277 -0.0975
  371loPI   C1B 5933   6.583  10.306  10.023 -0.2434  0.0824  0.2282
  371loPI   C2B 5934   6.467  10.297   9.630  0.3897  0.0242  0.0643
  371loPI   C3B 5935   6.578  10.355   9.196  0.1007 -0.3835 -0.1547
  371loPI   C4B 5936   6.547  10.379   8.783  0.1283  0.0255  0.0334
  372loPI    C1 5937  10.475   8.379  10.638  0.0524 -0.0612 -0.0892
  372loPI    C2 5938  10.218   8.195  10.393  0.0714 -0.2317  0.0174
  372loPI    C3 5939  10.221   8.106  10.783  0.1959 -0.1271  0.0410
  372loPI   PO4 5940  10.674   8.523  10.462 -0.1934  0.2108  0.1655
  372loPI   GL1 5941  10.855   8.772  10.153  0.1581 -0.0092 -0.1008
  372loPI   GL2 5942  10.763   9.119  10.100  0.2052 -0.2562 -0.1360
  372loPI   C1A 5943  11.037   8.617   9.849  0.0736 -0.0898 -0.1916
  372loPI   C2A 5944  11.006   8.156   9.719 -0.0350  0.0364 -0.1965
  372loPI   C3A 5945  11.012   7.831   9.395 -0.0529 -0.1161 -0.1658
  372loPI   C4A 5946  10.746   7.619   9.152  0.0430  0.1685 -0.3695
  372loPI   C5A 5947  10.662   7.493   8.758 -0.0527  0.0923  0.1728
  372loPI   C6A 5948  10.827   7.714   8.352 -0.6233 -0.1264  0.0432
  372loPI   C1B 5949  10.581   8.939   9.770  0.2589 -0.0786 -0.1372
  372loPI   C2B 5950  10.315   8.907   9.445 -0.3197 -0.1976  0.2525
  372loPI   C3B 5951  10.303   8.559   9.121  0.2298  0.2845  0.2577
  372loPI   C4B 5952  10.271   8.442   8.717  0.0379  0.0611  0.1504
  373loPI    C1 5953   1.557  17.678  10.997  0.1546 -0.0072 -0.1304
  373loPI    C2 5954   1.875  17.786  11.213  0.2030  0.0948 -0.2508
  373loPI    C3 5955   1.508  17.896  11.328  0.1799 -0.2807  0.0567
  373loPI   PO4 5956   1.664  17.710  10.738  0.1907  0.0180 -0.0197
  373loPI   GL1 5957   1.779  18.077  10.411 -0.2761  0.1048 -0.0317
  373loPI   GL2 5958   1.981  18.298  10.330  0.0421  0.1145  0.0904
  373loPI   C1A 5959   1.690  17.923  10.020 -0.1643  0.1089 -0.2004
  373loPI   C2A 5960   1.660  17.814   9.617 -0.1036  0.0441  0.1231
  373loPI   C3A 5961   1.614  17.860   9.134 -0.0187  0.1603  0.0738
  373loPI   C4A 5962   1.689  17.891   8.631 -0.1430 -0.0369 -0.1848
  373loPI   C5A 5963   1.677  18.054   8.140 -0.0646  0.0061 -0.0084
  373loPI   C6A 5964   1.315  18.083   7.871  0.2151  0.2023 -0.1861
  373loPI   C1B 5965   2.063  18.226   9.920  0.3654  0.3346  0.0297
  373loPI   C2B 5966   2.109  18.145   9.492  0.3196 -0.1908 -0.1642
  373loPI   C3B 5967   2.080  18.063   9.038 -0.0741  0.1280  0.0781
  373loPI   C4B 5968   2.179  18.182   8.730  0.0949  0.1132 -0.0756
  374loPI    C1 5969   7.924  14.594  11.148  0.1199 -0.1279 -0.0061
  374loPI    C2 5970   7.721  14.814  11.413  0.0028 -0.1185 -0.1027
  374loPI    C3 5971   7.820  14.437  11.501  0.0999 -0.0663  0.0156
  374loPI   PO4 5972   7.860  14.803  10.851 -0.0562  0.2009  0.0738
  374loPI   GL1 5973   7.816  14.736  10.388 -0.1236 -0.2038 -0.2371
  374loPI   GL2 5974   7.521  14.793  10.334 -0.2141 -0.2550  0.0217
  374loPI   C1A 5975   7.821  14.516  10.080 -0.0011 -0.0636  0.1424
  374loPI   C2A 5976   7.976  14.416   9.671  0.2222  0.1458 -0.0079
  374loPI   C3A 5977   7.937  14.186   9.189 -0.1233  0.0754  0.0881
  374loPI   C4A 5978   7.754  14.397   8.845 -0.4239 -0.1648  0.1960
  374loPI   C5A 5979   7.385  14.443   8.611  0.2826 -0.0524  0.1503
  374loPI   C6A 5980   7.031  14.618   8.409 -0.0179  0.2046  0.0897
  374loPI   C1B 5981   7.370  14.898   9.951  0.1748  0.0707  0.1128
  374loPI   C2B 5982   7.343  14.963   9.598 -0.0012  0.0964  0.2569
  374loPI   C3B 5983   7.669  14.773   9.566 -0.0122 -0.2179 -0.1620
  374loPI   C4B 5984   7.997  14.696   9.180  0.2407  0.0649 -0.1415
  375loPI    C1 5985   0.609  16.331  11.221 -0.0648 -0.1175  0.0569
  375loPI    C2 5986   0.993  16.224  11.248 -0.0424 -0.0569 -0.0172
  375loPI    C3 5987   0.812  16.399  11.559  0.0391  0.0732 -0.0422
  375loPI   PO4 5988   0.617  16.481  11.031  0.0512 -0.2403  0.1729
  375loPI   GL1 5989   0.652  16.484  10.636  0.0947 -0.0148 -0.0926
  375loPI   GL2 5990   0.436  16.460  10.407  0.1011  0.0003 -0.1572
  375loPI   C1A 5991   0.904  16.604  10.226  0.1697  0.1173  0.1906
  375loPI   C2A 5992   0.851  16.723   9.755 -0.0987  0.0707  0.3228
  375loPI   C3A 5993   0.856  16.760   9.239  0.3821 -0.0556  0.1214
  375loPI   C4A 5994   1.012  16.828   8.802 -0.1732  0.0912  0.0158
  375loPI   C5A 5995   1.121  16.804   8.325  0.3713 -0.0692 -0.1243
  375loPI   C6A 5996   1.546  16.678   8.151  0.0499  0.2715 -0.1558
  375loPI   C1B 5997   0.447  16.351   9.987 -0.1216 -0.0053  0.0065
  375loPI   C2B 5998   0.495  16.447   9.590  0.3322 -0.0663 -0.0463
  375loPI   C3B 5999   0.495  16.415   9.155  0.1472  0.0248 -0.3848
  375loPI   C4B 6000   0.405  16.489   8.810  0.2029  0.1164  0.4434
  376loPI    C1 6001   9.819  15.550  11.462  0.0654  0.0577 -0.0453
  376loPI    C2 6002  10.101  15.658  11.724  0.0010 -0.0166  0.0550
  376loPI    C3 6003  10.058  15.273  11.623  0.0643  0.0188 -0.1100
  376loPI   PO4 6004   9.823  15.619  11.281 -0.0145  0.2427  0.0403
  376loPI   GL1 6005   9.909  15.707  10.813  0.1721 -0.0889  0.0369
  376loPI   GL2 6006   9.804  15.397  10.790  0.1414 -0.0568  0.2045
  376loPI   C1A 6007  10.044  15.757  10.406 -0.0423 -0.0386 -0.0342
  376loPI   C2A 6008  10.138  15.791   9.953 -0.0409 -0.0956  0.1626
  376loPI   C3A 6009  10.122  15.746   9.510 -0.0199 -0.0263  0.0632
  376loPI   C4A 6010  10.240  15.832   9.070 -0.1293  0.1398  0.3685
  376loPI   C5A 6011  10.126  15.753   8.642 -0.1023 -0.0986  0.2946
  376loPI   C6A 6012   9.925  15.477   8.576 -0.0745  0.0426  0.2486
  376loPI   C1B 6013   9.660  15.399  10.353  0.0661  0.0596  0.2471
  376loPI   C2B 6014   9.596  15.390   9.955  0.1402  0.1076 -0.1338
  376loPI   C3B 6015   9.686  15.391   9.541  0.0425  0.4957 -0.1201
  376loPI   C4B 6016   9.835  15.483   9.030  0.3557  0.0116  0.1525
  377loPI    C1 6017  13.689   5.179  11.025 -0.1343  0.2210  0.0173
  377loPI    C2 6018  13.634   5.575  11.029  0.1648  0.2640  0.2361
  377loPI    C3 6019  13.438   5.343  11.290 -0.0061  0.2661  0.1117
  377loPI   PO4 6020  13.611   5.050  10.836  0.0879  0.1746  0.0937
  377loPI   GL1 6021  13.419   5.101  10.404 -0.1556  0.0247 -0.2945
  377loPI   GL2 6022  13.228   5.155  10.264  0.1224  0.1179  0.0937
  377loPI   C1A 6023  13.636   5.147  10.054  0.3102  0.4013 -0.0898
  377loPI   C2A 6024  13.649   5.164   9.569  0.2400 -0.5971 -0.1932
  377loPI   C3A 6025  13.586   5.224   9.150  0.0209  0.1122 -0.0070
  377loPI   C4A 6026  13.678   5.198   8.789  0.1791 -0.0293 -0.3175
  377loPI   C5A 6027  13.633   5.233   8.427  0.2006  0.3489  0.1505
  377loPI   C6A 6028  13.654   5.518   8.115 -0.0099 -0.1644  0.1089
  377loPI   C1B 6029  13.227   5.356   9.842 -0.1547 -0.1596  0.3749
  377loPI   C2B 6030  13.158   5.369   9.389  0.2105  0.6236 -0.0336
  377loPI   C3B 6031  13.177   5.406   8.971 -0.1118 -0.0999 -0.0907
  377loPI   C4B 6032  13.211   5.410   8.587  0.4863 -0.1513  0.0780
  378loPI    C1 6033  10.385   2.295  11.004  0.1438  0.0624  0.2169
  378loPI    C2 6034  10.044   2.089  11.042  0.0511  0.1207 -0.2374
  378loPI    C3 6035  10.216   2.253  11.364 -0.0551 -0.3684  0.0802
  378loPI   PO4 6036  10.491   2.166  10.804  0.3803 -0.1652 -0.0999
  378loPI   GL1 6037  10.506   2.160  10.378 -0.0669  0.1595 -0.1551
  378loPI   GL2 6038  10.613   2.491  10.386  0.1716 -0.2311  0.1915
  378loPI   C1A 6039  10.437   2.075   9.926  0.2811  0.1855 -0.0035
  378loPI   C2A 6040  10.435   2.104   9.473  0.1884 -0.1282  0.0527
  378loPI   C3A 6041  10.469   2.116   9.027  0.1907  0.0079 -0.2096
  378loPI   C4A 6042  10.621   2.204   8.570 -0.4093  0.1318 -0.0863
  378loPI   C5A 6043  10.703   2.368   8.062 -0.2560  0.0665  0.1765
  378loPI   C6A 6044  10.970   2.258   7.788 -0.1068  0.0658  0.0754
  378loPI   C1B 6045  10.854   2.519   9.955 -0.0925 -0.0260 -0.1420
  378loPI   C2B 6046  10.856   2.478   9.579  0.0839  0.0101 -0.3803
  378loPI   C3B 6047  10.881   2.424   9.266 -0.2444  0.2423  0.0535
  378loPI   C4B 6048  10.943   2.434   8.869  0.2368  0.1176  0.2471
  379loPI    C1 6049  17.299  10.515  11.310 -0.3675  0.0639 -0.1725
  379loPI    C2 6050  17.379  10.809  11.569 -0.3130 -0.2043  0.1204
  379loPI    C3 6051  17.078  10.849  11.308 -0.1550  0.2077 -0.0059
  379loPI   PO4 6052  17.530  10.425  11.153  0.0960 -0.1948 -0.1468
  379loPI   GL1 6053  17.830  10.430  10.774  0.1430 -0.2162  0.1915
  379loPI   GL2 6054  17.685  10.707  10.641 -0.1521 -0.0337 -0.1875
  379loPI   C1A 6055  17.643  10.254  10.491  0.2238  0.1564 -0.1621
  379loPI   C2A 6056  17.599  10.272  10.089  0.0791 -0.0593  0.2666
  379loPI   C3A 6057  17.605  10.337   9.609 -0.1817  0.1498  0.2220
  379loPI   C4A 6058  17.591  10.339   9.199  0.0724 -0.3837 -0.1352
  379loPI   C5A 6059  17.598  10.525   8.777  0.1367 -0.0780 -0.0485
  379loPI   C6A 6060  17.599  10.969   8.645 -0.1877  0.2244  0.1284
  379loPI   C1B 6061  17.676  10.721  10.264  0.0607  0.0746  0.1569
  379loPI   C2B 6062  17.542  10.811   9.839 -0.0961 -0.0663 -0.1456
  379loPI   C3B 6063  17.536  10.807   9.415 -0.0057  0.1167  0.1974
  379loPI   C4B 6064  17.583  10.926   9.146 -0.1681  0.1762  0.1749
  380loPI    C1 6065   4.550  10.620  11.411 -0.0052  0.1139  0.0738
  380loPI    C2 6066   4.540  10.835  11.748  0.3998 -0.0266  0.1815
  380loPI    C3 6067   4.230  10.602  11.651  0.1173  0.3079  0.2561
  380loPI   PO4 6068   4.642  10.762  11.226  0.1673  0.0532  0.4070
  380loPI   GL1 6069   4.532  10.662  10.751  0.0554 -0.0154 -0.0402
  380loPI   GL2 6070   4.221  10.867  10.753 -0.2527 -0.1134 -0.0266
  380loPI   C1A 6071   4.717  10.740  10.317  0.2061  0.1310  0.1661
  380loPI   C2A 6072   4.618  10.531   9.904 -0.0352 -0.1014 -0.1183
  380loPI   C3A 6073   4.694  10.546   9.423  0.2425 -0.0310 -0.0905
  380loPI   C4A 6074   4.656  10.667   9.055  0.1868 -0.2785 -0.3053
  380loPI   C5A 6075   4.563  10.666   8.589 -0.0176 -0.0912  0.1344
  380loPI   C6A 6076   4.256  10.813   8.205  0.2181  0.1842 -0.1762
  380loPI   C1B 6077   4.242  10.849  10.267  0.2063  0.2130  0.1836
  380loPI   C2B 6078   4.182  10.721   9.934 -0.1959  0.1679 -0.0027
  380loPI   C3B 6079   4.260  10.747   9.574 -0.0415 -0.1123  0.1689
  380loPI   C4B 6080   4.125  10.853   9.118  0.0559 -0.0302 -0.0814
  381loPI    C1 6081  13.811   2.405  11.337  0.0768  0.1728 -0.1255
  381loPI    C2 6082  13.835   2.748  11.542  0.4425 -0.0595  0.2364
  381loPI    C3 6083  13.587   2.459  11.664  0.2515  0.0114  0.0235
  381loPI   PO4 6084  13.789   2.384  11.127 -0.0332  0.1523  0.1331
  381loPI   GL1 6085  13.536   2.353  10.851  0.4173  0.2445  0.0484
  381loPI   GL2 6086  13.470   2.673  10.689  0.0470  0.3690  0.2283
  381loPI   C1A 6087  13.478   2.228  10.452 -0.0080  0.1108 -0.0700
  381loPI   C2A 6088  13.497   2.286   9.970  0.0647  0.0249  0.3408
  381loPI   C3A 6089  13.447   2.314   9.502  0.0037 -0.1694 -0.0209
  381loPI   C4A 6090  13.506   2.372   9.014 -0.1586  0.0670 -0.4914
  381loPI   C5A 6091  13.572   2.313   8.553  0.0944 -0.0127  0.0719
  381loPI   C6A 6092  13.350   2.277   8.206  0.1289 -0.1051 -0.1636
  381loPI   C1B 6093  13.471   2.813  10.185  0.3204  0.2148 -0.1159
  381loPI   C2B 6094  13.503   2.771   9.716 -0.1003  0.1120  0.1373
  381loPI   C3B 6095  13.443   2.823   9.235 -0.0542  0.0182 -0.1497
  381loPI   C4B 6096  13.438   2.855   8.731 -0.1085  0.1101  0.0093
  382loPI    C1 6097   4.643   3.205  11.131  0.1024 -0.0086  0.2378
  382loPI    C2 6098   4.304   3.129  11.329  0.1312 -0.1458  0.2352
  382loPI    C3 6099   4.556   3.408  11.465 -0.1535  0.2159  0.0394
  382loPI   PO4 6100   4.599   3.214  10.881 -0.1476  0.0181  0.2035
  382loPI   GL1 6101   4.295   3.265  10.668  0.1405 -0.1955 -0.1915
  382loPI   GL2 6102   4.049   3.367  10.446  0.1005  0.3257 -0.4225
  382loPI   C1A 6103   4.504   3.205  10.239 -0.0399  0.2194  0.0078
  382loPI   C2A 6104   4.576   3.284   9.842  0.1440 -0.1042  0.0877
  382loPI   C3A 6105   4.490   3.269   9.348 -0.1281  0.2944  0.1343
  382loPI   C4A 6106   4.488   3.149   8.943 -0.4395  0.0063  0.0990
  382loPI   C5A 6107   4.652   3.007   8.559 -0.4037 -0.0948 -0.1119
  382loPI   C6A 6108   4.634   3.088   8.145 -0.0319  0.1656  0.0296
  382loPI   C1B 6109   4.080   3.470  10.071 -0.0546  0.3264 -0.1747
  382loPI   C2B 6110   4.139   3.511   9.610 -0.1970 -0.2475 -0.0244
  382loPI   C3B 6111   4.024   3.479   9.183 -0.0974 -0.0560  0.3486
  382loPI   C4B 6112   3.938   3.255   8.867 -0.0846 -0.2416  0.2610
  383loPI    C1 6113   5.927   8.510  11.279 -0.2112  0.0279  0.2557
  383loPI    C2 6114   6.116   8.273  11.539  0.0646 -0.1496 -0.0971
  383loPI    C3 6115   6.254   8.641  11.467 -0.1599 -0.0052  0.1901
  383loPI   PO4 6116   5.817   8.344  11.069  0.0712 -0.0106 -0.0551
  383loPI   GL1 6117   5.772   8.241  10.766  0.0864 -0.0409  0.1518
  383loPI   GL2 6118   5.661   7.894  10.870  0.1255 -0.0217 -0.0610
  383loPI   C1A 6119   5.778   8.223  10.370  0.0281  0.0695  0.2101
  383loPI   C2A 6120   5.719   8.160  10.035  0.1329 -0.0381 -0.2083
  383loPI   C3A 6121   5.784   8.043   9.590 -0.1812  0.1801 -0.0821
  383loPI   C4A 6122   5.764   7.995   9.211  0.2863 -0.1940 -0.1702
  383loPI   C5A 6123   5.685   8.101   8.755 -0.0393  0.1703 -0.2143
  383loPI   C6A 6124   5.853   8.281   8.389  0.2974  0.1664 -0.0700
  383loPI   C1B 6125   5.428   7.904  10.479  0.3643 -0.0440 -0.3105
  383loPI   C2B 6126   5.387   7.839  10.082 -0.0703  0.3237  0.1745
  383loPI   C3B 6127   5.339   7.754   9.702 -0.1402  0.1671  0.2134
  383loPI   C4B 6128   5.358   7.758   9.317  0.0016  0.1277  0.0690
  384loPI    C1 6129  16.269   4.403  11.038 -0.0328 -0.0287 -0.0102
  384loPI    C2 6130  16.131   4.738  11.207  0.1069  0.0828 -0.1143
  384loPI    C3 6131  16.483   4.588  11.321  0.0776  0.0106 -0.1183
  384loPI   PO4 6132  16.232   4.451  10.823 -0.0514 -0.0548  0.1999
  384loPI   GL1 6133  16.065   4.402  10.441 -0.2736  0.0808  0.0561
  384loPI   GL2 6134  16.039   4.711  10.470 -0.1049  0.0345 -0.0073
  384loPI   C1A 6135  15.970   4.522  10.055 -0.1240  0.1513  0.2172
  384loPI   C2A 6136  15.908   4.623   9.676  0.1002 -0.0324 -0.1206
  384loPI   C3A 6137  15.991   4.664   9.189  0.1722 -0.0907 -0.0924
  384loPI   C4A 6138  15.963   4.620   8.738  0.0172  0.3009  0.0449
  384loPI   C5A 6139  16.237   4.756   8.445  0.0561 -0.0494  0.0236
  384loPI   C6A 6140  16.478   4.797   8.049  0.0444  0.4172 -0.0913
  384loPI   C1B 6141  16.300   4.897  10.109 -0.3751  0.1646  0.1025
  384loPI   C2B 6142  16.426   5.060   9.732 -0.0864  0.3859  0.1115
  384loPI   C3B 6143  16.397   5.041   9.277 -0.1286  0.3339 -0.5990
  384loPI   C4B 6144  16.438   5.009   8.900 -0.3365 -0.0240  0.1629
  385loPI    C1 6145   1.160  11.821  11.076 -0.1252 -0.0194  0.0879
  385loPI    C2 6146   0.777  11.816  11.192 -0.0714 -0.3050  0.2628
  385loPI    C3 6147   1.068  11.816  11.465  0.0549 -0.2265  0.1294
  385loPI   PO4 6148   1.185  11.741  10.726 -0.0976  0.1225  0.2146
  385loPI   GL1 6149   1.364  11.385  10.507 -0.1432  0.0277  0.0413
  385loPI   GL2 6150   1.035  11.344  10.391  0.2770 -0.1142  0.0783
  385loPI   C1A 6151   1.470  11.107  10.248 -0.2432  0.1141  0.0012
  385loPI   C2A 6152   1.464  11.092   9.730 -0.1707  0.0224 -0.1343
  385loPI   C3A 6153   1.387  10.992   9.337  0.2716  0.0155  0.2722
  385loPI   C4A 6154   1.428  11.065   8.977  0.1377 -0.3029 -0.2318
  385loPI   C5A 6155   1.573  11.162   8.642  0.2257 -0.1550 -0.1455
  385loPI   C6A 6156   1.691  11.397   8.331 -0.1436  0.0800  0.1331
  385loPI   C1B 6157   0.863  11.341  10.019  0.3076 -0.1182 -0.0050
  385loPI   C2B 6158   0.955  11.142   9.601  0.2217 -0.3636  0.0074
  385loPI   C3B 6159   0.956  11.158   9.062 -0.0805 -0.1397 -0.3268
  385loPI   C4B 6160   0.930  11.322   8.718 -0.0233 -0.1421 -0.2382
  386loPI    C1 6161   6.654   3.882  10.876 -0.0659  0.0339  0.0714
  386loPI    C2 6162   6.450   4.221  10.932  0.1449  0.1490  0.1570
  386loPI    C3 6163   6.849   4.229  10.916  0.1492 -0.0896  0.1097
  386loPI   PO4 6164   6.508   3.737  10.694 -0.2566 -0.1354 -0.2340
  386loPI   GL1 6165   6.341   3.824  10.310 -0.0687  0.2020  0.1588
  386loPI   GL2 6166   6.223   4.081  10.490  0.2264 -0.0510  0.1575
  386loPI   C1A 6167   6.294   3.964   9.882  0.0563  0.2832  0.1149
  386loPI   C2A 6168   6.289   4.006   9.513 -0.1455 -0.2747 -0.0967
  386loPI   C3A 6169   6.173   3.918   9.096 -0.0146  0.0701 -0.3076
  386loPI   C4A 6170   6.200   3.872   8.737  0.1682 -0.3365  0.0301
  386loPI   C5A 6171   5.940   3.695   8.326 -0.0650 -0.1584 -0.2394
  386loPI   C6A 6172   5.474   3.548   8.299  0.2206 -0.0634 -0.3694
  386loPI   C1B 6173   6.260   4.362  10.191  0.0484  0.0958 -0.3189
  386loPI   C2B 6174   6.182   4.478   9.679  0.0015 -0.0598 -0.0194
  386loPI   C3B 6175   6.117   4.390   9.247 -0.2436  0.1287 -0.5342
  386loPI   C4B 6176   6.077   4.403   8.827 -0.1818  0.1092 -0.2361
  387loPI    C1 6177  16.262   1.056  11.050  0.0307  0.1525  0.0942
  387loPI    C2 6178  15.975   0.908  10.814  0.0163 -0.1296  0.2853
  387loPI    C3 6179  15.878   1.101  11.151  0.0372  0.2626  0.0718
  387loPI   PO4 6180  16.419   1.108  10.849  0.0678 -0.1824  0.0367
  387loPI   GL1 6181  16.368   1.021  10.406 -0.1511 -0.2691 -0.1649
  387loPI   GL2 6182  16.628   0.829  10.334 -0.4125  0.0923  0.2066
  387loPI   C1A 6183  16.331   1.039   9.936  0.3550  0.1648 -0.2181
  387loPI   C2A 6184  16.371   0.964   9.429 -0.3773 -0.0332 -0.2606
  387loPI   C3A 6185  16.269   0.850   9.060  0.0524 -0.3049  0.2508
  387loPI   C4A 6186  16.062   0.866   8.655 -0.1870 -0.0314 -0.0044
  387loPI   C5A 6187  15.835   0.769   8.385  0.0085 -0.2421  0.0527
  387loPI   C6A 6188  15.859   0.480   8.040  0.0298  0.3114 -0.1398
  387loPI   C1B 6189  16.739   0.738   9.888  0.0744 -0.0442 -0.0809
  387loPI   C2B 6190  16.819   0.762   9.540 -0.2007 -0.1560 -0.1098
  387loPI   C3B 6191  16.742   0.791   9.052 -0.1272  0.1062  0.0290
  387loPI   C4B 6192  16.595   0.806   8.737 -0.1206 -0.2504  0.0098
  388loPI    C1 6193  16.763   9.149  11.432 -0.0335 -0.0135 -0.0936
  388loPI    C2 6194  16.507   8.846  11.378 -0.0330 -0.0101 -0.1147
  388loPI    C3 6195  16.730   8.862  11.709 -0.1016  0.0175 -0.0694
  388loPI   PO4 6196  16.874   9.221  11.152 -0.0658  0.0489 -0.1121
  388loPI   GL1 6197  16.946   9.431  10.664 -0.2142 -0.0517 -0.0825
  388loPI   GL2 6198  17.128   9.678  10.656 -0.1013 -0.1376 -0.0012
  388loPI   C1A 6199  16.673   9.185  10.391 -0.1322  0.1919 -0.0057
  388loPI   C2A 6200  16.804   9.196   9.928  0.0671 -0.0327 -0.0133
  388loPI   C3A 6201  16.832   9.147   9.483 -0.0121 -0.0422 -0.0409
  388loPI   C4A 6202  16.848   9.277   8.972 -0.4439  0.1189 -0.0550
  388loPI   C5A 6203  16.945   9.238   8.593 -0.0358 -0.1304  0.0030
  388loPI   C6A 6204  16.767   9.414   8.383 -0.0498 -0.1513 -0.2897
  388loPI   C1B 6205  17.114   9.507  10.211 -0.2877 -0.2184 -0.1205
  388loPI   C2B 6206  17.161   9.503   9.705  0.0313 -0.2175 -0.1622
  388loPI   C3B 6207  17.231   9.535   9.313 -0.2868 -0.0179 -0.0240
  388loPI   C4B 6208  17.183   9.616   8.772 -0.0784 -0.2646 -0.0349
  389loPI    C1 6209   0.751   2.703  10.963 -0.0296  0.0632 -0.2749
  389loPI    C2 6210   0.621   2.985  11.215 -0.3221 -0.2431 -0.0741
  389loPI    C3 6211   1.013   2.913  11.181 -0.2493  0.1316 -0.0717
  389loPI   PO4 6212   0.595   2.783  10.659 -0.2810  0.1439 -0.0882
  389loPI   GL1 6213   0.630   2.634  10.301  0.1161 -0.2282  0.0312
  389loPI   GL2 6214   0.932   2.789  10.168  0.2560  0.1659 -0.0855
  389loPI   C1A 6215   0.456   2.468   9.973  0.0661 -0.2349  0.1304
  389loPI   C2A 6216   0.477   2.418   9.554  0.0046  0.2356 -0.0521
  389loPI   C3A 6217   0.427   2.509   9.203  0.2692 -0.0055 -0.1883
  389loPI   C4A 6218   0.449   2.614   8.747  0.1313 -0.0979 -0.0589
  389loPI   C5A 6219   0.491   2.746   8.322 -0.0227  0.0495  0.1527
  389loPI   C6A 6220   0.649   2.649   7.917 -0.0526  0.1965  0.0858
  389loPI   C1B 6221   0.831   2.766   9.738 -0.0265  0.0781  0.0303
  389loPI   C2B 6222   0.924   2.811   9.371 -0.0688 -0.3322  0.3529
  389loPI   C3B 6223   0.856   2.749   8.981 -0.0076  0.0424  0.0500
  389loPI   C4B 6224   0.956   2.857   8.593 -0.3414  0.0989 -0.2033
  390loPI    C1 6225   9.131   6.722  10.725 -0.1885  0.2278  0.0981
  390loPI    C2 6226   9.329   6.746  11.071 -0.1318  0.2303  0.0657
  390loPI    C3 6227   8.965   6.582  11.060 -0.0371  0.0160  0.0866
  390loPI   PO4 6228   9.292   6.516  10.561 -0.2626  0.2535 -0.0280
  390loPI   GL1 6229   9.476   6.525  10.180  0.1134  0.0927 -0.2273
  390loPI   GL2 6230   9.802   6.729  10.231  0.2493  0.4367  0.0442
  390loPI   C1A 6231   9.399   6.762   9.727 -0.1068  0.1314  0.2010
  390loPI   C2A 6232   9.509   6.945   9.372 -0.1368 -0.1729  0.0204
  390loPI   C3A 6233   9.826   6.802   9.010 -0.2523 -0.2702  0.2900
  390loPI   C4A 6234   9.977   6.413   8.740 -0.1161  0.1184 -0.1759
  390loPI   C5A 6235  10.310   6.399   8.334  0.0952  0.2139  0.1655
  390loPI   C6A 6236  10.599   5.981   8.136  0.1825 -0.0864 -0.1320
  390loPI   C1B 6237   9.893   6.745   9.863 -0.1940 -0.0442  0.0666
  390loPI   C2B 6238  10.070   6.468   9.569  0.0161 -0.0879  0.2304
  390loPI   C3B 6239   9.857   6.252   9.338 -0.1953 -0.1877 -0.2641
  390loPI   C4B 6240   9.557   6.356   9.133  0.3124  0.0915  0.0681
  391loPI    C1 6241  11.213  17.662  11.122  0.2509  0.0983  0.1369
  391loPI    C2 6242  11.113  17.991  11.326 -0.1097  0.0574  0.0330
  391loPI    C3 6243  11.403  17.752  11.462  0.0312  0.3205  0.2040
  391loPI   PO4 6244  11.095  17.737  10.873  0.2763 -0.0164  0.0202
  391loPI   GL1 6245  11.063  17.571  10.491 -0.0428  0.1412  0.0774
  391loPI   GL2 6246  10.804  17.450  10.398  0.2799 -0.0142  0.0625
  391loPI   C1A 6247  11.187  17.603  10.099 -0.0130  0.0340 -0.0004
  391loPI   C2A 6248  11.146  17.727   9.721  0.1705 -0.0066 -0.1786
  391loPI   C3A 6249  10.826  17.796   9.445 -0.0810  0.6046  0.1522
  391loPI   C4A 6250  10.724  17.939   8.998 -0.0140 -0.1982 -0.1667
  391loPI   C5A 6251  10.521  18.105   8.622  0.1302  0.1802 -0.2500
  391loPI   C6A 6252  10.220  18.351   8.564  0.1764 -0.3486 -0.2527
  391loPI   C1B 6253  10.771  17.383   9.974  0.4452 -0.2052  0.3091
  391loPI   C2B 6254  10.822  17.302   9.510  0.0340 -0.1453  0.0615
  391loPI   C3B 6255  10.684  17.275   9.157 -0.0441 -0.0274  0.4807
  391loPI   C4B 6256  10.806  17.583   8.699 -0.2475 -0.0138 -0.3980
  392loPI    C1 6257   2.984   2.626  11.206 -0.0485  0.1512  0.2426
  392loPI    C2 6258   2.959   2.350  11.494 -0.2012 -0.0268  0.0622
  392loPI    C3 6259   2.676   2.631  11.460 -0.1919 -0.0158  0.0753
  392loPI   PO4 6260   3.033   2.572  10.894 -0.0986  0.1293 -0.2964
  392loPI   GL1 6261   3.282   2.295  10.660 -0.1567  0.2474 -0.2504
  392loPI   GL2 6262   3.567   2.383  10.633  0.0266 -0.1042  0.0376
  392loPI   C1A 6263   3.176   2.174  10.300  0.1431 -0.0379  0.1840
  392loPI   C2A 6264   3.256   2.285   9.892 -0.1087 -0.1810 -0.0545
  392loPI   C3A 6265   3.183   2.230   9.496  0.2501  0.1729 -0.0387
  392loPI   C4A 6266   3.275   2.311   9.166 -0.0992  0.0977 -0.2014
  392loPI   C5A 6267   3.252   2.236   8.679  0.1636  0.0056  0.0229
  392loPI   C6A 6268   3.074   2.128   8.264  0.0755 -0.0398 -0.0532
  392loPI   C1B 6269   3.545   2.515  10.222 -0.1367  0.1617 -0.3114
  392loPI   C2B 6270   3.722   2.635   9.843  0.1005  0.1567  0.0245
  392loPI   C3B 6271   3.744   2.587   9.353  0.0545  0.1513  0.0146
  392loPI   C4B 6272   3.727   2.550   8.889  0.2286 -0.0284  0.0481
  393loPI    C1 6273   6.417   3.655  11.241  0.1104  0.0164  0.0402
  393loPI    C2 6274   6.502   3.585  11.625  0.0458  0.0776  0.0659
  393loPI    C3 6275   6.126   3.662  11.514  0.0954  0.2592  0.0202
  393loPI   PO4 6276   6.443   3.446  11.111 -0.0025 -0.0878  0.1373
  393loPI   GL1 6277   6.518   3.270  10.581 -0.0327 -0.4595 -0.0980
  393loPI   GL2 6278   6.763   3.223  10.411 -0.0667  0.0403 -0.0175
  393loPI   C1A 6279   6.322   3.396  10.135  0.0570 -0.0192 -0.2598
  393loPI   C2A 6280   6.390   3.465   9.690 -0.1939  0.0828 -0.0915
  393loPI   C3A 6281   6.275   3.421   9.300 -0.1872 -0.1620 -0.3103
  393loPI   C4A 6282   6.219   3.359   8.872 -0.0888  0.1661 -0.0178
  393loPI   C5A 6283   6.278   3.307   8.412 -0.3190 -0.1026  0.0040
  393loPI   C6A 6284   6.205   2.912   8.157 -0.1785 -0.4420  0.0638
  393loPI   C1B 6285   6.830   3.274   9.982 -0.1414  0.2003 -0.4191
  393loPI   C2B 6286   6.752   3.170   9.546  0.2330 -0.1214  0.1486
  393loPI   C3B 6287   6.739   3.157   9.131  0.2219  0.1666 -0.1307
  393loPI   C4B 6288   6.757   3.157   8.659  0.0392 -0.1826 -0.1779
  394loPI    C1 6289   0.886   3.443  11.058 -0.1246  0.1051  0.0546
  394loPI    C2 6290   1.093   3.777  10.982 -0.2002  0.1866  0.2015
  394loPI    C3 6291   1.170   3.565  11.312 -0.1579  0.0622  0.1128
  394loPI   PO4 6292   0.931   3.241  10.820  0.1438  0.1039  0.1061
  394loPI   GL1 6293   0.788   3.258  10.385  0.0133 -0.0290  0.2059
  394loPI   GL2 6294   0.492   3.124  10.318 -0.1268  0.0027  0.2290
  394loPI   C1A 6295   0.927   3.387  10.009 -0.0557 -0.0777 -0.0753
  394loPI   C2A 6296   1.056   3.198   9.646  0.3228  0.1218 -0.1118
  394loPI   C3A 6297   1.050   3.264   9.205 -0.0121 -0.1931 -0.0669
  394loPI   C4A 6298   1.388   3.183   8.920 -0.3218 -0.0186 -0.1539
  394loPI   C5A 6299   1.806   3.053   8.678 -0.1442  0.3864 -0.0633
  394loPI   C6A 6300   2.137   2.754   8.920  0.0758 -0.1556 -0.3284
  394loPI   C1B 6301   0.528   3.098   9.895 -0.2111  0.0358  0.3061
  394loPI   C2B 6302   0.469   3.005   9.498 -0.0488 -0.2633 -0.1656
  394loPI   C3B 6303   0.371   3.027   9.048 -0.2040  0.0977  0.0764
  394loPI   C4B 6304   0.516   3.158   8.699 -0.0109 -0.3468 -0.0558
  395loPI    C1 6305  10.853   4.674  10.847  0.1810  0.1088 -0.0156
  395loPI    C2 6306  11.214   4.635  11.015  0.0781 -0.1100  0.1602
  395loPI    C3 6307  10.885   4.630  11.243 -0.0381  0.0863  0.0012
  395loPI   PO4 6308  10.900   4.659  10.525  0.0993  0.1239  0.2330
  395loPI   GL1 6309  10.887   4.417  10.164 -0.0075 -0.2794 -0.1575
  395loPI   GL2 6310  10.646   4.428  10.187 -0.1003 -0.3223 -0.0320
  395loPI   C1A 6311  11.102   4.411   9.821 -0.1231 -0.0558  0.0407
  395loPI   C2A 6312  11.049   4.375   9.365  0.0323  0.1587  0.2673
  395loPI   C3A 6313  11.126   4.320   8.916  0.1617  0.0908  0.1110
  395loPI   C4A 6314  11.095   4.201   8.539 -0.0568 -0.2038 -0.2500
  395loPI   C5A 6315  10.929   4.395   8.235  0.1221 -0.0813 -0.4331
  395loPI   C6A 6316  10.639   4.648   8.069 -0.0257 -0.2665 -0.0041
  395loPI   C1B 6317  10.641   4.687   9.772  0.3394 -0.1841  0.1390
  395loPI   C2B 6318  10.530   4.557   9.421 -0.3871 -0.0765  0.1946
  395loPI   C3B 6319  10.603   4.446   9.095  0.2193  0.0236  0.2887
  395loPI   C4B 6320  10.590   4.519   8.692  0.2939  0.1858  0.1112
  396loPI    C1 6321  10.895  14.112  11.545 -0.1218 -0.1950 -0.1993
  396loPI    C2 6322  11.261  14.112  11.708 -0.1715  0.0161 -0.0847
  396loPI    C3 6323  10.958  13.931  11.896 -0.2352  0.2851  0.0775
  396loPI   PO4 6324  10.939  14.147  11.358 -0.0319 -0.1243  0.0922
  396loPI   GL1 6325  10.917  14.070  10.840  0.1339  0.2609  0.2070
  396loPI   GL2 6326  11.212  14.127  10.609  0.0284 -0.0320 -0.0887
  396loPI   C1A 6327  10.771  13.920  10.430  0.0340 -0.1381  0.3399
  396loPI   C2A 6328  10.792  13.921  10.049  0.1837 -0.1178  0.1118
  396loPI   C3A 6329  10.771  13.995   9.549  0.0166 -0.0559 -0.0873
  396loPI   C4A 6330  10.733  14.083   9.162 -0.2489  0.1089 -0.0420
  396loPI   C5A 6331  10.564  14.221   8.800 -0.1562  0.0158  0.2530
  396loPI   C6A 6332  10.336  14.682   8.813 -0.2782  0.3275 -0.1224
  396loPI   C1B 6333  11.200  14.289  10.195 -0.0874 -0.3037  0.0244
  396loPI   C2B 6334  11.179  14.261   9.741 -0.1219  0.1680  0.0856
  396loPI   C3B 6335  11.251  14.354   9.290  0.1320 -0.0066 -0.1366
  396loPI   C4B 6336  11.057  14.364   8.901 -0.1706 -0.1418 -0.1019
  397loPI    C1 6337   5.971  12.902  11.280 -0.0148 -0.0161 -0.1643
  397loPI    C2 6338   5.577  12.833  11.282 -0.0183 -0.0002  0.0957
  397loPI    C3 6339   5.795  12.753  11.607  0.1340  0.3257  0.0782
  397loPI   PO4 6340   5.987  12.928  11.022  0.3866  0.1081  0.1753
  397loPI   GL1 6341   6.280  13.204  10.775 -0.4558  0.0537  0.1154
  397loPI   GL2 6342   5.973  13.229  10.604  0.0029 -0.2407  0.3568
  397loPI   C1A 6343   6.357  13.415  10.335  0.1498  0.0318  0.1665
  397loPI   C2A 6344   6.267  13.280   9.876  0.0938  0.0542 -0.2211
  397loPI   C3A 6345   6.277  13.411   9.482 -0.1937 -0.0120  0.1778
  397loPI   C4A 6346   6.355  13.445   9.016  0.1173 -0.0104 -0.1158
  397loPI   C5A 6347   6.371  13.240   8.657  0.1104 -0.1197 -0.0122
  397loPI   C6A 6348   6.609  12.886   8.640 -0.1378 -0.1866 -0.1910
  397loPI   C1B 6349   5.972  13.081  10.213 -0.0853 -0.1649  0.2237
  397loPI   C2B 6350   5.826  13.079   9.726 -0.1495  0.1663 -0.1625
  397loPI   C3B 6351   5.857  13.044   9.273 -0.1682  0.1161 -0.5515
  397loPI   C4B 6352   5.918  13.101   8.837 -0.3542  0.1870 -0.1865
  398loPI    C1 6353  16.927  11.337  11.245  0.0448  0.0154  0.0272
  398loPI    C2 6354  16.625  11.101  11.359  0.0555  0.0568  0.1427
  398loPI    C3 6355  16.910  11.200  11.621  0.1244  0.0861  0.0568
  398loPI   PO4 6356  17.020  11.246  11.005 -0.0193 -0.1273  0.1616
  398loPI   GL1 6357  16.857  11.127  10.596 -0.1979 -0.3511 -0.1235
  398loPI   GL2 6358  16.556  11.158  10.502 -0.1291  0.2307 -0.3223
  398loPI   C1A 6359  16.997  11.441  10.246 -0.1647 -0.4545 -0.2101
  398loPI   C2A 6360  17.006  11.543   9.889  0.1709  0.1261 -0.0909
  398loPI   C3A 6361  17.021  11.586   9.463 -0.1397  0.2271  0.1870
  398loPI   C4A 6362  17.006  11.603   8.929 -0.2898  0.1099 -0.1073
  398loPI   C5A 6363  17.033  11.613   8.474 -0.0407  0.0117 -0.1494
  398loPI   C6A 6364  17.146  11.799   8.045 -0.1123  0.1595 -0.2563
  398loPI   C1B 6365  16.638  11.246  10.013  0.1062  0.1287  0.2381
  398loPI   C2B 6366  16.581  11.266   9.479  0.1362 -0.1897  0.2613
  398loPI   C3B 6367  16.595  11.297   9.018  0.3083 -0.2879  0.2066
  398loPI   C4B 6368  16.464  11.405   8.604 -0.0789  0.2106 -0.3686
  399loPI    C1 6369  16.749  11.921  11.224  0.0340 -0.1239 -0.0861
  399loPI    C2 6370  16.595  12.090  11.552 -0.0407  0.0340 -0.2014
  399loPI    C3 6371  16.592  11.692  11.512  0.1205  0.0039  0.0645
  399loPI   PO4 6372  16.582  11.985  11.016 -0.2052 -0.0114  0.2656
  399loPI   GL1 6373  16.322  11.918  10.805  0.1622 -0.1249  0.1024
  399loPI   GL2 6374  16.120  12.059  10.640 -0.3382 -0.1690 -0.0749
  399loPI   C1A 6375  16.514  11.756  10.420  0.0654 -0.1501 -0.1247
  399loPI   C2A 6376  16.519  11.790   9.965 -0.2811  0.0601 -0.0769
  399loPI   C3A 6377  16.601  11.802   9.640 -0.0577 -0.2063  0.1024
  399loPI   C4A 6378  16.558  11.742   9.253 -0.0062 -0.0207  0.2893
  399loPI   C5A 6379  16.462  11.846   8.926 -0.0275 -0.1390  0.0960
  399loPI   C6A 6380  16.130  11.777   8.479 -0.0993 -0.1391  0.0632
  399loPI   C1B 6381  16.051  11.967  10.216 -0.2016 -0.1108  0.0269
  399loPI   C2B 6382  16.028  12.025   9.746 -0.1170 -0.1369  0.2344
  399loPI   C3B 6383  16.035  11.947   9.277  0.2356  0.0531 -0.1225
  399loPI   C4B 6384  15.960  12.012   8.894 -0.0133 -0.2335  0.0937
  400loPI    C1 6385  15.539   8.081  11.213  0.2801 -0.0322  0.1157
  400loPI    C2 6386  15.460   8.033  11.603 -0.1477 -0.0021  0.0373
  400loPI    C3 6387  15.641   7.741  11.398 -0.0603 -0.0799  0.2231
  400loPI   PO4 6388  15.708   8.269  11.180  0.2390 -0.1372  0.0073
  400loPI   GL1 6389  15.817   8.523  10.879  0.0693  0.0492 -0.3231
  400loPI   GL2 6390  15.828   8.195  10.661  0.0177  0.1987 -0.0435
  400loPI   C1A 6391  15.900   8.591  10.399  0.1089  0.1536  0.2110
  400loPI   C2A 6392  15.961   8.586   9.970  0.4938  0.2925  0.2241
  400loPI   C3A 6393  15.971   8.551   9.541  0.0440 -0.2189  0.2673
  400loPI   C4A 6394  15.967   8.611   9.083 -0.0583  0.4436 -0.0660
  400loPI   C5A 6395  15.886   8.362   8.597 -0.2534 -0.3620  0.3211
  400loPI   C6A 6396  15.844   8.108   8.185 -0.0226 -0.1422 -0.0761
  400loPI   C1B 6397  15.516   8.273  10.354  0.1476  0.4587  0.0099
  400loPI   C2B 6398  15.505   8.330   9.908  0.1307  0.3765  0.1234
  400loPI   C3B 6399  15.553   8.306   9.493 -0.1620  0.0691  0.1752
  400loPI   C4B 6400  15.520   8.305   9.022 -0.2150  0.2502 -0.0768
  401loPI    C1 6401   9.126   5.193  11.179  0.0943 -0.0732 -0.2314
  401loPI    C2 6402   9.433   5.434  11.267  0.0629 -0.0390 -0.2157
  401loPI    C3 6403   9.313   5.159  11.531 -0.1219  0.1580 -0.0909
  401loPI   PO4 6404   9.035   5.307  10.906  0.3939  0.0942  0.0032
  401loPI   GL1 6405   9.091   5.256  10.468  0.0302 -0.2461 -0.0852
  401loPI   GL2 6406   9.197   5.595  10.430 -0.0449 -0.0405  0.0822
  401loPI   C1A 6407   8.891   5.229  10.137  0.0178 -0.1356 -0.0257
  401loPI   C2A 6408   8.760   5.349   9.791 -0.0922  0.1372 -0.1878
  401loPI   C3A 6409   8.784   5.200   9.388  0.0392 -0.1949 -0.0860
  401loPI   C4A 6410   8.663   5.315   9.000  0.1712  0.0235 -0.1933
  401loPI   C5A 6411   8.708   5.200   8.576 -0.2732  0.4093 -0.2316
  401loPI   C6A 6412   9.053   5.110   8.291  0.0047 -0.2726  0.0599
  401loPI   C1B 6413   9.129   5.669   9.957 -0.0638  0.2659  0.1815
  401loPI   C2B 6414   9.118   5.598   9.529 -0.4581  0.1321  0.1774
  401loPI   C3B 6415   9.108   5.573   9.106 -0.5509 -0.0998  0.0338
  401loPI   C4B 6416   9.123   5.642   8.612  0.2584  0.1076 -0.3253
  402loPI    C1 6417  13.336   0.612  10.858  0.3484  0.0209  0.0410
  402loPI    C2 6418  13.420   0.822  11.188  0.1391  0.0830  0.0564
  402loPI    C3 6419  13.113   0.564  11.187  0.1246  0.0999 -0.0964
  402loPI   PO4 6420  13.233   0.793  10.654  0.0248  0.0898 -0.2010
  402loPI   GL1 6421  13.118   0.901  10.224 -0.3059  0.0687 -0.6111
  402loPI   GL2 6422  12.966   1.268  10.211 -0.0494  0.0009 -0.0045
  402loPI   C1A 6423  13.152   0.952   9.768 -0.1780  0.1203  0.2305
  402loPI   C2A 6424  13.056   0.688   9.447  0.2624  0.0261 -0.1264
  402loPI   C3A 6425  12.992   0.571   9.054 -0.1190 -0.2169  0.0632
  402loPI   C4A 6426  12.651   0.581   8.848  0.4322 -0.0171  0.1451
  402loPI   C5A 6427  12.434   0.406   8.511 -0.0697  0.1363  0.2466
  402loPI   C6A 6428  12.163   0.217   8.272 -0.2138  0.2560 -0.1111
  402loPI   C1B 6429  13.083   1.533   9.811 -0.0057  0.5031 -0.1173
  402loPI   C2B 6430  12.786   1.683   9.537  0.0994 -0.0023 -0.2155
  402loPI   C3B 6431  12.529   1.548   9.237 -0.0613  0.0384  0.1122
  402loPI   C4B 6432  12.131   1.248   9.059  0.2222  0.0455 -0.0031
  403loPI    C1 6433  15.784  17.677  11.351 -0.0715  0.1958 -0.3363
  403loPI    C2 6434  16.042  17.960  11.466  0.1402 -0.0455 -0.2068
  403loPI    C3 6435  15.671  17.955  11.616  0.1755  0.0867 -0.1128
  403loPI   PO4 6436  15.802  17.672  11.120  0.2306  0.0306  0.1018
  403loPI   GL1 6437  15.913  17.344  10.833 -0.1517 -0.1923 -0.0083
  403loPI   GL2 6438  15.911  17.499  10.649  0.0431 -0.0491  0.2977
  403loPI   C1A 6439  15.557  17.217  10.497  0.1108 -0.1307  0.1252
  403loPI   C2A 6440  15.516  17.129  10.100  0.0185 -0.3306  0.0944
  403loPI   C3A 6441  15.561  17.071   9.704  0.0275  0.0146  0.0452
  403loPI   C4A 6442  15.512  17.126   9.259 -0.1791  0.2008 -0.2226
  403loPI   C5A 6443  15.550  17.229   8.868 -0.0596  0.0819 -0.0982
  403loPI   C6A 6444  15.290  17.228   8.565 -0.0191  0.1543  0.0112
  403loPI   C1B 6445  15.865  17.441  10.146 -0.0907 -0.2940 -0.0805
  403loPI   C2B 6446  15.933  17.475   9.673 -0.0176 -0.2321  0.1818
  403loPI   C3B 6447  15.971  17.441   9.284 -0.3253 -0.0042 -0.1406
  403loPI   C4B 6448  16.008  17.410   8.834 -0.0137  0.4948  0.2346
  404loPI    C1 6449   7.075  10.325  11.103 -0.2298  0.0250 -0.1676
  404loPI    C2 6450   6.750  10.500  11.257 -0.1757 -0.2927  0.3307
  404loPI    C3 6451   7.100  10.524  11.449  0.0541 -0.1309 -0.0953
  404loPI   PO4 6452   7.052  10.367  10.810  0.4262 -0.0078 -0.0361
  404loPI   GL1 6453   7.241  10.471  10.400 -0.1802  0.1132 -0.2802
  404loPI   GL2 6454   7.594  10.642  10.416  0.0721  0.2815 -0.0014
  404loPI   C1A 6455   7.086  10.506  10.035 -0.0307 -0.2480 -0.1686
  404loPI   C2A 6456   6.948  10.504   9.726 -0.2550  0.0545 -0.0364
  404loPI   C3A 6457   6.992  10.610   9.343  0.1101  0.0197  0.1046
  404loPI   C4A 6458   7.002  10.665   8.853  0.1091 -0.0132 -0.0614
  404loPI   C5A 6459   6.911  10.585   8.369  0.0846  0.2021  0.0141
  404loPI   C6A 6460   7.114  10.389   8.055  0.1946  0.2079 -0.0606
  404loPI   C1B 6461   7.485  10.815  10.043  0.0971 -0.1426  0.1271
  404loPI   C2B 6462   7.359  10.862   9.596 -0.0949  0.1897  0.1208
  404loPI   C3B 6463   7.373  10.939   9.243  0.0923 -0.1976  0.0909
  404loPI   C4B 6464   7.451  10.955   8.789 -0.0342  0.0179  0.1575
  405loPI    C1 6465   3.869   0.168  11.040  0.1198 -0.0634 -0.0372
  405loPI    C2 6466   3.903  -0.076  11.356 -0.1804 -0.0445  0.0123
  405loPI    C3 6467   3.834   0.315  11.410 -0.0303 -0.0052 -0.0740
  405loPI   PO4 6468   4.047   0.107  10.903 -0.0753  0.0771  0.2109
  405loPI   GL1 6469   4.039   0.019  10.530  0.0171 -0.0530 -0.0156
  405loPI   GL2 6470   3.686  -0.090  10.613  0.0383 -0.3058  0.2559
  405loPI   C1A 6471   4.235  -0.201  10.146 -0.1841  0.0759  0.3351
  405loPI   C2A 6472   4.371  -0.255   9.761 -0.0816  0.3044 -0.0362
  405loPI   C3A 6473   4.486  -0.190   9.277  0.2034 -0.0285  0.3547
  405loPI   C4A 6474   4.529  -0.250   8.858  0.1281  0.1038 -0.1361
  405loPI   C5A 6475   4.710  -0.162   8.441 -0.2059 -0.2891 -0.1469
  405loPI   C6A 6476   4.919   0.270   8.266 -0.2985 -0.2437  0.1843
  405loPI   C1B 6477   3.654  -0.007  10.202  0.0103  0.0373  0.0108
  405loPI   C2B 6478   3.829   0.010   9.850  0.0580  0.1249 -0.3835
  405loPI   C3B 6479   3.996  -0.069   9.469  0.1340 -0.1366 -0.3012
  405loPI   C4B 6480   4.025   0.044   9.098 -0.2944 -0.3044  0.0403
  406loPI    C1 6481  14.334   9.340  10.595  0.3099  0.0326 -0.0192
  406loPI    C2 6482  14.397   9.406  10.984 -0.2326 -0.2599  0.1293
  406loPI    C3 6483  14.493   9.053  10.823  0.0030 -0.1351 -0.0102
  406loPI   PO4 6484  14.420   9.566  10.468  0.1477 -0.2454  0.1231
  406loPI   GL1 6485  14.757   9.557  10.141 -0.2317 -0.0533  0.2452
  406loPI   GL2 6486  14.520   9.291  10.018  0.0013 -0.1719 -0.1112
  406loPI   C1A 6487  14.404   9.668   9.765 -0.1136  0.0421 -0.0288
  406loPI   C2A 6488  14.453   9.577   9.349  0.4055  0.1127 -0.1543
  406loPI   C3A 6489  14.502   9.699   8.877  0.0169 -0.0288  0.2718
  406loPI   C4A 6490  14.702   9.668   8.422 -0.3194 -0.0965  0.0647
  406loPI   C5A 6491  14.921   9.921   8.063  0.0268  0.0830 -0.1694
  406loPI   C6A 6492  15.118  10.350   7.923  0.2641  0.1972 -0.0546
  406loPI   C1B 6493  14.832   9.375   9.681 -0.1077 -0.2062 -0.1183
  406loPI   C2B 6494  14.928   9.410   9.375 -0.1316 -0.3796  0.1812
  406loPI   C3B 6495  14.978   9.477   8.983 -0.0589 -0.0603  0.1616
  406loPI   C4B 6496  15.115   9.589   8.630  0.0900  0.0231 -0.1702
  407loPI    C1 6497   5.268   2.834  11.317  0.5834 -0.0567 -0.0683
  407loPI    C2 6498   5.366   3.088  11.611 -0.1237 -0.0106  0.1461
  407loPI    C3 6499   5.301   2.702  11.693 -0.1863 -0.0264  0.0254
  407loPI   PO4 6500   5.049   2.954  11.170 -0.0400 -0.1693  0.1732
  407loPI   GL1 6501   4.927   2.893  10.695  0.2622 -0.0484  0.0559
  407loPI   GL2 6502   4.569   2.844  10.550  0.2119  0.2335 -0.3181
  407loPI   C1A 6503   5.020   2.979  10.306  0.3237  0.0972  0.3992
  407loPI   C2A 6504   5.074   3.133   9.832 -0.3732 -0.1423  0.2002
  407loPI   C3A 6505   4.961   2.984   9.403 -0.0623  0.1422 -0.1930
  407loPI   C4A 6506   5.028   2.995   8.997 -0.2966  0.1340  0.1216
  407loPI   C5A 6507   5.068   2.810   8.720 -0.2702 -0.0061  0.1205
  407loPI   C6A 6508   4.834   2.574   8.383  0.0770  0.2670  0.2203
  407loPI   C1B 6509   4.533   2.627  10.250  0.0847  0.2870 -0.0352
  407loPI   C2B 6510   4.559   2.726   9.831  0.1492  0.0194  0.1329
  407loPI   C3B 6511   4.553   2.703   9.311  0.0148  0.0295 -0.2462
  407loPI   C4B 6512   4.614   2.641   8.841 -0.3525  0.1278  0.3185
  408loPI    C1 6513   1.200   4.792  11.455 -0.2329  0.0659  0.1127
  408loPI    C2 6514   1.197   4.575  11.790 -0.1432  0.1171  0.1470
  408loPI    C3 6515   1.285   4.965  11.805 -0.1570  0.1234  0.0664
  408loPI   PO4 6516   1.312   4.526  11.272 -0.2074  0.0193 -0.0716
  408loPI   GL1 6517   1.416   4.558  10.775  0.1297  0.0527  0.0497
  408loPI   GL2 6518   1.759   4.434  10.685  0.1531  0.1949 -0.3706
  408loPI   C1A 6519   1.217   4.717  10.438  0.0525  0.3401 -0.0139
  408loPI   C2A 6520   1.141   4.709  10.041 -0.0396 -0.4209  0.0675
  408loPI   C3A 6521   1.154   4.730   9.649  0.0751  0.2550  0.0097
  408loPI   C4A 6522   1.159   4.746   9.225  0.0868  0.0404 -0.1498
  408loPI   C5A 6523   1.267   4.670   8.703  0.0927  0.1667 -0.0119
  408loPI   C6A 6524   1.637   4.497   8.468 -0.2224 -0.1339  0.2112
  408loPI   C1B 6525   1.758   4.526  10.299 -0.0661  0.0774  0.1533
  408loPI   C2B 6526   1.680   4.516   9.836  0.1867  0.2776 -0.0328
  408loPI   C3B 6527   1.616   4.552   9.471 -0.2193  0.1021 -0.0768
  408loPI   C4B 6528   1.667   4.456   9.068  0.1844  0.3118  0.1925
  409loPI    C1 6529   3.102   9.987  11.867  0.2452 -0.2256  0.0387
  409loPI    C2 6530   3.287  10.277  12.071  0.2021  0.0603 -0.3172
  409loPI    C3 6531   3.433   9.904  12.076  0.2318  0.0713  0.1816
  409loPI   PO4 6532   2.991  10.101  11.545 -0.2352 -0.2531  0.1432
  409loPI   GL1 6533   2.852  10.140  11.119 -0.1068 -0.0597 -0.2528
  409loPI   GL2 6534   2.798  10.414  10.936 -0.1952  0.0371  0.1323
  409loPI   C1A 6535   2.910   9.948  10.685 -0.0715 -0.0867 -0.3461
  409loPI   C2A 6536   2.989   9.958  10.267 -0.0682 -0.1340  0.0200
  409loPI   C3A 6537   2.909   9.942   9.754 -0.0757  0.0719  0.0621
  409loPI   C4A 6538   2.845   9.971   9.209  0.0265  0.0978  0.0877
  409loPI   C5A 6539   2.930  10.176   8.870  0.0394 -0.0628  0.1704
  409loPI   C6A 6540   2.726  10.465   8.534 -0.0490 -0.0388 -0.1333
  409loPI   C1B 6541   2.932  10.447  10.495  0.0907  0.0057  0.0197
  409loPI   C2B 6542   2.927  10.410  10.024  0.2017  0.0702 -0.3548
  409loPI   C3B 6543   2.806  10.445   9.600 -0.1072  0.3342  0.0048
  409loPI   C4B 6544   2.855  10.480   9.235 -0.0656 -0.3595  0.1248
  410loPI    C1 6545  15.366  16.646  11.414  0.0602  0.0240  0.1030
  410loPI    C2 6546  15.463  16.893  11.713  0.1252 -0.0503  0.1435
  410loPI    C3 6547  15.108  16.711  11.712  0.1329 -0.0654  0.1861
  410loPI   PO4 6548  15.367  16.777  11.163 -0.0419 -0.1667 -0.2444
  410loPI   GL1 6549  15.335  16.874  10.772  0.2143 -0.0941 -0.4064
  410loPI   GL2 6550  15.133  16.903  10.566  0.0262  0.0855 -0.3271
  410loPI   C1A 6551  15.633  16.734  10.431 -0.1525  0.4133 -0.1162
  410loPI   C2A 6552  15.602  16.625   9.976 -0.0601  0.0386 -0.0030
  410loPI   C3A 6553  15.563  16.595   9.504 -0.6952 -0.1923 -0.1376
  410loPI   C4A 6554  15.692  16.656   9.054 -0.0921 -0.2717 -0.0004
  410loPI   C5A 6555  15.631  16.793   8.633  0.0790  0.4685  0.3682
  410loPI   C6A 6556  15.867  17.167   8.376 -0.1261 -0.0735  0.0449
  410loPI   C1B 6557  15.168  16.818  10.169  0.1542  0.2999 -0.0167
  410loPI   C2B 6558  15.161  16.757   9.780 -0.0137 -0.0668 -0.2242
  410loPI   C3B 6559  15.123  16.805   9.432  0.0780  0.1375  0.2213
  410loPI   C4B 6560  15.184  16.841   9.010 -0.0424  0.1399  0.0249
  411loPI    C1 6561   1.949   8.507  11.371 -0.0240  0.0697  0.0033
  411loPI    C2 6562   1.869   8.605  11.750 -0.0633 -0.1835  0.0624
  411loPI    C3 6563   1.932   8.222  11.651 -0.0409 -0.1177 -0.1851
  411loPI   PO4 6564   1.773   8.636  11.232 -0.0630 -0.1823 -0.0988
  411loPI   GL1 6565   1.707   8.565  10.861  0.0051 -0.2234 -0.0920
  411loPI   GL2 6566   1.532   8.741  10.809 -0.0386  0.1316  0.4105
  411loPI   C1A 6567   1.785   8.495  10.347  0.1138 -0.0718 -0.0745
  411loPI   C2A 6568   1.727   8.416   9.947  0.0335  0.0772 -0.1233
  411loPI   C3A 6569   1.683   8.485   9.522  0.2699  0.0787  0.1629
  411loPI   C4A 6570   1.770   8.506   9.079  0.2107 -0.2418 -0.1306
  411loPI   C5A 6571   1.684   8.912   8.756  0.2937 -0.0880 -0.0358
  411loPI   C6A 6572   1.817   9.330   8.753 -0.0190  0.1197 -0.0928
  411loPI   C1B 6573   1.551   8.968  10.465  0.2359 -0.3717  0.4299
  411loPI   C2B 6574   1.612   8.917  10.041 -0.0485 -0.0820  0.2939
  411loPI   C3B 6575   1.638   9.021   9.612 -0.1443 -0.0269 -0.1818
  411loPI   C4B 6576   1.717   9.022   9.210 -0.1675  0.1704 -0.1232
  412loPI    C1 6577   1.119  17.332  11.021  0.1361  0.0312 -0.0951
  412loPI    C2 6578   1.087  17.644  11.268 -0.2811 -0.2344  0.2002
  412loPI    C3 6579   1.377  17.374  11.323  0.0213  0.0421  0.0020
  412loPI   PO4 6580   1.060  17.411  10.798  0.0509  0.0768 -0.0169
  412loPI   GL1 6581   1.212  17.118  10.447  0.0012  0.1725  0.1215
  412loPI   GL2 6582   1.333  17.358  10.397 -0.0898 -0.1197  0.0399
  412loPI   C1A 6583   1.232  17.025  10.067  0.0050  0.0929 -0.2211
  412loPI   C2A 6584   1.347  17.030   9.633 -0.2269  0.0535  0.0499
  412loPI   C3A 6585   1.369  17.031   9.233  0.1096 -0.0382 -0.0263
  412loPI   C4A 6586   1.421  17.042   8.801 -0.4283  0.2451 -0.0949
  412loPI   C5A 6587   1.513  17.226   8.450 -0.2005 -0.1801  0.1210
  412loPI   C6A 6588   1.360  17.655   8.232 -0.0857  0.3621 -0.3124
  412loPI   C1B 6589   1.141  17.573  10.090  0.2232  0.0183  0.0021
  412loPI   C2B 6590   1.133  17.595   9.674 -0.0407 -0.4978 -0.2823
  412loPI   C3B 6591   1.233  17.558   9.200 -0.0000 -0.0450 -0.1230
  412loPI   C4B 6592   1.275  17.587   8.813 -0.1209 -0.1866 -0.2648
  413loPI    C1 6593  17.443   3.273  11.103 -0.0164  0.1649 -0.2968
  413loPI    C2 6594  17.832   3.191  11.146 -0.0902 -0.0210  0.0524
  413loPI    C3 6595  17.597   2.940  10.943 -0.0543  0.0251 -0.0470
  413loPI   PO4 6596  17.483   3.574  11.034  0.2467  0.0729  0.1589
  413loPI   GL1 6597  17.363   3.770  10.696  0.0832 -0.1100  0.2436
  413loPI   GL2 6598  17.375   3.512  10.487 -0.0221 -0.0514 -0.0464
  413loPI   C1A 6599  17.243   4.055  10.255 -0.4268 -0.1395  0.0243
  413loPI   C2A 6600  17.336   3.982   9.835 -0.0737  0.1650 -0.0643
  413loPI   C3A 6601  17.321   4.025   9.378 -0.2852 -0.3350 -0.0058
  413loPI   C4A 6602  17.307   3.998   9.016  0.0186 -0.0635 -0.2733
  413loPI   C5A 6603  17.404   4.232   8.615 -0.0140  0.4477  0.0818
  413loPI   C6A 6604  17.773   4.633   8.553 -0.0727  0.1053  0.6324
  413loPI   C1B 6605  17.425   3.541  10.129  0.0648 -0.3192  0.1309
  413loPI   C2B 6606  17.450   3.493   9.719 -0.2615 -0.1244  0.1372
  413loPI   C3B 6607  17.361   3.521   9.392  0.0911  0.0109 -0.0583
  413loPI   C4B 6608  17.339   3.457   8.963  0.1359  0.0289  0.0094
  414loPI    C1 6609   3.667  12.911  11.428 -0.3049  0.0253 -0.0878
  414loPI    C2 6610   3.391  12.685  11.611 -0.0891  0.0657  0.2980
  414loPI    C3 6611   3.578  12.975  11.813  0.2354  0.0413  0.0417
  414loPI   PO4 6612   3.503  12.935  11.144 -0.0198  0.0183  0.3093
  414loPI   GL1 6613   3.275  12.952  10.868 -0.4417  0.3265 -0.3145
  414loPI   GL2 6614   3.220  13.236  10.784 -0.1372 -0.2042  0.1668
  414loPI   C1A 6615   3.241  12.875  10.381  0.0483  0.3822  0.1814
  414loPI   C2A 6616   3.134  12.820   9.942 -0.1334 -0.1691  0.1230
  414loPI   C3A 6617   3.135  12.744   9.513  0.0540 -0.1085 -0.0343
  414loPI   C4A 6618   3.118  12.729   9.013 -0.2481  0.0537  0.0353
  414loPI   C5A 6619   3.123  12.592   8.596 -0.0751  0.0069 -0.0301
  414loPI   C6A 6620   3.122  12.697   8.179  0.2095 -0.3884  0.0571
  414loPI   C1B 6621   3.079  13.322  10.351  0.1985 -0.2200  0.2150
  414loPI   C2B 6622   3.154  13.311   9.842 -0.0991 -0.0827  0.0173
  414loPI   C3B 6623   3.076  13.281   9.448  0.1801  0.1120 -0.0479
  414loPI   C4B 6624   3.080  13.282   9.078 -0.0858  0.1066  0.0317
  415loPI    C1 6625  17.741  11.883  11.143  0.1609  0.1554  0.1643
  415loPI    C2 6626  17.568  12.154  11.380 -0.2529  0.0898 -0.0524
  415loPI    C3 6627  17.610  11.777  11.505  0.0156  0.1725  0.1173
  415loPI   PO4 6628  17.650  12.015  10.906 -0.1327 -0.1796  0.2599
  415loPI   GL1 6629  17.429  12.182  10.626  0.1283  0.0765 -0.2168
  415loPI   GL2 6630  17.323  11.836  10.586 -0.0388 -0.3937  0.0653
  415loPI   C1A 6631  17.262  12.436  10.308 -0.0367 -0.1770  0.0355
  415loPI   C2A 6632  17.329  12.394   9.926 -0.1346 -0.2310  0.0220
  415loPI   C3A 6633  17.337  12.405   9.483 -0.0534  0.0555  0.1441
  415loPI   C4A 6634  17.378  12.380   8.986 -0.0026 -0.3655 -0.0692
  415loPI   C5A 6635  17.509  12.422   8.532  0.0834  0.0882  0.1055
  415loPI   C6A 6636  17.414  12.305   8.042 -0.0138  0.1193 -0.2097
  415loPI   C1B 6637  17.350  11.830  10.184  0.1493  0.4476  0.0185
  415loPI   C2B 6638  17.485  11.876   9.764 -0.0889  0.0360 -0.0087
  415loPI   C3B 6639  17.446  11.882   9.357  0.1321 -0.2291 -0.1608
  415loPI   C4B 6640  17.473  11.906   8.865  0.1191 -0.2189 -0.0012
  416loPI    C1 6641   1.762   9.438  11.440  0.1783  0.1175 -0.1401
  416loPI    C2 6642   1.866   9.056  11.501 -0.0708  0.0662 -0.0218
  416loPI    C3 6643   1.922   9.327  11.790 -0.2154  0.0480  0.0244
  416loPI   PO4 6644   1.835   9.458  11.212 -0.4199 -0.0236  0.0850
  416loPI   GL1 6645   2.154   9.260  10.915 -0.1704 -0.0959 -0.0777
  416loPI   GL2 6646   1.929   9.011  10.993 -0.0874 -0.1011 -0.3091
  416loPI   C1A 6647   2.143   9.531  10.599  0.0341  0.3994 -0.0681
  416loPI   C2A 6648   2.087   9.751  10.269  0.0207  0.0014 -0.0459
  416loPI   C3A 6649   2.057   9.923   9.822  0.2211 -0.1492  0.0297
  416loPI   C4A 6650   1.993   9.814   9.464  0.1042 -0.0956 -0.1288
  416loPI   C5A 6651   2.052   9.834   9.071  0.1587 -0.0331  0.1703
  416loPI   C6A 6652   2.080   9.728   8.562  0.0612 -0.1128  0.0257
  416loPI   C1B 6653   2.077   8.943  10.487 -0.0891 -0.2034  0.0974
  416loPI   C2B 6654   2.114   8.838  10.094 -0.0147 -0.0113  0.3120
  416loPI   C3B 6655   2.060   8.716   9.759  0.0262  0.0885 -0.1205
  416loPI   C4B 6656   2.165   8.749   9.355  0.3059  0.1841  0.0088
  417loPI    C1 6657  10.636   5.875  10.829  0.0349 -0.3117  0.0835
  417loPI    C2 6658  10.343   5.789  11.087 -0.0896 -0.2402 -0.0328
  417loPI    C3 6659  10.687   5.944  11.220 -0.1584 -0.1903  0.0885
  417loPI   PO4 6660  10.626   5.714  10.698  0.0300  0.1325  0.0868
  417loPI   GL1 6661  10.575   5.770  10.283 -0.0420 -0.2457 -0.0294
  417loPI   GL2 6662  10.465   5.472  10.220  0.0054  0.0665  0.1773
  417loPI   C1A 6663  10.834   5.872   9.891 -0.2115 -0.0580  0.0107
  417loPI   C2A 6664  10.820   5.967   9.460  0.0029  0.1027 -0.0217
  417loPI   C3A 6665  10.885   5.924   9.079  0.1795  0.0147 -0.0248
  417loPI   C4A 6666  10.911   5.809   8.601  0.1059  0.1488 -0.1096
  417loPI   C5A 6667  10.882   5.577   8.161 -0.0300  0.0415 -0.0919
  417loPI   C6A 6668  10.833   5.246   8.086 -0.0819  0.1869  0.2466
  417loPI   C1B 6669  10.449   5.621   9.686 -0.2930 -0.0630 -0.0489
  417loPI   C2B 6670  10.438   5.579   9.196  0.1888 -0.0112 -0.1827
  417loPI   C3B 6671  10.427   5.524   8.724  0.0570  0.1400  0.3322
  417loPI   C4B 6672  10.413   5.444   8.315 -0.0891  0.1944  0.2851
  418loPI    C1 6673  13.697  15.948  11.308 -0.0340  0.2242 -0.0767
  418loPI    C2 6674  13.508  16.298  11.348 -0.1466  0.1477  0.0691
  418loPI    C3 6675  13.623  16.095  11.673  0.1972  0.1984 -0.0180
  418loPI   PO4 6676  13.544  15.760  11.124  0.3839 -0.0725 -0.1781
  418loPI   GL1 6677  13.600  15.637  10.722  0.0453 -0.3684 -0.1370
  418loPI   GL2 6678  13.356  15.538  10.680 -0.0079  0.1508 -0.1701
  418loPI   C1A 6679  13.763  15.799  10.295 -0.0715 -0.1778 -0.2702
  418loPI   C2A 6680  13.735  15.743   9.964 -0.0303 -0.0463  0.4979
  418loPI   C3A 6681  13.760  15.801   9.483  0.0454  0.0195 -0.1254
  418loPI   C4A 6682  13.825  15.774   8.969  0.0348 -0.0762 -0.0319
  418loPI   C5A 6683  13.633  15.817   8.552  0.2117  0.1157 -0.1325
  418loPI   C6A 6684  13.428  15.566   8.290 -0.1088  0.2513  0.0099
  418loPI   C1B 6685  13.281  15.423  10.190 -0.2337  0.0662 -0.0291
  418loPI   C2B 6686  13.361  15.462   9.745  0.0314 -0.1029 -0.0407
  418loPI   C3B 6687  13.371  15.516   9.297  0.0357  0.0328 -0.1898
  418loPI   C4B 6688  13.398  15.457   8.867 -0.0445  0.0344 -0.1139
  419loPI    C1 6689  16.701   0.377  10.921  0.0974  0.1605 -0.0592
  419loPI    C2 6690  16.616   0.686  11.161 -0.3202 -0.1209  0.1678
  419loPI    C3 6691  16.400   0.624  10.830 -0.0521 -0.0100 -0.0320
  419loPI   PO4 6692  17.011   0.448  10.829  0.1910  0.1835 -0.0852
  419loPI   GL1 6693  16.956   0.495  10.451  0.0413  0.0901 -0.1783
  419loPI   GL2 6694  17.255   0.671  10.337 -0.2255  0.1408 -0.2161
  419loPI   C1A 6695  16.782   0.302  10.118  0.0771 -0.3331 -0.2081
  419loPI   C2A 6696  16.939   0.241   9.682  0.2362 -0.0553 -0.1315
  419loPI   C3A 6697  16.863   0.302   9.227  0.0408  0.0685 -0.0238
  419loPI   C4A 6698  16.841   0.333   8.812 -0.0190 -0.0192  0.1793
  419loPI   C5A 6699  16.876   0.587   8.390  0.0431  0.1339 -0.0389
  419loPI   C6A 6700  17.155   0.611   8.042  0.0042 -0.0527  0.0238
  419loPI   C1B 6701  17.262   0.494   9.936 -0.0614 -0.2240  0.1612
  419loPI   C2B 6702  17.247   0.545   9.436 -0.2426 -0.1018 -0.1169
  419loPI   C3B 6703  17.196   0.617   9.019  0.2818  0.1381 -0.0753
  419loPI   C4B 6704  17.305   0.452   8.650  0.2629 -0.2901 -0.0036
  420loPI    C1 6705  12.865   2.744  11.060  0.1564 -0.1209  0.0772
  420loPI    C2 6706  12.892   2.353  11.141  0.0049 -0.1488 -0.0039
  420loPI    C3 6707  12.886   2.620  11.440 -0.0226 -0.2171  0.0566
  420loPI   PO4 6708  13.003   2.730  10.813 -0.0532 -0.1974  0.2696
  420loPI   GL1 6709  13.037   2.745  10.419  0.1585 -0.0694 -0.1057
  420loPI   GL2 6710  12.764   2.715  10.324  0.2596  0.2521 -0.1483
  420loPI   C1A 6711  13.072   2.533   9.991  0.3408  0.1657  0.1019
  420loPI   C2A 6712  13.001   2.513   9.574  0.1212 -0.3312 -0.1326
  420loPI   C3A 6713  12.993   2.477   9.164 -0.0353 -0.1902 -0.3078
  420loPI   C4A 6714  13.086   2.495   8.680  0.3868 -0.1929  0.0044
  420loPI   C5A 6715  13.224   2.767   8.292  0.2216 -0.0712  0.0086
  420loPI   C6A 6716  13.110   2.766   7.889  0.0624  0.0425 -0.1406
  420loPI   C1B 6717  12.634   2.736   9.839 -0.1075  0.0214 -0.1654
  420loPI   C2B 6718  12.599   2.723   9.339  0.0309  0.2025  0.2279
  420loPI   C3B 6719  12.648   2.701   8.951 -0.1008  0.0176 -0.2906
  420loPI   C4B 6720  12.692   2.740   8.574 -0.0380 -0.1408 -0.0556
  421loPI    C1 6721  13.055  16.062  11.467  0.1406  0.1002 -0.0503
  421loPI    C2 6722  12.834  16.144  11.791 -0.0064  0.1679 -0.1662
  421loPI    C3 6723  13.098  16.413  11.655  0.0425  0.1467 -0.1137
  421loPI   PO4 6724  13.006  16.039  11.207 -0.0364  0.0394 -0.1122
  421loPI   GL1 6725  13.137  15.937  10.820 -0.0122  0.1889 -0.0473
  421loPI   GL2 6726  12.889  16.040  10.692  0.2621 -0.0113  0.0613
  421loPI   C1A 6727  13.313  15.893  10.408 -0.1569 -0.1962  0.0461
  421loPI   C2A 6728  13.200  15.910  10.007  0.1220 -0.3538  0.1832
  421loPI   C3A 6729  13.287  15.962   9.617 -0.0990 -0.0040 -0.0396
  421loPI   C4A 6730  13.294  15.976   9.198  0.2153 -0.2554  0.1323
  421loPI   C5A 6731  13.373  16.204   8.809  0.0705  0.0934  0.2472
  421loPI   C6A 6732  13.829  16.276   8.739 -0.1664 -0.1412 -0.2391
  421loPI   C1B 6733  12.763  16.086  10.219 -0.2386 -0.2813  0.2086
  421loPI   C2B 6734  12.808  16.106   9.707  0.3919  0.1212  0.1405
  421loPI   C3B 6735  12.816  16.270   9.310  0.0960  0.0804 -0.1741
  421loPI   C4B 6736  12.817  16.145   8.889 -0.0786  0.2831  0.0597
  422loPI    C1 6737   3.115  16.120  11.137 -0.1740  0.0185 -0.1065
  422loPI    C2 6738   3.314  16.280  11.444 -0.0945 -0.2309 -0.0257
  422loPI    C3 6739   2.980  16.070  11.510 -0.1864 -0.1191 -0.1291
  422loPI   PO4 6740   3.147  16.335  10.974 -0.1585 -0.2677  0.3468
  422loPI   GL1 6741   3.139  16.594  10.663 -0.0388 -0.1499 -0.2050
  422loPI   GL2 6742   2.775  16.502  10.595  0.5862  0.2333  0.2363
  422loPI   C1A 6743   3.195  16.673  10.287 -0.0655  0.0306 -0.0502
  422loPI   C2A 6744   3.184  16.679   9.891  0.0445  0.3925  0.1352
  422loPI   C3A 6745   3.227  16.673   9.423 -0.1291 -0.2419 -0.1539
  422loPI   C4A 6746   3.106  16.697   9.022 -0.3859 -0.1886  0.2437
  422loPI   C5A 6747   3.077  16.677   8.553 -0.1505  0.1110 -0.2189
  422loPI   C6A 6748   2.775  16.879   8.283  0.1068  0.2318  0.0735
  422loPI   C1B 6749   2.738  16.400  10.173 -0.2073 -0.1208 -0.3308
  422loPI   C2B 6750   2.763  16.343   9.770  0.2098 -0.2222  0.0229
  422loPI   C3B 6751   2.751  16.375   9.383  0.0939  0.1091  0.2400
  422loPI   C4B 6752   2.703  16.374   8.916 -0.3843 -0.1966 -0.0963
  423loPI    C1 6753   4.790  16.312  11.157  0.3983 -0.1635  0.2999
  423loPI    C2 6754   4.527  16.457  11.421  0.2269  0.0818  0.0009
  423loPI    C3 6755   4.679  16.090  11.471 -0.2165 -0.0887  0.1472
  423loPI   PO4 6756   4.648  16.369  10.956  0.0935  0.0910 -0.1123
  423loPI   GL1 6757   4.473  16.204  10.603  0.2814  0.4762  0.0083
  423loPI   GL2 6758   4.516  15.978  10.395 -0.2222 -0.2648  0.1489
  423loPI   C1A 6759   4.920  16.275  10.371  0.0141  0.1917 -0.1659
  423loPI   C2A 6760   5.059  16.399   9.936  0.1947  0.3531 -0.1601
  423loPI   C3A 6761   5.026  16.359   9.488 -0.2524  0.0794 -0.1261
  423loPI   C4A 6762   4.985  16.278   9.078 -0.1566 -0.2021  0.1356
  423loPI   C5A 6763   5.058  16.370   8.647  0.0584 -0.0609 -0.0639
  423loPI   C6A 6764   5.024  16.381   8.177  0.0394  0.0493 -0.1955
  423loPI   C1B 6765   4.569  16.090   9.984 -0.0278  0.0568 -0.2637
  423loPI   C2B 6766   4.610  16.056   9.542 -0.0694 -0.1907 -0.1849
  423loPI   C3B 6767   4.589  15.987   9.084 -0.0328  0.0832  0.1028
  423loPI   C4B 6768   4.585  16.146   8.562  0.1248  0.1642  0.1648
  424loPI    C1 6769   8.457   8.714  10.830 -0.3902 -0.0284  0.0554
  424loPI    C2 6770   8.464   9.003  11.106 -0.1026  0.1503 -0.1339
  424loPI    C3 6771   8.330   8.639  11.202 -0.1700  0.2573  0.1926
  424loPI   PO4 6772   8.661   8.691  10.778  0.0767  0.2716  0.5105
  424loPI   GL1 6773   8.602   8.722  10.314 -0.0243  0.0666 -0.1353
  424loPI   GL2 6774   8.373   8.953  10.211 -0.0419  0.0761  0.3484
  424loPI   C1A 6775   8.464   8.410   9.954 -0.0962  0.2999  0.1385
  424loPI   C2A 6776   8.464   8.374   9.491  0.1960 -0.0784 -0.0042
  424loPI   C3A 6777   8.333   8.333   9.055 -0.1435 -0.1462 -0.2507
  424loPI   C4A 6778   8.477   8.574   8.710  0.2597  0.3038 -0.0842
  424loPI   C5A 6779   8.487   8.478   8.243  0.0588  0.1018  0.1937
  424loPI   C6A 6780   8.324   8.243   7.812 -0.1527 -0.0009  0.0652
  424loPI   C1B 6781   8.224   8.943   9.767  0.1579 -0.1454 -0.0990
  424loPI   C2B 6782   7.990   8.689   9.318 -0.1299  0.0255  0.2044
  424loPI   C3B 6783   7.972   8.594   8.867 -0.1849  0.4902 -0.0252
  424loPI   C4B 6784   8.003   8.480   8.471 -0.0452 -0.0991  0.0908
  425loPI    C1 6785   4.229  14.382  11.223 -0.0026 -0.2533 -0.0797
  425loPI    C2 6786   4.272  14.349  11.619  0.0510  0.2519 -0.0361
  425loPI    C3 6787   4.595  14.371  11.384  0.0190 -0.0147 -0.1086
  425loPI   PO4 6788   4.161  14.187  11.040  0.0153  0.0619  0.1304
  425loPI   GL1 6789   4.014  14.339  10.582 -0.1294 -0.4094  0.3304
  425loPI   GL2 6790   4.275  14.214  10.455  0.3776 -0.1697  0.0997
  425loPI   C1A 6791   3.842  14.434  10.176  0.4023 -0.0226 -0.0013
  425loPI   C2A 6792   3.851  14.430   9.712 -0.0472 -0.1497  0.1639
  425loPI   C3A 6793   3.880  14.406   9.293 -0.3419  0.2756  0.2624
  425loPI   C4A 6794   3.766  14.410   8.868  0.1413  0.1136 -0.0379
  425loPI   C5A 6795   3.824  14.385   8.470  0.1699  0.0694  0.1981
  425loPI   C6A 6796   4.061  14.228   8.143 -0.0154  0.1287  0.1118
  425loPI   C1B 6797   4.280  14.249  10.084  0.2864  0.2827 -0.1498
  425loPI   C2B 6798   4.294  14.197   9.692 -0.2323  0.2951  0.3237
  425loPI   C3B 6799   4.262  14.120   9.247 -0.1309  0.2319  0.3579
  425loPI   C4B 6800   4.308  14.206   8.896  0.0089 -0.0292 -0.1721
  426loPI    C1 6801   3.875   9.636  11.478  0.0958  0.1248  0.0968
  426loPI    C2 6802   4.015   9.376  11.748  0.1046  0.1413  0.1081
  426loPI    C3 6803   4.237   9.691  11.639  0.2061 -0.0021 -0.1053
  426loPI   PO4 6804   3.705   9.482  11.266 -0.3327 -0.3753  0.2873
  426loPI   GL1 6805   3.685   9.638  10.877  0.1847  0.0315 -0.3686
  426loPI   GL2 6806   3.459   9.601  10.842 -0.0186 -0.4297  0.0298
  426loPI   C1A 6807   3.891   9.501  10.573 -0.1080 -0.2205  0.0478
  426loPI   C2A 6808   3.781   9.472  10.078 -0.1304 -0.0762 -0.3493
  426loPI   C3A 6809   3.828   9.557   9.702 -0.1625 -0.2968 -0.1192
  426loPI   C4A 6810   3.819   9.473   9.291  0.4672 -0.3062  0.1022
  426loPI   C5A 6811   4.014   9.407   8.866  0.1429  0.0343 -0.0284
  426loPI   C6A 6812   3.908   9.231   8.517  0.1641  0.1357 -0.0095
  426loPI   C1B 6813   3.360   9.705  10.473  0.2088 -0.1349 -0.1311
  426loPI   C2B 6814   3.349   9.774   9.977 -0.2486  0.2348  0.1699
  426loPI   C3B 6815   3.324   9.734   9.552  0.2282  0.0120  0.1185
  426loPI   C4B 6816   3.307   9.637   9.162  0.0174 -0.0882  0.0601
  427loPI    C1 6817   8.754   7.040  10.973  0.2538 -0.0252 -0.0534
  427loPI    C2 6818   8.887   7.406  11.066  0.4894 -0.0434 -0.3083
  427loPI    C3 6819   8.966   7.097  11.308 -0.0972  0.1450  0.1454
  427loPI   PO4 6820   8.800   7.042  10.778 -0.4224 -0.0241 -0.1894
  427loPI   GL1 6821   8.782   6.875  10.366  0.0049  0.0789  0.1164
  427loPI   GL2 6822   8.913   6.676  10.245 -0.1936  0.2467  0.2643
  427loPI   C1A 6823   8.566   6.853  10.037  0.1265  0.0336 -0.0206
  427loPI   C2A 6824   8.611   6.828   9.639 -0.0118 -0.0026  0.1861
  427loPI   C3A 6825   8.576   6.880   9.184 -0.0740  0.2734 -0.0029
  427loPI   C4A 6826   8.590   6.795   8.788  0.0417 -0.0625  0.0963
  427loPI   C5A 6827   8.657   6.909   8.366 -0.5113 -0.1826  0.1375
  427loPI   C6A 6828   8.911   6.783   7.965 -0.1266 -0.1823 -0.3966
  427loPI   C1B 6829   8.989   6.554   9.813  0.0918  0.0591 -0.2032
  427loPI   C2B 6830   9.090   6.614   9.390 -0.1504 -0.3018  0.0948
  427loPI   C3B 6831   9.051   6.585   8.922 -0.0908 -0.0683 -0.1121
  427loPI   C4B 6832   8.999   6.608   8.525 -0.3909  0.0955  0.1878
  428loPI    C1 6833   5.551   9.730  11.557 -0.1442  0.1561 -0.1264
  428loPI    C2 6834   5.647  10.115  11.609 -0.1315  0.1428 -0.0507
  428loPI    C3 6835   5.770   9.840  11.873 -0.1979  0.0962 -0.0680
  428loPI   PO4 6836   5.632   9.720  11.238 -0.2977 -0.1829 -0.0960
  428loPI   GL1 6837   5.596   9.493  10.831 -0.0704 -0.0053  0.2535
  428loPI   GL2 6838   5.665   9.217  10.789  0.3647 -0.4590 -0.0355
  428loPI   C1A 6839   5.298   9.825  10.598 -0.1206 -0.1704  0.2312
  428loPI   C2A 6840   5.098   9.868  10.208  0.0453 -0.0114  0.0436
  428loPI   C3A 6841   4.763   9.959   9.920 -0.1312 -0.2068 -0.1003
  428loPI   C4A 6842   4.719  10.056   9.484  0.2606  0.0560  0.0072
  428loPI   C5A 6843   4.702  10.200   9.061 -0.0755 -0.1041  0.3550
  428loPI   C6A 6844   4.850  10.242   8.689 -0.2462  0.0155 -0.0706
  428loPI   C1B 6845   5.713   9.177  10.335 -0.0849  0.0471  0.1016
  428loPI   C2B 6846   5.560   9.112   9.868  0.0784 -0.2472 -0.1289
  428loPI   C3B 6847   5.342   9.319   9.549 -0.3223  0.0545 -0.2665
  428loPI   C4B 6848   5.253   9.466   9.100  0.0497 -0.1365 -0.2063
  429loPI    C1 6849   9.482  12.055  11.343 -0.2584  0.0093 -0.0186
  429loPI    C2 6850   9.564  12.290  11.657 -0.0809  0.0496 -0.0939
  429loPI    C3 6851   9.226  12.077  11.649 -0.0463 -0.0179  0.1637
  429loPI   PO4 6852   9.538  12.165  11.191 -0.0022  0.1059  0.0343
  429loPI   GL1 6853   9.501  12.036  10.784  0.0354 -0.2698 -0.1440
  429loPI   GL2 6854   9.792  11.944  10.681 -0.2778 -0.1276  0.0944
  429loPI   C1A 6855   9.341  12.085  10.475 -0.1402 -0.0090 -0.1567
  429loPI   C2A 6856   9.337  12.155  10.013  0.0659 -0.0431  0.1778
  429loPI   C3A 6857   9.300  12.289   9.554 -0.0518  0.0771  0.3342
  429loPI   C4A 6858   9.160  12.100   9.167  0.0083  0.0857  0.2343
  429loPI   C5A 6859   9.148  11.824   8.817 -0.0296 -0.2620 -0.0745
  429loPI   C6A 6860   9.370  11.500   8.637 -0.3399  0.0956  0.0441
  429loPI   C1B 6861   9.779  11.907  10.244 -0.0332  0.1526 -0.1374
  429loPI   C2B 6862   9.756  12.100   9.785  0.4867  0.0151  0.3821
  429loPI   C3B 6863   9.664  12.079   9.349  0.3102  0.0776  0.2310
  429loPI   C4B 6864   9.734  12.164   8.893 -0.0983  0.0117 -0.1667
  430loPI    C1 6865  13.733   1.425  10.805 -0.2112  0.3523 -0.3037
  430loPI    C2 6866  13.477   1.215  10.580 -0.1069 -0.1535  0.0341
  430loPI    C3 6867  13.376   1.320  10.953  0.0395 -0.0403  0.0426
  430loPI   PO4 6868  13.903   1.586  10.611  0.0174 -0.3570  0.1854
  430loPI   GL1 6869  13.914   1.693  10.250  0.2027  0.2720  0.2722
  430loPI   GL2 6870  13.907   1.975  10.173 -0.0238 -0.1044  0.0962
  430loPI   C1A 6871  13.992   1.530   9.801  0.1559  0.1997  0.1871
  430loPI   C2A 6872  14.035   1.518   9.378 -0.1918 -0.2753  0.0125
  430loPI   C3A 6873  13.965   1.506   9.009  0.1026 -0.1247 -0.0136
  430loPI   C4A 6874  13.772   1.400   8.742 -0.1279 -0.2223  0.0363
  430loPI   C5A 6875  13.541   1.364   8.351 -0.2550  0.0077 -0.3475
  430loPI   C6A 6876  13.194   1.036   8.163  0.3534  0.1795  0.1421
  430loPI   C1B 6877  13.904   1.995   9.786 -0.2703 -0.1738  0.1693
  430loPI   C2B 6878  13.908   2.054   9.356 -0.3596 -0.0451  0.1213
  430loPI   C3B 6879  13.964   2.121   8.941  0.1364 -0.0864 -0.1872
  430loPI   C4B 6880  13.938   1.927   8.537  0.1093  0.0092 -0.0272
  431loPI    C1 6881   8.859  10.304  11.066  0.1185  0.0972 -0.3995
  431loPI    C2 6882   8.929   9.912  11.028  0.1626  0.0852 -0.2035
  431loPI    C3 6883   8.555  10.044  11.073  0.1837  0.0223  0.1984
  431loPI   PO4 6884   9.027  10.441  10.883  0.1129 -0.0535  0.0325
  431loPI   GL1 6885   9.230  10.499  10.412 -0.0687 -0.0558  0.0537
  431loPI   GL2 6886   9.210  10.829  10.598  0.0725  0.1606  0.0453
  431loPI   C1A 6887   8.888  10.284  10.126  0.0424  0.0337 -0.2923
  431loPI   C2A 6888   8.914  10.287   9.691 -0.0267  0.1606 -0.1765
  431loPI   C3A 6889   8.951  10.225   9.216 -0.3424 -0.3461 -0.0231
  431loPI   C4A 6890   8.921  10.129   8.742  0.1228  0.1552 -0.1290
  431loPI   C5A 6891   9.254  10.109   8.473  0.1865  0.0392 -0.0371
  431loPI   C6A 6892   9.690   9.947   8.327 -0.4164  0.3967 -0.0151
  431loPI   C1B 6893   9.316  10.759  10.020 -0.1860 -0.0114 -0.3042
  431loPI   C2B 6894   9.195  10.679   9.635 -0.1309 -0.1661 -0.2505
  431loPI   C3B 6895   9.244  10.794   9.219  0.0479 -0.2007  0.1336
  431loPI   C4B 6896   9.209  10.554   8.884  0.1035  0.0640 -0.0201
  432loPI    C1 6897   3.889   2.253  11.120 -0.0977  0.3646 -0.0872
  432loPI    C2 6898   4.167   2.428  11.350 -0.0585  0.0884  0.0796
  432loPI    C3 6899   3.809   2.336  11.503  0.0314 -0.2642  0.0866
  432loPI   PO4 6900   3.934   2.342  10.900  0.4543 -0.3132  0.2842
  432loPI   GL1 6901   4.183   2.518  10.581  0.1559 -0.2633 -0.1731
  432loPI   GL2 6902   3.972   2.692  10.493 -0.0455 -0.0155  0.0445
  432loPI   C1A 6903   4.099   2.300  10.203  0.0072  0.0477  0.0980
  432loPI   C2A 6904   4.146   2.405   9.866 -0.0571 -0.1119  0.1503
  432loPI   C3A 6905   4.195   2.463   9.530 -0.0615  0.2366  0.1530
  432loPI   C4A 6906   4.102   2.309   9.100 -0.2214 -0.0678  0.0018
  432loPI   C5A 6907   4.266   2.305   8.695 -0.0177  0.0384 -0.2262
  432loPI   C6A 6908   4.337   2.489   8.358  0.1605 -0.0561 -0.1730
  432loPI   C1B 6909   4.113   2.877  10.084 -0.0851 -0.2645 -0.1470
  432loPI   C2B 6910   4.112   2.992   9.705 -0.0528 -0.0042  0.2562
  432loPI   C3B 6911   4.125   2.935   9.182 -0.0784 -0.0113  0.2702
  432loPI   C4B 6912   4.167   2.822   8.687  0.0245  0.0119 -0.2707
  433loPI    C1 6913  11.364  13.946  11.295 -0.0211  0.0196  0.3368
  433loPI    C2 6914  11.632  13.718  11.486 -0.0628 -0.1511  0.1944
  433loPI    C3 6915  11.241  13.651  11.537 -0.0766 -0.0398  0.2372
  433loPI   PO4 6916  11.422  13.912  11.019  0.0866  0.1564 -0.0589
  433loPI   GL1 6917  11.708  13.984  10.616  0.0997 -0.0790 -0.2117
  433loPI   GL2 6918  11.611  13.647  10.660 -0.1120  0.1729  0.5597
  433loPI   C1A 6919  11.674  14.040  10.149 -0.1932  0.1948  0.2867
  433loPI   C2A 6920  11.679  14.193   9.685  0.1836  0.0520 -0.2332
  433loPI   C3A 6921  11.716  14.172   9.296  0.1143  0.2294 -0.0551
  433loPI   C4A 6922  11.578  14.213   8.845  0.0809 -0.1261 -0.0755
  433loPI   C5A 6923  11.555  13.959   8.515  0.0617  0.0111 -0.0202
  433loPI   C6A 6924  11.532  13.624   8.312  0.1112 -0.0808 -0.3415
  433loPI   C1B 6925  11.763  13.568  10.323 -0.0766  0.0130 -0.0529
  433loPI   C2B 6926  11.764  13.640   9.862  0.2560  0.2619 -0.4195
  433loPI   C3B 6927  11.720  13.627   9.525  0.2351 -0.0140  0.0820
  433loPI   C4B 6928  11.808  13.749   9.043  0.1729 -0.0461 -0.0181
  434loPI    C1 6929   5.017   4.749  11.133  0.1283 -0.0859 -0.0867
  434loPI    C2 6930   4.749   4.566  11.367 -0.0466  0.1175 -0.1241
  434loPI    C3 6931   5.127   4.435  11.356 -0.0524  0.0626  0.2188
  434loPI   PO4 6932   4.867   4.740  10.877 -0.0560 -0.1355 -0.0906
  434loPI   GL1 6933   4.818   4.497  10.536  0.3208  0.0004  0.0603
  434loPI   GL2 6934   4.472   4.675  10.452 -0.0829 -0.2178 -0.3249
  434loPI   C1A 6935   4.801   4.606  10.054  0.0721  0.1339  0.1959
  434loPI   C2A 6936   4.772   4.570   9.580  0.0035  0.2667  0.0581
  434loPI   C3A 6937   4.909   4.584   9.210 -0.0885  0.2597 -0.3438
  434loPI   C4A 6938   4.865   4.537   8.778  0.2192  0.1350 -0.0032
  434loPI   C5A 6939   4.573   4.688   8.410 -0.0537  0.1994  0.0881
  434loPI   C6A 6940   4.161   4.646   8.273 -0.1628  0.2213  0.1714
  434loPI   C1B 6941   4.225   4.833  10.069  0.0548 -0.1438 -0.0342
  434loPI   C2B 6942   4.320   4.856   9.717 -0.0094 -0.0401  0.2007
  434loPI   C3B 6943   4.348   4.788   9.322  0.2357 -0.1038 -0.1044
  434loPI   C4B 6944   4.431   4.712   8.910  0.0942 -0.0794 -0.1276
  435loPI    C1 6945   8.685   8.249  11.076 -0.0812 -0.2008 -0.2171
  435loPI    C2 6946   8.830   7.881  11.016 -0.0718 -0.2187 -0.0883
  435loPI    C3 6947   8.894   8.067  11.364 -0.0223 -0.0696 -0.1761
  435loPI   PO4 6948   8.387   8.172  11.016  0.0772 -0.1814 -0.0944
  435loPI   GL1 6949   8.122   8.208  10.608 -0.0858  0.5210 -0.0391
  435loPI   GL2 6950   8.213   8.503  10.460 -0.0773 -0.2378 -0.1708
  435loPI   C1A 6951   8.067   8.136  10.162 -0.1408  0.0090  0.1700
  435loPI   C2A 6952   8.011   8.081   9.741 -0.1785  0.0909  0.1572
  435loPI   C3A 6953   7.977   8.117   9.309 -0.2550 -0.4257  0.0675
  435loPI   C4A 6954   7.943   8.111   8.850  0.0961  0.0551 -0.0965
  435loPI   C5A 6955   7.971   7.982   8.392  0.0948 -0.1610 -0.1867
  435loPI   C6A 6956   8.260   7.682   8.180  0.0148 -0.0179 -0.2960
  435loPI   C1B 6957   8.006   8.577  10.047  0.1311  0.0361 -0.0390
  435loPI   C2B 6958   7.661   8.792   9.735  0.0656 -0.2974 -0.4974
  435loPI   C3B 6959   7.496   8.872   9.347  0.1140 -0.0350 -0.0754
  435loPI   C4B 6960   7.487   8.839   8.905  0.2154 -0.2316  0.0312
  436loPI    C1 6961  12.310   2.995  11.196 -0.1321 -0.2555 -0.1762
  436loPI    C2 6962  12.406   2.626  11.320 -0.1783 -0.2348 -0.0775
  436loPI    C3 6963  12.079   2.806  11.463  0.0650  0.0069  0.1894
  436loPI   PO4 6964  12.445   2.930  10.938 -0.3030 -0.1619 -0.0302
  436loPI   GL1 6965  12.387   2.931  10.485  0.1046 -0.1690  0.1896
  436loPI   GL2 6966  12.203   2.753  10.530  0.1932 -0.2257  0.0860
  436loPI   C1A 6967  12.143   3.000  10.057 -0.0451 -0.0155 -0.1031
  436loPI   C2A 6968  12.188   2.918   9.661  0.0610 -0.0113  0.0971
  436loPI   C3A 6969  12.156   2.885   9.058  0.0535 -0.0437  0.5178
  436loPI   C4A 6970  12.190   2.772   8.593  0.2193 -0.0287 -0.0657
  436loPI   C5A 6971  12.231   2.374   8.446 -0.3875 -0.1074 -0.0224
  436loPI   C6A 6972  12.391   2.001   8.466 -0.2857  0.2713  0.3504
  436loPI   C1B 6973  12.303   2.502  10.206  0.1814 -0.3252 -0.0736
  436loPI   C2B 6974  12.197   2.465   9.823 -0.1661  0.0492 -0.0655
  436loPI   C3B 6975  12.162   2.425   9.381  0.0212  0.0940  0.1047
  436loPI   C4B 6976  12.182   2.293   8.923  0.1335 -0.0772  0.0417
  437loPI    C1 6977   9.119   8.965  10.702  0.0080  0.1387 -0.0259
  437loPI    C2 6978   8.953   9.125  11.029  0.0347 -0.0484  0.0812
  437loPI    C3 6979   9.343   9.039  11.025  0.0199 -0.1142  0.0258
  437loPI   PO4 6980   9.085   9.018  10.504  0.0650 -0.1883  0.0080
  437loPI   GL1 6981   9.250   9.050  10.008  0.0644 -0.1905  0.0767
  437loPI   GL2 6982   8.914   9.028  10.055 -0.1760 -0.0272  0.1830
  437loPI   C1A 6983   9.197   8.984   9.545  0.0921 -0.0206 -0.1601
  437loPI   C2A 6984   9.334   8.780   9.265  0.1756 -0.1066  0.2220
  437loPI   C3A 6985   9.322   8.640   8.876 -0.1969  0.0045 -0.1149
  437loPI   C4A 6986   9.324   8.273   8.661 -0.0728  0.0211 -0.2024
  437loPI   C5A 6987   9.575   8.196   8.279 -0.1069 -0.0315  0.3698
  437loPI   C6A 6988   9.973   8.318   7.864 -0.1156 -0.2189 -0.1429
  437loPI   C1B 6989   8.707   8.896   9.675 -0.0119 -0.0999 -0.1219
  437loPI   C2B 6990   8.461   8.807   9.226  0.2213  0.1785 -0.0736
  437loPI   C3B 6991   8.395   9.009   8.826 -0.1090 -0.2447 -0.0175
  437loPI   C4B 6992   8.278   8.921   8.447 -0.3411 -0.1763  0.2943
  438loPI    C1 6993  14.239  13.021  11.308  0.1354  0.1477 -0.1024
  438loPI    C2 6994  14.097  12.686  11.473 -0.2481  0.3082 -0.0966
  438loPI    C3 6995  14.311  12.942  11.693 -0.3548  0.2928  0.0257
  438loPI   PO4 6996  14.315  12.967  11.094  0.5942  0.1336  0.2293
  438loPI   GL1 6997  14.550  12.771  10.784  0.3563  0.0018  0.2128
  438loPI   GL2 6998  14.650  12.530  10.720 -0.3461  0.4074 -0.1807
  438loPI   C1A 6999  14.562  13.037  10.466  0.2610  0.1211  0.0173
  438loPI   C2A 7000  14.598  13.057   9.999  0.0118  0.1523  0.1857
  438loPI   C3A 7001  14.521  13.099   9.590  0.2147  0.0408  0.1118
  438loPI   C4A 7002  14.630  13.065   9.154  0.0191  0.3530  0.0988
  438loPI   C5A 7003  14.346  13.100   8.715  0.1815 -0.0559 -0.1158
  438loPI   C6A 7004  14.056  13.363   8.411 -0.0880  0.2194  0.2280
  438loPI   C1B 7005  14.558  12.515  10.301  0.0819 -0.2769  0.0247
  438loPI   C2B 7006  14.648  12.586   9.879  0.2038 -0.1906 -0.0354
  438loPI   C3B 7007  14.625  12.622   9.484 -0.0993  0.0009 -0.2078
  438loPI   C4B 7008  14.586  12.515   9.142  0.2889 -0.2950  0.2176
  439loPI    C1 7009  11.746   4.800  10.538 -0.1304  0.1167  0.1674
  439loPI    C2 7010  11.590   4.896  10.894 -0.0874 -0.0274  0.2258
  439loPI    C3 7011  11.861   4.603  10.867 -0.2448 -0.1582  0.0448
  439loPI   PO4 7012  11.947   5.040  10.395 -0.1539  0.0004  0.2554
  439loPI   GL1 7013  11.963   5.067  10.052 -0.1395  0.2512  0.0560
  439loPI   GL2 7014  12.124   5.328   9.993  0.1975  0.1864  0.4994
  439loPI   C1A 7015  11.904   4.978   9.685 -0.0732  0.4802  0.2908
  439loPI   C2A 7016  11.865   4.956   9.277 -0.0070 -0.1458  0.0102
  439loPI   C3A 7017  11.979   4.872   8.753 -0.1888 -0.1689  0.0060
  439loPI   C4A 7018  11.983   5.031   8.354 -0.1522 -0.1702  0.2771
  439loPI   C5A 7019  12.266   5.065   8.021  0.0778  0.0514  0.1434
  439loPI   C6A 7020  12.388   5.453   7.863  0.2534 -0.1059 -0.2078
  439loPI   C1B 7021  12.307   5.255   9.544 -0.0375  0.2913 -0.0312
  439loPI   C2B 7022  12.223   5.342   9.147 -0.0351 -0.0224 -0.1522
  439loPI   C3B 7023  12.267   5.243   8.811  0.1401  0.1129  0.0593
  439loPI   C4B 7024  12.338   5.354   8.499 -0.4123  0.1208  0.0734
  440loPI    C1 7025   9.083   0.475  11.359 -0.0276  0.0709  0.0105
  440loPI    C2 7026   9.382   0.726  11.447 -0.0753  0.1172  0.0418
  440loPI    C3 7027   9.462   0.363  11.298 -0.0069  0.1596 -0.0257
  440loPI   PO4 7028   8.942   0.591  11.218  0.1422  0.0710  0.0363
  440loPI   GL1 7029   8.817   0.584  10.874  0.2305 -0.0307  0.1650
  440loPI   GL2 7030   8.875   0.803  10.718  0.0097  0.0984  0.0351
  440loPI   C1A 7031   8.556   0.571  10.428  0.1213  0.0438  0.2740
  440loPI   C2A 7032   8.411   0.493  10.068  0.0479 -0.2893 -0.3391
  440loPI   C3A 7033   8.449   0.547   9.677 -0.0891 -0.1917 -0.0953
  440loPI   C4A 7034   8.442   0.533   9.192 -0.2057  0.0247 -0.1629
  440loPI   C5A 7035   8.542   0.443   8.826  0.2734 -0.2425 -0.1760
  440loPI   C6A 7036   8.397   0.682   8.537  0.0452  0.0020  0.1535
  440loPI   C1B 7037   8.905   0.923  10.374 -0.3368  0.1399  0.0423
  440loPI   C2B 7038   8.800   0.847  10.040 -0.0930 -0.2165  0.0965
  440loPI   C3B 7039   8.860   0.848   9.648 -0.1685 -0.1480 -0.0021
  440loPI   C4B 7040   8.828   0.841   9.203  0.0929 -0.1113 -0.1404
  441loPI    C1 7041   8.483  11.900  11.144  0.1786 -0.3145 -0.0090
  441loPI    C2 7042   8.656  12.203  11.338  0.0152 -0.0718 -0.2351
  441loPI    C3 7043   8.524  11.884  11.541  0.0143  0.0935  0.0289
  441loPI   PO4 7044   8.609  11.926  10.952 -0.0866  0.0531  0.1188
  441loPI   GL1 7045   8.686  12.180  10.653 -0.0982  0.2115 -0.1804
  441loPI   GL2 7046   8.426  12.184  10.561  0.0473  0.4496  0.1165
  441loPI   C1A 7047   8.899  12.323  10.322  0.3137  0.1042  0.1064
  441loPI   C2A 7048   8.883  12.338   9.893 -0.0206  0.0569 -0.0644
  441loPI   C3A 7049   8.726  12.388   9.502 -0.1812 -0.0687  0.2506
  441loPI   C4A 7050   8.492  12.375   9.188  0.1701 -0.0612  0.1500
  441loPI   C5A 7051   8.339  12.415   8.718 -0.1968  0.2325 -0.2408
  441loPI   C6A 7052   8.269  12.552   8.286  0.0230  0.2127  0.1579
  441loPI   C1B 7053   8.589  12.019  10.137  0.1460 -0.0792  0.0901
  441loPI   C2B 7054   8.361  12.037   9.757 -0.1808 -0.2417  0.1590
  441loPI   C3B 7055   8.241  12.037   9.377  0.3900 -0.0209 -0.2522
  441loPI   C4B 7056   8.259  11.961   8.974 -0.3079  0.5876  0.2718
  442loPI    C1 7057   8.425  14.242  11.023  0.2309 -0.2309  0.0234
  442loPI    C2 7058   8.579  14.474  11.310 -0.0639  0.0585 -0.0468
  442loPI    C3 7059   8.310  14.194  11.403  0.2326 -0.2071  0.0269
  442loPI   PO4 7060   8.584  14.222  10.852 -0.0261 -0.0100  0.0552
  442loPI   GL1 7061   8.569  14.045  10.506  0.0378  0.0856  0.0334
  442loPI   GL2 7062   8.469  13.849  10.298 -0.1745  0.1261  0.1908
  442loPI   C1A 7063   8.334  14.271  10.231  0.2254  0.1534  0.3544
  442loPI   C2A 7064   8.455  14.390   9.737  0.2829  0.2679 -0.2057
  442loPI   C3A 7065   8.414  14.447   9.318 -0.0192  0.1908 -0.0981
  442loPI   C4A 7066   8.492  14.556   8.864  0.1060 -0.2192 -0.2984
  442loPI   C5A 7067   8.171  14.653   8.671 -0.0309  0.3064 -0.2986
  442loPI   C6A 7068   7.726  14.881   8.589 -0.0076 -0.1114  0.0538
  442loPI   C1B 7069   8.373  13.871   9.917 -0.0902  0.0359 -0.1835
  442loPI   C2B 7070   8.277  13.911   9.458 -0.0048  0.0170 -0.6222
  442loPI   C3B 7071   8.483  14.018   9.015 -0.1183 -0.0434 -0.4557
  442loPI   C4B 7072   8.271  14.098   8.561 -0.1486  0.0081  0.1377
  443loPI    C1 7073  14.351  15.997  10.794  0.0385 -0.2313  0.1605
  443loPI    C2 7074  14.226  15.986  11.174  0.0081 -0.1628  0.1527
  443loPI    C3 7075  13.962  15.953  10.876  0.0072 -0.0128  0.1361
  443loPI   PO4 7076  14.502  16.279  10.770  0.1115  0.2133 -0.0461
  443loPI   GL1 7077  14.499  16.446  10.398  0.1963 -0.0979  0.1443
  443loPI   GL2 7078  14.840  16.384  10.380  0.2562  0.0364 -0.4336
  443loPI   C1A 7079  14.209  16.523  10.072  0.1165  0.1388  0.1355
  443loPI   C2A 7080  14.149  16.525   9.572  0.2993 -0.3100  0.2170
  443loPI   C3A 7081  14.191  16.575   9.148  0.2942  0.5717 -0.0352
  443loPI   C4A 7082  14.209  16.748   8.695  0.0362 -0.3374 -0.1037
  443loPI   C5A 7083  14.321  16.524   8.407  0.1334 -0.2258 -0.0517
  443loPI   C6A 7084  14.694  16.625   8.190  0.2726  0.0707 -0.2732
  443loPI   C1B 7085  15.049  16.252   9.941  0.2019  0.0458  0.0124
  443loPI   C2B 7086  15.153  16.229   9.529  0.0972 -0.0226 -0.0205
  443loPI   C3B 7087  15.282  16.403   9.115 -0.0705 -0.0909  0.1332
  443loPI   C4B 7088  15.250  16.387   8.727  0.0962  0.0660  0.0821
  444loPI    C1 7089  12.638   5.091  10.989 -0.1027 -0.0145  0.1768
  444loPI    C2 7090  12.960   5.118  11.225 -0.0388 -0.1121  0.1015
  444loPI    C3 7091  12.688   5.411  11.224 -0.0317 -0.1035  0.2843
  444loPI   PO4 7092  12.751   5.056  10.680 -0.1030 -0.0169  0.3318
  444loPI   GL1 7093  12.780   5.002  10.248  0.2144 -0.0546 -0.0380
  444loPI   GL2 7094  12.431   4.901  10.237 -0.2290  0.2851 -0.1202
  444loPI   C1A 7095  12.871   4.969   9.822  0.0407 -0.0996  0.1960
  444loPI   C2A 7096  12.790   4.992   9.417 -0.0176  0.0743  0.1827
  444loPI   C3A 7097  12.789   5.097   9.030 -0.0780  0.1114  0.3248
  444loPI   C4A 7098  12.802   5.046   8.608 -0.0335 -0.0701  0.1366
  444loPI   C5A 7099  12.763   5.112   8.096  0.0253 -0.0121  0.1092
  444loPI   C6A 7100  12.731   5.106   7.701 -0.1401 -0.0602 -0.0969
  444loPI   C1B 7101  12.395   4.757   9.784 -0.1136 -0.0174 -0.1532
  444loPI   C2B 7102  12.306   4.752   9.372  0.1948  0.1287  0.0109
  444loPI   C3B 7103  12.428   4.755   8.940 -0.1317 -0.0291 -0.0144
  444loPI   C4B 7104  12.393   4.771   8.496  0.1438 -0.1425  0.0546
  445loPI    C1 7105   4.306   4.764  11.317  0.1825  0.1585  0.1732
  445loPI    C2 7106   4.076   4.593  11.596  0.3499 -0.0617  0.1792
  445loPI    C3 7107   4.315   4.368  11.369  0.3047  0.1289 -0.0617
  445loPI   PO4 7108   4.176   4.917  11.242  0.2077 -0.2838  0.0896
  445loPI   GL1 7109   4.086   5.016  10.844  0.1866 -0.0559 -0.1201
  445loPI   GL2 7110   4.414   5.101  10.817 -0.0255 -0.0017 -0.1369
  445loPI   C1A 7111   3.847   5.000  10.379  0.2868 -0.2510  0.0449
  445loPI   C2A 7112   3.867   5.145  10.007  0.1199 -0.0908  0.0375
  445loPI   C3A 7113   3.865   5.087   9.634  0.1628 -0.0798 -0.3202
  445loPI   C4A 7114   3.826   5.008   9.215  0.1670  0.4869  0.3018
  445loPI   C5A 7115   3.890   4.935   8.795 -0.2108 -0.1738  0.0132
  445loPI   C6A 7116   4.178   5.043   8.571 -0.0938 -0.0636  0.0194
  445loPI   C1B 7117   4.267   5.258  10.426  0.2047 -0.0289  0.0025
  445loPI   C2B 7118   4.318   5.390   9.945  0.0811  0.2425  0.0661
  445loPI   C3B 7119   4.255   5.351   9.487  0.2862 -0.1800  0.0532
  445loPI   C4B 7120   4.276   5.207   9.091  0.2300  0.3013  0.0116
  446loPI    C1 7121   1.363  10.600  11.373 -0.0217 -0.1084 -0.1409
  446loPI    C2 7122   1.114  10.852  11.186 -0.0694  0.0930  0.1860
  446loPI    C3 7123   0.968  10.568  11.428 -0.0016 -0.0829  0.0233
  446loPI   PO4 7124   1.494  10.525  11.125  0.0713  0.0252 -0.3761
  446loPI   GL1 7125   1.652  10.401  10.789  0.2387  0.1249  0.0809
  446loPI   GL2 7126   1.280  10.280  10.663 -0.0423 -0.0817 -0.1542
  446loPI   C1A 7127   1.550  10.606  10.379  0.0706  0.0424  0.0086
  446loPI   C2A 7128   1.609  10.641   9.989 -0.1984  0.0753 -0.0671
  446loPI   C3A 7129   1.541  10.559   9.606 -0.1393 -0.0158 -0.1648
  446loPI   C4A 7130   1.500  10.562   9.149  0.1980  0.0768 -0.1176
  446loPI   C5A 7131   1.463  10.631   8.696 -0.1734 -0.0068  0.3579
  446loPI   C6A 7132   1.613  10.869   8.278  0.5682  0.4241  0.3614
  446loPI   C1B 7133   1.114  10.267  10.230  0.2167 -0.0004 -0.1561
  446loPI   C2B 7134   1.078  10.182   9.795  0.0909  0.1565  0.3879
  446loPI   C3B 7135   1.157  10.231   9.286 -0.2062  0.1260 -0.0266
  446loPI   C4B 7136   1.240  10.219   8.814 -0.3099 -0.0652 -0.0085
  447loPI    C1 7137  15.444   1.937  11.170 -0.0888  0.2647  0.0468
  447loPI    C2 7138  15.410   2.022  11.560  0.3167 -0.0623  0.1613
  447loPI    C3 7139  15.328   1.654  11.427  0.1437  0.0574 -0.0727
  447loPI   PO4 7140  15.386   2.104  11.041  0.1311  0.1916  0.2579
  447loPI   GL1 7141  15.414   2.245  10.531  0.1951  0.0149 -0.0790
  447loPI   GL2 7142  15.692   2.220  10.396  0.1505  0.2784  0.1207
  447loPI   C1A 7143  15.258   2.222  10.140 -0.1346 -0.1357 -0.1604
  447loPI   C2A 7144  15.261   2.412   9.755  0.1216 -0.1754  0.3050
  447loPI   C3A 7145  15.221   2.419   9.276 -0.0713 -0.0052 -0.0990
  447loPI   C4A 7146  15.226   2.505   8.882  0.2535 -0.0730  0.1600
  447loPI   C5A 7147  15.418   2.612   8.480  0.1047 -0.0742 -0.2189
  447loPI   C6A 7148  15.757   2.684   8.381  0.0424 -0.0978 -0.1589
  447loPI   C1B 7149  15.735   2.292   9.946  0.0467 -0.4238  0.2226
  447loPI   C2B 7150  15.694   2.243   9.504  0.2624 -0.0164  0.4469
  447loPI   C3B 7151  15.636   2.171   9.056  0.1302  0.1078  0.1321
  447loPI   C4B 7152  15.790   2.214   8.628  0.0132  0.0448  0.2463
  448loPI    C1 7153  13.215  13.541  11.525  0.1938  0.0532  0.2464
  448loPI    C2 7154  12.820  13.526  11.460  0.2761  0.0269 -0.2972
  448loPI    C3 7155  12.986  13.294  11.741 -0.1124  0.1636  0.0546
  448loPI   PO4 7156  13.337  13.506  11.277  0.0740 -0.1345 -0.0274
  448loPI   GL1 7157  13.285  13.702  10.828 -0.2718  0.3665 -0.1225
  448loPI   GL2 7158  13.007  13.883  10.755  0.2279  0.0846 -0.0156
  448loPI   C1A 7159  13.538  13.489  10.521  0.0039 -0.3089  0.0288
  448loPI   C2A 7160  13.596  13.407  10.115 -0.0426  0.1079 -0.1380
  448loPI   C3A 7161  13.675  13.414   9.581  0.1067 -0.1409 -0.0712
  448loPI   C4A 7162  13.453  13.443   9.156 -0.0919 -0.2208  0.1062
  448loPI   C5A 7163  13.595  13.633   8.839  0.0994  0.0341  0.0791
  448loPI   C6A 7164  13.449  13.958   8.745  0.0141 -0.3543  0.2530
  448loPI   C1B 7165  13.050  14.031  10.334  0.4074 -0.2825 -0.0619
  448loPI   C2B 7166  13.146  14.049   9.878 -0.2500  0.0146  0.0379
  448loPI   C3B 7167  13.052  14.173   9.449 -0.1441 -0.3027 -0.3617
  448loPI   C4B 7168  13.080  14.187   9.003 -0.1033  0.2160 -0.2071
  449loPI    C1 7169  16.638   8.336  11.336  0.1407  0.0102 -0.1969
  449loPI    C2 7170  16.873   8.018  11.400  0.0382 -0.0285 -0.0058
  449loPI    C3 7171  16.931   8.356  11.607  0.0142  0.0085 -0.0591
  449loPI   PO4 7172  16.662   8.427  11.049  0.1966 -0.0257 -0.2521
  449loPI   GL1 7173  16.767   8.407  10.787 -0.3019 -0.1420  0.1264
  449loPI   GL2 7174  16.616   8.157  10.561 -0.1017  0.1767  0.0320
  449loPI   C1A 7175  16.784   8.606  10.423  0.2480  0.1502  0.2793
  449loPI   C2A 7176  16.905   8.679  10.097 -0.0566 -0.3729  0.0828
  449loPI   C3A 7177  16.840   8.741   9.729 -0.0679 -0.1491  0.0711
  449loPI   C4A 7178  16.854   8.671   9.303 -0.1509 -0.3353  0.1868
  449loPI   C5A 7179  16.916   8.729   8.874  0.3815 -0.2921 -0.2228
  449loPI   C6A 7180  16.770   8.727   8.478 -0.0923  0.1108 -0.0662
  449loPI   C1B 7181  16.432   8.383  10.114  0.1033  0.3343 -0.0935
  449loPI   C2B 7182  16.492   8.431   9.679 -0.0417 -0.2133 -0.1522
  449loPI   C3B 7183  16.388   8.368   9.195 -0.0607 -0.2291 -0.0052
  449loPI   C4B 7184  16.386   8.488   8.750 -0.0652  0.0650 -0.1298
  450loPI    C1 7185  12.480  15.741  11.368 -0.4128 -0.1644  0.1700
  450loPI    C2 7186  12.797  15.683  11.605 -0.2196  0.1864  0.0060
  450loPI    C3 7187  12.441  15.770  11.765 -0.1388  0.2091  0.1748
  450loPI   PO4 7188  12.585  15.717  11.054  0.0890 -0.0673 -0.1969
  450loPI   GL1 7189  12.869  15.450  10.775  0.1773  0.2052  0.0481
  450loPI   GL2 7190  12.778  15.174  10.848 -0.1918 -0.1086 -0.2620
  450loPI   C1A 7191  12.828  15.588  10.320  0.1237  0.1166  0.1802
  450loPI   C2A 7192  12.824  15.637   9.789 -0.0064  0.0930 -0.1605
  450loPI   C3A 7193  12.876  15.615   9.452  0.1652  0.0036 -0.2396
  450loPI   C4A 7194  12.856  15.687   8.972 -0.0472  0.0708  0.1145
  450loPI   C5A 7195  13.080  15.777   8.584 -0.2623 -0.1006 -0.1935
  450loPI   C6A 7196  13.165  16.165   8.369 -0.1354  0.1329  0.0400
  450loPI   C1B 7197  12.488  15.279  10.528 -0.2929  0.2740 -0.2230
  450loPI   C2B 7198  12.375  15.278   9.990 -0.0552 -0.3485 -0.0706
  450loPI   C3B 7199  12.425  15.365   9.538 -0.2666 -0.2052 -0.1064
  450loPI   C4B 7200  12.486  15.358   9.058 -0.2680 -0.0169 -0.1701
  451loPI    C1 7201   4.163   8.757  11.555 -0.1557  0.2702 -0.0547
  451loPI    C2 7202   4.379   9.085  11.633  0.1927  0.0231  0.0479
  451loPI    C3 7203   4.412   8.764  11.868 -0.0553 -0.1296 -0.1210
  451loPI   PO4 7204   4.183   8.666  11.287 -0.1040  0.2394  0.0814
  451loPI   GL1 7205   3.954   8.760  10.931  0.2858 -0.1360  0.1233
  451loPI   GL2 7206   4.100   8.994  10.944  0.1401  0.1606  0.4660
  451loPI   C1A 7207   4.032   8.495  10.538  0.1553 -0.2117 -0.2264
  451loPI   C2A 7208   3.878   8.415  10.190  0.2872 -0.0091  0.1658
  451loPI   C3A 7209   3.958   8.473   9.749 -0.0292  0.1890 -0.3415
  451loPI   C4A 7210   3.988   8.510   9.359 -0.0878  0.0141 -0.0926
  451loPI   C5A 7211   4.117   8.451   8.904  0.0495  0.0668 -0.0990
  451loPI   C6A 7212   4.104   8.465   8.384  0.0922  0.1484  0.1362
  451loPI   C1B 7213   3.962   8.989  10.513 -0.1721 -0.1507  0.0575
  451loPI   C2B 7214   3.889   8.976   9.993  0.1402  0.0949 -0.0145
  451loPI   C3B 7215   3.945   9.062   9.597  0.1129  0.1398 -0.3664
  451loPI   C4B 7216   3.970   8.970   9.150 -0.3676 -0.0552  0.0223
  452loPI    C1 7217  17.281   7.746  11.290  0.2221  0.1760  0.2091
  452loPI    C2 7218  17.401   7.496  11.578  0.1665  0.0742  0.1446
  452loPI    C3 7219  17.248   7.853  11.674  0.1748  0.0526  0.2398
  452loPI   PO4 7220  17.338   7.688  11.017 -0.0331 -0.3146 -0.1885
  452loPI   GL1 7221  17.639   7.479  10.801  0.0977 -0.1182  0.2549
  452loPI   GL2 7222  17.883   7.783  10.623 -0.0572  0.1260  0.3955
  452loPI   C1A 7223  17.491   7.530  10.379  0.0417 -0.0282 -0.0343
  452loPI   C2A 7224  17.417   7.507   9.862  0.1783 -0.0338 -0.0592
  452loPI   C3A 7225  17.479   7.591   9.415  0.1718 -0.1148 -0.0643
  452loPI   C4A 7226  17.389   7.426   9.082 -0.0683  0.1137  0.0568
  452loPI   C5A 7227  17.557   7.490   8.670  0.0172  0.1217 -0.0768
  452loPI   C6A 7228  17.892   7.584   8.373  0.2093  0.0374 -0.0057
  452loPI   C1B 7229  17.854   7.738  10.127 -0.3212  0.0205 -0.0812
  452loPI   C2B 7230  17.870   7.812   9.715  0.0423 -0.0280 -0.2950
  452loPI   C3B 7231  17.858   7.853   9.292 -0.1590 -0.4668 -0.2797
  452loPI   C4B 7232  17.935   7.815   8.841  0.0436 -0.1300 -0.0481
  453loPI    C1 7233   4.347   5.976  11.139  0.2792  0.0204  0.0059
  453loPI    C2 7234   4.334   6.175  11.485 -0.1817  0.1395 -0.0735
  453loPI    C3 7235   4.098   5.857  11.429  0.1395 -0.0886 -0.1568
  453loPI   PO4 7236   4.284   6.101  10.979 -0.0626 -0.2004 -0.2833
  453loPI   GL1 7237   4.475   6.329  10.651 -0.0946  0.2129 -0.0654
  453loPI   GL2 7238   4.231   6.509  10.631 -0.0570 -0.0438 -0.0602
  453loPI   C1A 7239   4.616   6.231  10.215 -0.0028  0.0449  0.1404
  453loPI   C2A 7240   4.735   6.190   9.889 -0.1254  0.0812  0.1624
  453loPI   C3A 7241   4.611   6.135   9.448 -0.0279 -0.0437 -0.0877
  453loPI   C4A 7242   4.596   6.148   8.944 -0.0295  0.0639 -0.0058
  453loPI   C5A 7243   4.617   6.215   8.504  0.1644 -0.0189  0.2163
  453loPI   C6A 7244   4.689   6.277   8.157 -0.0259 -0.0436 -0.0420
  453loPI   C1B 7245   4.191   6.506  10.152  0.3918 -0.0257  0.0166
  453loPI   C2B 7246   4.192   6.411   9.709  0.2780  0.1621  0.1727
  453loPI   C3B 7247   4.166   6.338   9.216  0.3066  0.3201 -0.0835
  453loPI   C4B 7248   4.140   6.365   8.790 -0.0819 -0.3532  0.0318
  454loPI    C1 7249  10.948  10.268  10.745  0.1059 -0.1889 -0.0250
  454loPI    C2 7250  10.730  10.245  11.080 -0.0436 -0.1753 -0.1203
  454loPI    C3 7251  11.128  10.203  11.097  0.0212  0.4474  0.1476
  454loPI   PO4 7252  10.690  10.363  10.623 -0.2374 -0.0264 -0.1384
  454loPI   GL1 7253  10.610  10.599  10.323 -0.0290  0.1249  0.0665
  454loPI   GL2 7254  10.531  10.931  10.378  0.0386 -0.0709  0.1632
  454loPI   C1A 7255  10.401  10.705   9.918  0.2913  0.0043 -0.1852
  454loPI   C2A 7256  10.278  10.772   9.484 -0.1070  0.2603 -0.2057
  454loPI   C3A 7257  10.192  10.881   9.171  0.1119 -0.1367  0.0333
  454loPI   C4A 7258  10.271  10.989   8.705 -0.0058 -0.0288  0.0077
  454loPI   C5A 7259  10.380  10.804   8.396 -0.0813 -0.1382  0.0867
  454loPI   C6A 7260  10.515  10.558   8.020 -0.0492 -0.0167 -0.0826
  454loPI   C1B 7261  10.331  11.213  10.044  0.0372  0.2766  0.0663
  454loPI   C2B 7262  10.176  11.285   9.640 -0.1342  0.0230 -0.0246
  454loPI   C3B 7263  10.226  11.456   9.195 -0.1031  0.3055  0.1206
  454loPI   C4B 7264  10.110  11.540   8.771  0.4620 -0.0815 -0.2462
  455loPI    C1 7265  17.313   8.251  11.216  0.0287 -0.0707 -0.0391
  455loPI    C2 7266  17.560   8.566  11.208  0.0744 -0.1068 -0.0512
  455loPI    C3 7267  17.413   8.437  11.557  0.0720 -0.0849 -0.0440
  455loPI   PO4 7268  17.172   8.229  10.998  0.0841 -0.3633 -0.0890
  455loPI   GL1 7269  17.163   8.167  10.605  0.0237  0.0703 -0.1022
  455loPI   GL2 7270  17.359   7.960  10.578 -0.1024  0.3333  0.1389
  455loPI   C1A 7271  16.988   8.164  10.195  0.4620 -0.0071  0.1271
  455loPI   C2A 7272  16.917   8.194   9.865  0.1396  0.1121  0.1403
  455loPI   C3A 7273  16.843   8.205   9.456 -0.0796  0.1092 -0.1751
  455loPI   C4A 7274  16.852   8.255   8.983  0.4179 -0.0154  0.0303
  455loPI   C5A 7275  16.699   8.208   8.549  0.0213  0.3378  0.3456
  455loPI   C6A 7276  16.294   8.182   8.344  0.0534 -0.4563  0.0181
  455loPI   C1B 7277  17.447   7.976  10.093  0.0553  0.2733 -0.0102
  455loPI   C2B 7278  17.400   8.033   9.735 -0.0972 -0.1561  0.0143
  455loPI   C3B 7279  17.344   7.977   9.182  0.0434  0.2416 -0.2846
  455loPI   C4B 7280  17.390   8.100   8.787 -0.0991  0.0121  0.1567
  456loPI    C1 7281   9.988   4.268  10.977  0.0226 -0.0054  0.0300
  456loPI    C2 7282   9.707   4.371  11.241  0.1370  0.0652  0.1253
  456loPI    C3 7283   9.698   4.522  10.871 -0.0432 -0.0606  0.0772
  456loPI   PO4 7284  10.010   4.074  10.904  0.2761  0.3485  0.0478
  456loPI   GL1 7285   9.741   3.843  10.440 -0.0555  0.0957  0.2325
  456loPI   GL2 7286   9.989   3.973  10.407  0.0714 -0.1224 -0.2345
  456loPI   C1A 7287   9.741   3.815   9.961 -0.0712  0.1244  0.0278
  456loPI   C2A 7288   9.852   3.840   9.569 -0.0955  0.1660 -0.1911
  456loPI   C3A 7289   9.788   3.815   9.094  0.0710 -0.1709 -0.1085
  456loPI   C4A 7290   9.822   3.787   8.693  0.1046  0.2257 -0.3352
  456loPI   C5A 7291  10.161   3.899   8.399  0.0472  0.2955 -0.0074
  456loPI   C6A 7292  10.522   3.740   8.079 -0.0019 -0.1013  0.1678
  456loPI   C1B 7293  10.191   3.796  10.032  0.0556 -0.0836 -0.0777
  456loPI   C2B 7294  10.335   3.714   9.625 -0.0467  0.0699 -0.2006
  456loPI   C3B 7295  10.291   3.623   9.206  0.0849 -0.0923  0.0503
  456loPI   C4B 7296  10.273   3.651   8.842 -0.0462 -0.0765  0.2641
  457loPI    C1 7297   8.909   7.953  10.527  0.0098 -0.0240 -0.1752
  457loPI    C2 7298   8.653   8.258  10.568  0.0919  0.0440 -0.1657
  457loPI    C3 7299   8.520   7.882  10.589  0.0800  0.0722  0.4477
  457loPI   PO4 7300   8.984   8.008  10.321 -0.0043 -0.0461 -0.1326
  457loPI   GL1 7301   8.866   8.032   9.964  0.2177  0.0294 -0.0525
  457loPI   GL2 7302   8.987   7.761   9.829  0.0362  0.1811 -0.2414
  457loPI   C1A 7303   8.472   7.904   9.675 -0.0290 -0.0643 -0.0857
  457loPI   C2A 7304   8.444   7.855   9.289  0.3579 -0.0978 -0.0382
  457loPI   C3A 7305   8.538   7.898   8.967 -0.0673  0.0594 -0.0157
  457loPI   C4A 7306   8.482   8.037   8.588  0.0248 -0.2171 -0.0369
  457loPI   C5A 7307   8.685   7.987   8.144  0.0952  0.2039 -0.2714
  457loPI   C6A 7308   8.945   8.324   8.014 -0.1765  0.0871  0.1378
  457loPI   C1B 7309   8.936   7.709   9.488 -0.0945 -0.1142 -0.1793
  457loPI   C2B 7310   8.999   7.662   9.173  0.0719 -0.2826  0.1316
  457loPI   C3B 7311   9.022   7.823   8.786  0.2088  0.1633  0.1387
  457loPI   C4B 7312   9.116   7.937   8.350  0.3843 -0.2496 -0.0514
  458loPI    C1 7313   7.593  12.159  11.325 -0.0257 -0.1596  0.3939
  458loPI    C2 7314   7.248  12.315  11.453 -0.0619  0.0771  0.0254
  458loPI    C3 7315   7.594  12.435  11.615 -0.1227  0.1725  0.0860
  458loPI   PO4 7316   7.600  12.201  11.036  0.1214 -0.2491 -0.0744
  458loPI   GL1 7317   7.817  12.377  10.697  0.3928 -0.1409  0.1466
  458loPI   GL2 7318   7.678  12.816  10.658  0.0420 -0.2751  0.1470
  458loPI   C1A 7319   7.870  12.224  10.290  0.2117 -0.5677 -0.3057
  458loPI   C2A 7320   7.874  12.225   9.840  0.0182  0.2581 -0.0863
  458loPI   C3A 7321   7.678  12.256   9.470 -0.2879 -0.1575  0.1958
  458loPI   C4A 7322   7.710  12.169   9.039 -0.2797  0.0268 -0.1073
  458loPI   C5A 7323   7.915  12.148   8.671 -0.0823  0.0558 -0.1092
  458loPI   C6A 7324   8.065  11.785   8.408  0.3415  0.1634 -0.0513
  458loPI   C1B 7325   7.965  12.753  10.336  0.1290  0.0208  0.1620
  458loPI   C2B 7326   7.718  12.693   9.973  0.0800 -0.0192 -0.1934
  458loPI   C3B 7327   7.737  12.764   9.605  0.0966 -0.0699  0.1737
  458loPI   C4B 7328   7.628  12.777   9.226 -0.1004 -0.1131  0.0157
  459loPI    C1 7329  15.870  10.201  11.175 -0.0611 -0.2801  0.1187
  459loPI    C2 7330  15.857  10.387  11.528  0.0077  0.0033 -0.0255
  459loPI    C3 7331  15.520  10.324  11.323 -0.0390 -0.2123  0.1147
  459loPI   PO4 7332  15.985  10.324  11.016 -0.3041  0.1680  0.0003
  459loPI   GL1 7333  16.001  10.521  10.675 -0.0593 -0.1065 -0.0894
  459loPI   GL2 7334  15.979  10.804  10.737  0.0771  0.2401  0.1741
  459loPI   C1A 7335  15.757  10.624  10.297  0.1113  0.2401  0.1084
  459loPI   C2A 7336  15.761  10.702   9.880 -0.2498 -0.0273 -0.2067
  459loPI   C3A 7337  15.709  10.666   9.474 -0.3030 -0.1407 -0.3680
  459loPI   C4A 7338  15.764  10.682   9.096  0.0129 -0.2669  0.0369
  459loPI   C5A 7339  15.750  10.752   8.726 -0.1969 -0.1079 -0.0324
  459loPI   C6A 7340  15.694  10.715   8.277 -0.0916 -0.1210  0.0919
  459loPI   C1B 7341  16.137  10.924  10.423  0.0218  0.0108  0.0426
  459loPI   C2B 7342  16.198  10.959   9.994 -0.0681 -0.3178 -0.0568
  459loPI   C3B 7343  16.173  10.976   9.522 -0.0814  0.0306 -0.1042
  459loPI   C4B 7344  16.183  11.018   9.126  0.0255  0.0592 -0.0192
  460loPI    C1 7345  10.838  14.676  11.285 -0.1694  0.1370 -0.0949
  460loPI    C2 7346  11.110  14.583  11.563 -0.0064  0.0269 -0.2881
  460loPI    C3 7347  10.723  14.609  11.662  0.0132 -0.3048 -0.1124
  460loPI   PO4 7348  10.962  14.816  11.113 -0.3057 -0.4739 -0.3011
  460loPI   GL1 7349  10.896  15.085  10.758  0.2178 -0.1299  0.1456
  460loPI   GL2 7350  11.141  15.366  10.619  0.0581  0.0221 -0.1835
  460loPI   C1A 7351  10.710  15.144  10.391  0.1811  0.1096  0.0000
  460loPI   C2A 7352  10.587  15.091  10.009 -0.0777  0.5483  0.0613
  460loPI   C3A 7353  10.650  15.066   9.589  0.0984 -0.1173 -0.1932
  460loPI   C4A 7354  10.755  15.109   9.259 -0.2893 -0.1636  0.0941
  460loPI   C5A 7355  10.639  15.099   8.847 -0.2190  0.2200 -0.1937
  460loPI   C6A 7356  10.264  15.202   8.751 -0.3289  0.2457  0.0522
  460loPI   C1B 7357  11.062  15.298  10.058 -0.0508 -0.1669 -0.0134
  460loPI   C2B 7358  11.064  15.372   9.604 -0.2300 -0.0332 -0.3777
  460loPI   C3B 7359  11.123  15.410   9.126  0.0835  0.0148 -0.3347
  460loPI   C4B 7360  11.085  15.367   8.759 -0.2512 -0.2376 -0.0021
  461loPI    C1 7361  14.039   8.007  11.178 -0.0612  0.2292 -0.0229
  461loPI    C2 7362  13.656   7.901  11.129  0.0670 -0.1520 -0.2456
  461loPI    C3 7363  13.771   8.088  11.464 -0.2829 -0.1746 -0.1087
  461loPI   PO4 7364  14.052   8.101  10.841 -0.1924  0.2597  0.0132
  461loPI   GL1 7365  13.980   8.001  10.377  0.1138 -0.0829 -0.0467
  461loPI   GL2 7366  14.273   7.837  10.434  0.0747 -0.1357  0.1955
  461loPI   C1A 7367  13.671   8.079  10.077 -0.0280  0.3381 -0.1358
  461loPI   C2A 7368  13.716   8.004   9.644  0.1088  0.0448 -0.2158
  461loPI   C3A 7369  13.789   7.984   9.186 -0.1843  0.1442  0.0796
  461loPI   C4A 7370  13.913   8.103   8.726  0.1825  0.0592  0.0563
  461loPI   C5A 7371  13.927   7.761   8.382  0.2856  0.0375  0.3438
  461loPI   C6A 7372  14.093   7.671   7.972  0.3765  0.1482  0.0828
  461loPI   C1B 7373  14.241   7.876   9.982  0.0700 -0.0051 -0.0216
  461loPI   C2B 7374  14.199   7.814   9.474  0.0608  0.1517 -0.1336
  461loPI   C3B 7375  14.202   7.797   8.948  0.1291  0.0429  0.1399
  461loPI   C4B 7376  14.378   7.922   8.515 -0.2952  0.0650 -0.3399
  462loPI    C1 7377   3.224   0.685  10.748 -0.0495  0.0082  0.0731
  462loPI    C2 7378   3.236   0.978  11.020 -0.1615  0.1130 -0.0338
  462loPI    C3 7379   3.031   0.643  11.096  0.1059 -0.0111  0.1580
  462loPI   PO4 7380   3.213   0.793  10.541 -0.0072  0.0995  0.0844
  462loPI   GL1 7381   3.369   0.811  10.269 -0.1595 -0.2077  0.1746
  462loPI   GL2 7382   3.367   1.185  10.127 -0.0276 -0.2665  0.1458
  462loPI   C1A 7383   3.368   0.785   9.802 -0.3451  0.2642 -0.1037
  462loPI   C2A 7384   3.331   0.701   9.399  0.2697  0.0692 -0.0234
  462loPI   C3A 7385   3.344   0.724   8.960 -0.0679  0.1986  0.1618
  462loPI   C4A 7386   3.479   0.695   8.571 -0.1013  0.0205  0.1255
  462loPI   C5A 7387   3.331   0.852   8.150  0.0001  0.1184  0.0508
  462loPI   C6A 7388   3.042   1.072   7.921  0.1391  0.1729  0.1921
  462loPI   C1B 7389   3.263   1.283   9.693 -0.1711  0.1174  0.1484
  462loPI   C2B 7390   3.325   1.216   9.323 -0.1721 -0.0158  0.0964
  462loPI   C3B 7391   3.369   1.210   8.876 -0.1077  0.0352  0.3480
  462loPI   C4B 7392   3.532   1.256   8.467  0.0090  0.0858 -0.0771
  463loPI    C1 7393   1.714   0.307  10.937  0.4391 -0.2860  0.0075
  463loPI    C2 7394   1.916   0.651  10.965  0.1916 -0.1311 -0.0728
  463loPI    C3 7395   1.799   0.461  11.297 -0.1061  0.1254 -0.0267
  463loPI   PO4 7396   1.511   0.335  10.801 -0.3559  0.1098  0.0679
  463loPI   GL1 7397   1.294   0.398  10.434 -0.1302 -0.1498  0.0740
  463loPI   GL2 7398   1.284   0.108  10.323 -0.0705 -0.1314 -0.1389
  463loPI   C1A 7399   1.539   0.552  10.085  0.1085 -0.2780  0.3583
  463loPI   C2A 7400   1.637   0.550   9.562 -0.0951  0.1614 -0.3687
  463loPI   C3A 7401   1.582   0.543   9.134  0.1222  0.2808  0.3319
  463loPI   C4A 7402   1.543   0.543   8.763  0.0043  0.4552  0.0188
  463loPI   C5A 7403   1.713   0.597   8.389  0.1260  0.2514 -0.0409
  463loPI   C6A 7404   2.037   0.482   8.081 -0.2848 -0.2835 -0.0245
  463loPI   C1B 7405   1.176   0.250   9.940  0.1285 -0.3622 -0.1119
  463loPI   C2B 7406   1.228   0.289   9.434  0.0459  0.2630  0.2571
  463loPI   C3B 7407   1.172   0.260   8.923  0.0457  0.2816  0.5101
  463loPI   C4B 7408   1.224   0.226   8.523 -0.0803 -0.0066  0.1430
  464loPI    C1 7409   4.881  17.792  11.156 -0.1580  0.0435 -0.0850
  464loPI    C2 7410   4.878  18.134  11.363 -0.0131 -0.0632  0.0967
  464loPI    C3 7411   5.024  17.801  11.529 -0.2191 -0.2312 -0.0527
  464loPI   PO4 7412   4.963  17.894  10.835  0.0835  0.1623 -0.0201
  464loPI   GL1 7413   4.942  17.734  10.497 -0.1037  0.2125  0.1059
  464loPI   GL2 7414   4.852  17.476  10.388  0.0757  0.1348  0.1024
  464loPI   C1A 7415   5.215  17.745  10.092  0.0221  0.0439  0.0516
  464loPI   C2A 7416   5.358  17.765   9.664  0.0440 -0.2753 -0.1413
  464loPI   C3A 7417   5.412  17.744   9.269 -0.0383  0.1607  0.0031
  464loPI   C4A 7418   5.364  17.745   8.825 -0.2519  0.1267  0.1765
  464loPI   C5A 7419   5.326  17.899   8.457  0.0539 -0.3054 -0.1594
  464loPI   C6A 7420   5.158  17.701   8.112  0.0241 -0.0959  0.2581
  464loPI   C1B 7421   4.950  17.365   9.918 -0.1650 -0.1078  0.0738
  464loPI   C2B 7422   4.873  17.343   9.502 -0.1466  0.1691  0.1471
  464loPI   C3B 7423   4.936  17.406   9.152  0.0678  0.0506 -0.0115
  464loPI   C4B 7424   5.023  17.384   8.774 -0.2620  0.0935  0.1841
  465loPI    C1 7425   3.924   4.500  11.093  0.1198  0.0039 -0.0158
  465loPI    C2 7426   3.619   4.732  11.206 -0.0319 -0.1439 -0.1168
  465loPI    C3 7427   3.660   4.367  11.363  0.0836 -0.1310 -0.1164
  465loPI   PO4 7428   3.913   4.483  10.799  0.1385  0.1160 -0.0702
  465loPI   GL1 7429   3.905   4.507  10.268  0.2089 -0.3658 -0.2349
  465loPI   GL2 7430   3.497   4.645  10.290 -0.2767  0.1784 -0.3214
  465loPI   C1A 7431   3.906   4.564   9.866 -0.1062  0.2364  0.0612
  465loPI   C2A 7432   3.921   4.525   9.377 -0.3152  0.2515 -0.3171
  465loPI   C3A 7433   4.014   4.444   9.013 -0.0713 -0.1353  0.0338
  465loPI   C4A 7434   3.843   4.494   8.587 -0.1029  0.1523 -0.0748
  465loPI   C5A 7435   3.550   4.378   8.264 -0.0058  0.1056 -0.2392
  465loPI   C6A 7436   3.468   3.950   8.074 -0.1105 -0.0576 -0.1376
  465loPI   C1B 7437   3.407   4.692   9.821  0.1858  0.0213 -0.2640
  465loPI   C2B 7438   3.417   4.568   9.384  0.0311  0.0573  0.0252
  465loPI   C3B 7439   3.525   4.658   9.069  0.5633 -0.1192  0.3957
  465loPI   C4B 7440   3.389   4.670   8.725  0.3386  0.0490 -0.1284
  466loPI    C1 7441  12.376   9.704  10.704 -0.1636 -0.0167  0.0511
  466loPI    C2 7442  12.025   9.518  10.663 -0.0089 -0.2657 -0.1747
  466loPI    C3 7443  12.366   9.314  10.615  0.1680 -0.0289  0.0528
  466loPI   PO4 7444  12.224   9.989  10.515 -0.1422 -0.0303 -0.1237
  466loPI   GL1 7445  12.239  10.114  10.120  0.0597  0.1702 -0.1138
  466loPI   GL2 7446  11.990  10.043   9.967  0.3478  0.2472  0.2309
  466loPI   C1A 7447  12.390   9.909   9.682  0.0293 -0.0940  0.0723
  466loPI   C2A 7448  12.816   9.979   9.476  0.0018 -0.1657 -0.1691
  466loPI   C3A 7449  12.959   9.785   9.162  0.0292  0.0338  0.1182
  466loPI   C4A 7450  13.192   9.904   8.832 -0.0954  0.1977  0.1120
  466loPI   C5A 7451  13.204  10.207   8.595  0.1433 -0.2226  0.0193
  466loPI   C6A 7452  13.515  10.529   8.586  0.0189  0.5432  0.1246
  466loPI   C1B 7453  11.815   9.868   9.662 -0.1540  0.0820  0.0991
  466loPI   C2B 7454  11.620   9.857   9.300  0.0836  0.0293  0.1923
  466loPI   C3B 7455  11.150   9.939   9.089 -0.2548  0.1687  0.0462
  466loPI   C4B 7456  10.885  10.203   9.019 -0.3191  0.0764 -0.1604
  467loPI    C1 7457   5.348  11.874  10.973  0.0407  0.1159 -0.0147
  467loPI    C2 7458   5.368  11.475  10.980  0.1724  0.1218 -0.0283
  467loPI    C3 7459   5.251  11.675  11.306 -0.1262  0.0610 -0.0952
  467loPI   PO4 7460   5.599  11.944  10.941  0.4128  0.0312  0.1718
  467loPI   GL1 7461   5.691  12.092  10.567  0.3668 -0.5038  0.3128
  467loPI   GL2 7462   5.954  12.061  10.369  0.2500 -0.0218 -0.2101
  467loPI   C1A 7463   5.595  12.267  10.136  0.1732  0.0465  0.0045
  467loPI   C2A 7464   5.423  12.243   9.726 -0.0624  0.0026  0.0343
  467loPI   C3A 7465   5.494  12.311   9.449  0.0008 -0.0849  0.1516
  467loPI   C4A 7466   5.480  12.177   9.088 -0.0608 -0.0747  0.1476
  467loPI   C5A 7467   5.500  12.162   8.652  0.0795  0.2094  0.3068
  467loPI   C6A 7468   5.578  12.007   8.277  0.1310 -0.0069  0.1196
  467loPI   C1B 7469   5.993  12.004   9.941 -0.2007 -0.1498 -0.0656
  467loPI   C2B 7470   5.946  12.050   9.548  0.0894 -0.0101 -0.1174
  467loPI   C3B 7471   5.965  11.983   9.128  0.0242  0.0350  0.0754
  467loPI   C4B 7472   5.957  12.013   8.687  0.0070  0.0541  0.2184
  468loPI    C1 7473   5.717   1.226  11.124  0.3273  0.0645  0.0044
  468loPI    C2 7474   5.520   1.391  11.431  0.1079 -0.0378 -0.0798
  468loPI    C3 7475   5.919   1.414  11.414  0.1052  0.1641  0.0965
  468loPI   PO4 7476   5.525   1.302  10.891 -0.2769  0.1501 -0.3321
  468loPI   GL1 7477   5.523   1.467  10.582  0.1536  0.0948  0.3045
  468loPI   GL2 7478   5.831   1.602  10.561 -0.3076  0.1397 -0.1415
  468loPI   C1A 7479   5.611   1.281  10.167  0.0867 -0.2286  0.2776
  468loPI   C2A 7480   5.607   1.307   9.662  0.2197  0.1024  0.4940
  468loPI   C3A 7481   5.718   1.310   9.229  0.0653 -0.2416 -0.0639
  468loPI   C4A 7482   5.708   1.216   8.788  0.2069 -0.2582 -0.0571
  468loPI   C5A 7483   5.984   1.215   8.434  0.2350  0.1671  0.2023
  468loPI   C6A 7484   5.777   1.398   8.053 -0.2954  0.3199 -0.0624
  468loPI   C1B 7485   6.013   1.578  10.150 -0.0400 -0.1100  0.0737
  468loPI   C2B 7486   6.006   1.577   9.724 -0.2644 -0.0824 -0.0012
  468loPI   C3B 7487   6.104   1.559   9.336  0.2076  0.0848  0.1094
  468loPI   C4B 7488   6.050   1.572   8.867  0.0474  0.0140 -0.1120
  469loPI    C1 7489   8.185  12.389  11.058 -0.1458  0.3079 -0.3138
  469loPI    C2 7490   7.886  12.613  11.200 -0.1939  0.0769 -0.0416
  469loPI    C3 7491   8.073  12.353  11.440 -0.0579 -0.0875 -0.3204
  469loPI   PO4 7492   8.262  12.546  10.865 -0.0361 -0.1875 -0.0852
  469loPI   GL1 7493   8.557  12.653  10.483  0.3723  0.1420  0.1000
  469loPI   GL2 7494   8.728  12.938  10.446  0.1606  0.3930  0.0051
  469loPI   C1A 7495   8.332  12.418  10.102 -0.2718 -0.0402  0.0158
  469loPI   C2A 7496   8.249  12.541   9.676 -0.0198 -0.0004  0.0390
  469loPI   C3A 7497   8.085  12.562   9.294 -0.0752 -0.2852 -0.1097
  469loPI   C4A 7498   7.903  12.635   8.810  0.1621 -0.1869 -0.1378
  469loPI   C5A 7499   7.754  12.654   8.347 -0.2227  0.0590 -0.1807
  469loPI   C6A 7500   7.677  12.715   7.929 -0.0636  0.2978  0.2001
  469loPI   C1B 7501   8.715  12.792   9.934 -0.2729  0.0480 -0.1425
  469loPI   C2B 7502   8.604  12.869   9.446  0.1936  0.1184 -0.1482
  469loPI   C3B 7503   8.671  12.865   8.945  0.1457  0.1073 -0.1567
  469loPI   C4B 7504   8.944  12.857   8.545  0.4110  0.1153 -0.3089
  470loPI    C1 7505   0.352  12.061  10.990  0.2627  0.0935  0.1608
  470loPI    C2 7506   0.144  12.341  10.795  0.0234 -0.2007 -0.0145
  470loPI    C3 7507   0.172  12.354  11.193  0.0695  0.1066 -0.0258
  470loPI   PO4 7508   0.268  11.867  10.813 -0.0447 -0.0458 -0.1364
  470loPI   GL1 7509   0.216  11.765  10.450 -0.0433  0.0376  0.4936
  470loPI   GL2 7510  -0.027  11.891  10.430  0.0635 -0.0532 -0.1991
  470loPI   C1A 7511   0.448  11.595  10.177  0.2804 -0.3751 -0.3873
  470loPI   C2A 7512   0.460  11.463   9.753  0.0161 -0.4559 -0.1524
  470loPI   C3A 7513   0.547  11.500   9.344  0.0219 -0.3300 -0.0481
  470loPI   C4A 7514   0.485  11.510   8.950  0.1625  0.0271  0.0818
  470loPI   C5A 7515   0.480  11.430   8.529  0.0011 -0.3341  0.1879
  470loPI   C6A 7516   0.779  11.578   8.281  0.0316 -0.4152 -0.2779
  470loPI   C1B 7517   0.005  11.680  10.002 -0.2389  0.0467  0.2155
  470loPI   C2B 7518   0.023  11.680   9.572  0.0010  0.2699 -0.1458
  470loPI   C3B 7519   0.076  11.711   9.179 -0.0673  0.1445  0.0420
  470loPI   C4B 7520   0.038  11.706   8.693  0.0915 -0.2416  0.3421
  471loPI    C1 7521   0.774   4.720  11.217  0.0047  0.0681  0.0236
  471loPI    C2 7522   0.538   4.399  11.177  0.2333 -0.0965 -0.0251
  471loPI    C3 7523   0.799   4.419  11.480  0.1526  0.0885  0.0335
  471loPI   PO4 7524   0.937   4.754  11.029 -0.1223 -0.0363 -0.3749
  471loPI   GL1 7525   0.791   4.839  10.679  0.0516  0.4195 -0.1456
  471loPI   GL2 7526   0.666   4.491  10.731  0.0155  0.1048 -0.1776
  471loPI   C1A 7527   0.743   4.987  10.298  0.1604 -0.0365  0.2133
  471loPI   C2A 7528   0.767   4.989   9.907 -0.2483 -0.0399 -0.0606
  471loPI   C3A 7529   0.716   4.938   9.472  0.2950 -0.1827  0.2948
  471loPI   C4A 7530   0.728   4.875   9.068 -0.1292 -0.0588  0.1747
  471loPI   C5A 7531   0.800   4.725   8.605 -0.0297 -0.2198 -0.0753
  471loPI   C6A 7532   0.912   5.100   8.261 -0.0369  0.1353 -0.1435
  471loPI   C1B 7533   0.841   4.386  10.351 -0.1145 -0.0517 -0.0037
  471loPI   C2B 7534   0.853   4.361   9.858 -0.0217  0.1942  0.0726
  471loPI   C3B 7535   0.771   4.414   9.446 -0.0458 -0.1842  0.0160
  471loPI   C4B 7536   0.825   4.405   8.993 -0.1165 -0.0886 -0.2047
  472loPI    C1 7537  14.877  16.371  11.420  0.2363 -0.2655 -0.4419
  472loPI    C2 7538  14.516  16.431  11.260  0.1539 -0.0539 -0.1836
  472loPI    C3 7539  14.574  16.492  11.651  0.4877 -0.0134 -0.2368
  472loPI   PO4 7540  15.050  16.366  11.191  0.0277 -0.0722 -0.0238
  472loPI   GL1 7541  15.088  16.242  10.834  0.0429 -0.0280 -0.1643
  472loPI   GL2 7542  15.232  15.945  10.630 -0.0423 -0.1853  0.1478
  472loPI   C1A 7543  15.308  16.383  10.489 -0.0800 -0.1012  0.2002
  472loPI   C2A 7544  15.549  16.201  10.207  0.4063 -0.1853  0.0922
  472loPI   C3A 7545  15.582  16.119   9.785  0.2751 -0.0667 -0.1456
  472loPI   C4A 7546  15.648  16.088   9.377  0.0099 -0.1306 -0.0610
  472loPI   C5A 7547  15.652  16.219   8.869 -0.0814 -0.3533  0.0735
  472loPI   C6A 7548  15.829  16.093   8.591  0.1235 -0.3244  0.3140
  472loPI   C1B 7549  15.071  15.789  10.185  0.1352  0.1581  0.1635
  472loPI   C2B 7550  15.133  15.724   9.737 -0.2316  0.4388  0.4125
  472loPI   C3B 7551  15.138  15.693   9.395  0.0174 -0.4411  0.0751
  472loPI   C4B 7552  15.299  15.881   8.949 -0.0379 -0.2445  0.1236
  473loPI    C1 7553   1.678   7.670  11.143  0.1157 -0.0662 -0.1912
  473loPI    C2 7554   1.614   7.819  11.508 -0.1973 -0.0866 -0.2346
  473loPI    C3 7555   1.811   7.473  11.465 -0.0959 -0.0479 -0.0911
  473loPI   PO4 7556   1.457   7.656  11.021  0.1429 -0.1327 -0.0896
  473loPI   GL1 7557   1.606   7.667  10.584  0.1461  0.2092  0.0819
  473loPI   GL2 7558   1.844   7.475  10.622 -0.2773 -0.0269  0.3568
  473loPI   C1A 7559   1.346   7.555  10.284 -0.0290  0.3668 -0.0870
  473loPI   C2A 7560   1.334   7.624   9.899  0.0766 -0.0944  0.0755
  473loPI   C3A 7561   1.392   7.612   9.573  0.4948 -0.2459  0.3222
  473loPI   C4A 7562   1.325   7.715   9.153  0.1851  0.1102  0.0635
  473loPI   C5A 7563   1.360   7.494   8.767 -0.0125 -0.2660  0.1421
  473loPI   C6A 7564   1.137   7.536   8.423  0.1510 -0.1224  0.1393
  473loPI   C1B 7565   1.850   7.542  10.117  0.2831 -0.1011  0.3398
  473loPI   C2B 7566   1.849   7.399   9.768 -0.0210  0.1287 -0.3429
  473loPI   C3B 7567   1.809   7.315   9.365  0.0483  0.0691  0.2832
  473loPI   C4B 7568   1.826   7.307   8.875 -0.0336 -0.0778 -0.0374
  474loPI    C1 7569  14.724  14.715  11.251  0.0369 -0.0868 -0.0458
  474loPI    C2 7570  14.947  14.536  11.531  0.1135 -0.2043 -0.1805
  474loPI    C3 7571  14.578  14.664  11.620  0.1751 -0.1492  0.0007
  474loPI   PO4 7572  14.703  14.627  11.012  0.3142 -0.3915 -0.1424
  474loPI   GL1 7573  14.754  14.834  10.569 -0.0966  0.1238 -0.0886
  474loPI   GL2 7574  15.148  14.755  10.342 -0.0996  0.1743  0.0690
  474loPI   C1A 7575  14.718  14.965  10.161  0.2859 -0.2180  0.3671
  474loPI   C2A 7576  14.728  14.886   9.694 -0.0028  0.3695 -0.2923
  474loPI   C3A 7577  14.809  14.940   9.302  0.0337  0.2672  0.1990
  474loPI   C4A 7578  14.720  14.835   8.803 -0.0988 -0.0626  0.2517
  474loPI   C5A 7579  14.901  14.865   8.403  0.2976  0.0602 -0.0510
  474loPI   C6A 7580  15.182  15.085   8.281  0.2028  0.0576 -0.1892
  474loPI   C1B 7581  15.174  14.738   9.955  0.2971 -0.1972  0.0787
  474loPI   C2B 7582  15.191  14.776   9.508  0.0081 -0.1967 -0.1724
  474loPI   C3B 7583  15.181  14.701   9.095 -0.1753 -0.2501  0.2165
  474loPI   C4B 7584  15.448  14.705   8.649 -0.0921  0.1468  0.0704
  475loPI    C1 7585   0.130  17.838  11.414  0.0977 -0.0708 -0.1211
  475loPI    C2 7586  -0.014  18.020  11.740 -0.1454 -0.0180 -0.2554
  475loPI    C3 7587   0.164  17.663  11.772 -0.0705  0.0365 -0.0515
  475loPI   PO4 7588  -0.070  17.980  11.225  0.2158  0.0301  0.1771
  475loPI   GL1 7589  -0.196  17.924  10.771 -0.1901  0.3518 -0.0928
  475loPI   GL2 7590  -0.394  18.159  10.636 -0.1360  0.1284 -0.1960
  475loPI   C1A 7591  -0.122  17.666  10.325 -0.0841  0.4776 -0.0773
  475loPI   C2A 7592  -0.146  17.678   9.952  0.4260 -0.0285  0.1342
  475loPI   C3A 7593  -0.092  17.697   9.468 -0.0075 -0.1168 -0.1530
  475loPI   C4A 7594  -0.041  17.681   9.055  0.0373 -0.1327  0.0912
  475loPI   C5A 7595  -0.181  17.863   8.682  0.0250 -0.1037  0.2781
  475loPI   C6A 7596  -0.127  18.036   8.411  0.1243 -0.3119  0.0064
  475loPI   C1B 7597  -0.190  18.124  10.238  0.0158  0.1847  0.1217
  475loPI   C2B 7598  -0.167  18.167   9.738 -0.1967 -0.0573  0.0686
  475loPI   C3B 7599  -0.105  18.239   9.344 -0.1025  0.3226 -0.2387
  475loPI   C4B 7600  -0.138  18.265   8.929 -0.1224 -0.0497  0.0781
  476loPI    C1 7601  12.471  13.098  11.234 -0.1403  0.1332  0.1712
  476loPI    C2 7602  12.684  12.923  11.524  0.5080  0.1657 -0.2642
  476loPI    C3 7603  12.460  13.245  11.606  0.4515  0.0047  0.2492
  476loPI   PO4 7604  12.591  12.982  11.012 -0.5859 -0.1696 -0.0591
  476loPI   GL1 7605  12.600  13.079  10.603  0.0475  0.3428 -0.1391
  476loPI   GL2 7606  12.313  12.864  10.569  0.0181  0.0018 -0.0426
  476loPI   C1A 7607  12.691  13.226  10.116  0.1867 -0.0174  0.0787
  476loPI   C2A 7608  12.672  13.202   9.658 -0.0876 -0.0558 -0.0959
  476loPI   C3A 7609  12.681  13.238   9.221 -0.0286  0.2337 -0.0216
  476loPI   C4A 7610  12.799  13.346   8.812 -0.2835  0.0911  0.0498
  476loPI   C5A 7611  13.166  13.541   8.612 -0.3146 -0.1536  0.0057
  476loPI   C6A 7612  13.332  13.849   8.283  0.1109  0.1334 -0.1501
  476loPI   C1B 7613  12.325  12.860  10.168  0.2106  0.0463  0.0081
  476loPI   C2B 7614  12.252  12.907   9.777  0.0505  0.5524  0.0229
  476loPI   C3B 7615  12.236  12.977   9.246 -0.0914  0.1144  0.0505
  476loPI   C4B 7616  11.912  12.956   8.802 -0.4125  0.3337 -0.0538
  477loPI    C1 7617   0.262  15.458  11.038  0.1794  0.1320 -0.0821
  477loPI    C2 7618   0.547  15.188  11.115 -0.1637 -0.1670  0.1730
  477loPI    C3 7619   0.439  15.451  11.397 -0.0201  0.0645  0.0160
  477loPI   PO4 7620   0.327  15.588  10.801 -0.2699  0.2471  0.2123
  477loPI   GL1 7621   0.527  15.716  10.524  0.0956  0.2119  0.2413
  477loPI   GL2 7622   0.904  15.610  10.517 -0.1857 -0.2996 -0.0910
  477loPI   C1A 7623   0.413  15.851  10.119  0.0028 -0.0330 -0.0034
  477loPI   C2A 7624   0.481  15.909   9.694 -0.1794 -0.1207  0.2602
  477loPI   C3A 7625   0.544  15.972   9.316 -0.1232 -0.0451 -0.0910
  477loPI   C4A 7626   0.593  15.954   8.893 -0.0185  0.0730 -0.0298
  477loPI   C5A 7627   0.518  15.811   8.462 -0.1260 -0.2023 -0.0050
  477loPI   C6A 7628   0.048  15.731   8.421  0.0845 -0.0743 -0.0497
  477loPI   C1B 7629   0.940  15.695  10.044  0.0347 -0.0518 -0.2262
  477loPI   C2B 7630   0.958  15.724   9.569 -0.1264 -0.1616 -0.2311
  477loPI   C3B 7631   1.050  15.747   9.126 -0.0609 -0.0110 -0.2726
  477loPI   C4B 7632   1.092  15.815   8.772  0.2468  0.3486  0.2535
  478loPI    C1 7633  16.814  17.767  11.277 -0.1671 -0.2021  0.1686
  478loPI    C2 7634  16.980  18.128  11.320  0.1740 -0.2786 -0.4045
  478loPI    C3 7635  16.908  17.902  11.642  0.1667  0.2009 -0.0577
  478loPI   PO4 7636  16.773  17.749  10.986  0.0542  0.1625 -0.0306
  478loPI   GL1 7637  16.810  17.871  10.569 -0.1388 -0.1399 -0.0032
  478loPI   GL2 7638  17.175  17.814  10.448 -0.0611  0.1348  0.3280
  478loPI   C1A 7639  16.412  17.827  10.244 -0.0957  0.0695  0.2187
  478loPI   C2A 7640  16.320  17.639   9.890 -0.0751 -0.0449 -0.1505
  478loPI   C3A 7641  16.441  17.734   9.473 -0.0345 -0.2420  0.0864
  478loPI   C4A 7642  16.429  17.792   9.025  0.1018  0.1835  0.0159
  478loPI   C5A 7643  16.345  17.774   8.608 -0.3647 -0.1215  0.2879
  478loPI   C6A 7644  16.651  17.997   8.333 -0.2301 -0.1462 -0.2524
  478loPI   C1B 7645  17.231  17.836  10.057 -0.0086  0.0020  0.2777
  478loPI   C2B 7646  17.293  17.791   9.650 -0.0811  0.0973 -0.1594
  478loPI   C3B 7647  17.324  17.935   9.356 -0.2237  0.4039  0.1301
  478loPI   C4B 7648  17.268  17.959   9.000 -0.0386 -0.0864  0.0022
  479loPI    C1 7649   5.874   7.637  11.441 -0.0954  0.1613  0.1719
  479loPI    C2 7650   5.699   7.993  11.491  0.1092  0.2623  0.1804
  479loPI    C3 7651   5.628   7.697  11.751 -0.2136  0.2336  0.0650
  479loPI   PO4 7652   5.866   7.554  11.199  0.0346 -0.0264 -0.2154
  479loPI   GL1 7653   5.986   7.404  10.762 -0.1194 -0.0752 -0.0230
  479loPI   GL2 7654   5.674   7.366  10.783  0.0389  0.2691 -0.0648
  479loPI   C1A 7655   5.868   7.636  10.337 -0.3719 -0.0633  0.1421
  479loPI   C2A 7656   5.821   7.620   9.893 -0.0300 -0.1561 -0.0467
  479loPI   C3A 7657   5.886   7.574   9.437 -0.0687  0.0007  0.3145
  479loPI   C4A 7658   5.837   7.600   8.993 -0.0499  0.1856 -0.1683
  479loPI   C5A 7659   5.803   7.430   8.597 -0.1651  0.0459 -0.2005
  479loPI   C6A 7660   6.041   7.049   8.374 -0.0331 -0.0893  0.2999
  479loPI   C1B 7661   5.498   7.364  10.380  0.4175 -0.0232  0.0951
  479loPI   C2B 7662   5.465   7.287   9.928  0.1454  0.1226 -0.0938
  479loPI   C3B 7663   5.489   7.286   9.513  0.1638 -0.0520  0.0243
  479loPI   C4B 7664   5.431   7.242   9.071 -0.0647  0.3017 -0.1739
  480loPI    C1 7665   4.768   9.745  11.562 -0.0430 -0.0322 -0.0060
  480loPI    C2 7666   4.627   9.454  11.798 -0.1529  0.0807  0.0684
  480loPI    C3 7667   4.669   9.825  11.941  0.0303  0.0924 -0.0128
  480loPI   PO4 7668   4.653   9.688  11.301 -0.3337 -0.2045 -0.1364
  480loPI   GL1 7669   4.551   9.715  10.953 -0.0973 -0.2775 -0.0779
  480loPI   GL2 7670   4.811   9.835  10.738 -0.2542  0.1169 -0.5623
  480loPI   C1A 7671   4.358   9.355  10.696  0.2652  0.1782 -0.0066
  480loPI   C2A 7672   4.319   9.172  10.239  0.2846  0.1697 -0.0417
  480loPI   C3A 7673   4.307   9.293   9.860 -0.2544 -0.1935  0.0383
  480loPI   C4A 7674   4.326   9.304   9.418 -0.0232 -0.1390 -0.0593
  480loPI   C5A 7675   4.520   9.269   8.907 -0.3614 -0.2234  0.0586
  480loPI   C6A 7676   4.407   9.375   8.484 -0.0144  0.0199  0.0065
  480loPI   C1B 7677   4.696   9.565  10.378 -0.0454 -0.1828 -0.1982
  480loPI   C2B 7678   4.763   9.440  10.016  0.3970 -0.2173 -0.1060
  480loPI   C3B 7679   4.732   9.543   9.519 -0.1796  0.2030  0.0947
  480loPI   C4B 7680   4.806   9.659   9.159 -0.2743  0.0242 -0.1569
  481loPI    C1 7681   3.409  15.462  11.282  0.1972  0.0966 -0.1001
  481loPI    C2 7682   3.478  15.849  11.355 -0.5815  0.2515 -0.1023
  481loPI    C3 7683   3.312  15.619  11.637 -0.0609 -0.1089 -0.0767
  481loPI   PO4 7684   3.501  15.451  11.052 -0.1877  0.0632 -0.3049
  481loPI   GL1 7685   3.402  15.505  10.659 -0.1810  0.3328 -0.0715
  481loPI   GL2 7686   3.466  15.227  10.603  0.0677 -0.0529  0.0484
  481loPI   C1A 7687   3.289  15.668  10.263 -0.0640 -0.0620  0.1150
  481loPI   C2A 7688   3.198  15.664   9.864  0.1470 -0.1503 -0.0698
  481loPI   C3A 7689   3.295  15.666   9.500 -0.2569 -0.2730  0.1059
  481loPI   C4A 7690   3.359  15.664   9.065 -0.0574  0.0730 -0.0038
  481loPI   C5A 7691   3.274  15.637   8.667  0.1526  0.2831 -0.0591
  481loPI   C6A 7692   3.311  15.957   8.350  0.3337 -0.0344  0.2781
  481loPI   C1B 7693   3.305  15.171  10.180 -0.0177 -0.2339  0.0176
  481loPI   C2B 7694   3.263  15.174   9.796 -0.0025 -0.0664 -0.0584
  481loPI   C3B 7695   3.287  15.102   9.357  0.0691 -0.0851 -0.1966
  481loPI   C4B 7696   3.405  15.172   8.892 -0.2333 -0.1328 -0.1005
  482loPI    C1 7697  16.459   7.744  11.308 -0.2094  0.1784 -0.1518
  482loPI    C2 7698  16.112   7.927  11.384 -0.1596  0.2017  0.0236
  482loPI    C3 7699  16.423   7.976  11.632 -0.0672  0.0860 -0.0683
  482loPI   PO4 7700  16.371   7.615  10.973 -0.0382 -0.2203  0.3132
  482loPI   GL1 7701  16.454   7.664  10.592 -0.1437  0.1460 -0.2146
  482loPI   GL2 7702  16.224   7.784  10.531  0.2341 -0.3403 -0.0676
  482loPI   C1A 7703  16.559   7.813  10.181  0.1031  0.0146  0.0427
  482loPI   C2A 7704  16.454   7.972   9.754 -0.0961  0.0048 -0.2838
  482loPI   C3A 7705  16.475   7.885   9.312  0.0763 -0.0794  0.0435
  482loPI   C4A 7706  16.572   7.821   8.880 -0.0537 -0.1393 -0.1566
  482loPI   C5A 7707  16.656   7.509   8.536  0.2082 -0.0700 -0.0475
  482loPI   C6A 7708  16.991   7.433   8.213  0.1189  0.0016 -0.3106
  482loPI   C1B 7709  16.064   8.032  10.242  0.1140 -0.2370 -0.0835
  482loPI   C2B 7710  15.961   8.147   9.823 -0.0849  0.2401 -0.0475
  482loPI   C3B 7711  15.990   8.037   9.386 -0.0680 -0.1375 -0.4370
  482loPI   C4B 7712  16.055   8.100   8.966 -0.2903 -0.1096  0.1999
  483loPI    C1 7713   6.352  14.700  10.906 -0.2181 -0.1991  0.0351
  483loPI    C2 7714   6.484  14.990  11.148 -0.0639 -0.2032 -0.0428
  483loPI    C3 7715   6.327  14.656  11.303 -0.5398  0.0531  0.0468
  483loPI   PO4 7716   6.532  14.877  10.647  0.0644  0.0048 -0.2749
  483loPI   GL1 7717   6.589  14.892  10.306  0.0522  0.1400  0.0983
  483loPI   GL2 7718   6.527  15.279  10.345 -0.1508  0.2691 -0.0155
  483loPI   C1A 7719   6.643  14.574   9.993  0.1165 -0.1851  0.1405
  483loPI   C2A 7720   6.478  14.697   9.624 -0.1620 -0.4956 -0.1629
  483loPI   C3A 7721   6.491  14.955   9.197 -0.1310  0.2836  0.1891
  483loPI   C4A 7722   6.742  15.031   8.775 -0.2565  0.2662 -0.0453
  483loPI   C5A 7723   6.956  15.240   8.408 -0.2303 -0.0078  0.2926
  483loPI   C6A 7724   7.334  15.092   8.173  0.3024  0.2320  0.4283
  483loPI   C1B 7725   6.419  15.254   9.943  0.2218 -0.3603  0.1134
  483loPI   C2B 7726   6.401  15.323   9.509  0.0885  0.4356 -0.0737
  483loPI   C3B 7727   6.395  15.448   9.057  0.0694  0.1240  0.3874
  483loPI   C4B 7728   6.458  15.539   8.626 -0.2050 -0.1378  0.1651
  484loPI    C1 7729   5.619   7.015  11.129  0.1493  0.0908 -0.1000
  484loPI    C2 7730   5.627   6.818  11.478 -0.0780  0.0338 -0.1249
  484loPI    C3 7731   5.566   7.213  11.473  0.0852  0.0602 -0.0919
  484loPI   PO4 7732   5.720   6.751  10.976  0.0253  0.1472  0.2686
  484loPI   GL1 7733   5.894   6.621  10.617 -0.1504  0.0164 -0.0395
  484loPI   GL2 7734   5.964   6.974  10.538 -0.0706  0.0196 -0.2187
  484loPI   C1A 7735   6.074   6.530  10.240  0.1246  0.2817  0.1032
  484loPI   C2A 7736   5.978   6.537   9.809 -0.3319 -0.1674 -0.0931
  484loPI   C3A 7737   5.995   6.562   9.451  0.0131 -0.0923 -0.1672
  484loPI   C4A 7738   5.970   6.495   9.041 -0.1466 -0.0953  0.2123
  484loPI   C5A 7739   5.761   6.624   8.663 -0.2385 -0.2395 -0.3121
  484loPI   C6A 7740   5.254   6.539   8.561 -0.1311  0.1178  0.0665
  484loPI   C1B 7741   5.912   7.069  10.144 -0.2302 -0.1226 -0.2372
  484loPI   C2B 7742   5.919   7.111   9.717  0.2014  0.0432 -0.3019
  484loPI   C3B 7743   5.907   7.119   9.289  0.0264  0.0728  0.3144
  484loPI   C4B 7744   5.879   7.009   8.953 -0.0169 -0.1495 -0.0718
  485loPI    C1 7745  16.830   2.464  11.066  0.1321 -0.0468 -0.1145
  485loPI    C2 7746  16.709   2.154  11.288  0.1847  0.1085  0.1349
  485loPI    C3 7747  16.958   2.426  11.443  0.1594  0.2626 -0.0903
  485loPI   PO4 7748  16.847   2.327  10.805 -0.0611 -0.1111  0.0521
  485loPI   GL1 7749  16.610   2.478  10.429  0.1366  0.2467  0.0170
  485loPI   GL2 7750  16.857   2.651  10.417 -0.0692  0.1618 -0.1152
  485loPI   C1A 7751  16.673   2.361   9.979 -0.2312  0.0917 -0.1906
  485loPI   C2A 7752  16.630   2.261   9.579 -0.1732  0.0334 -0.1159
  485loPI   C3A 7753  16.524   2.280   9.155  0.0044  0.2292  0.2076
  485loPI   C4A 7754  16.535   2.358   8.703 -0.1946 -0.1036 -0.0548
  485loPI   C5A 7755  16.337   2.480   8.330  0.0318  0.0902  0.2018
  485loPI   C6A 7756  15.983   2.306   8.154  0.0933 -0.4256 -0.3711
  485loPI   C1B 7757  17.070   2.626  10.105 -0.1738  0.1035  0.4230
  485loPI   C2B 7758  17.048   2.643   9.718  0.1279  0.2673 -0.4434
  485loPI   C3B 7759  16.995   2.550   9.349 -0.2079 -0.1923  0.0942
  485loPI   C4B 7760  17.018   2.632   8.921 -0.1012  0.0421  0.2229
  486loPI    C1 7761   2.343   7.732  11.471  0.0206  0.2373 -0.2282
  486loPI    C2 7762   2.079   7.696  11.769  0.1529 -0.0288 -0.1392
  486loPI    C3 7763   2.365   7.975  11.788  0.1849 -0.0705  0.0021
  486loPI   PO4 7764   2.198   7.792  11.301  0.0601  0.5237 -0.2265
  486loPI   GL1 7765   2.026   7.911  10.872  0.3045  0.0240  0.0134
  486loPI   GL2 7766   1.786   8.093  10.724 -0.1391  0.3374  0.1083
  486loPI   C1A 7767   2.221   7.819  10.361  0.1238  0.0427  0.0152
  486loPI   C2A 7768   2.326   7.718   9.856  0.0113 -0.1629  0.1216
  486loPI   C3A 7769   2.222   7.705   9.425 -0.0552  0.1017 -0.2320
  486loPI   C4A 7770   2.205   7.766   9.095 -0.1943  0.2187  0.2659
  486loPI   C5A 7771   2.438   7.839   8.787  0.2033 -0.0100 -0.1217
  486loPI   C6A 7772   2.737   7.889   8.558  0.2074 -0.0310  0.2121
  486loPI   C1B 7773   1.797   8.023  10.213  0.1103 -0.0001  0.0411
  486loPI   C2B 7774   1.772   7.880   9.735 -0.0825  0.1034  0.1919
  486loPI   C3B 7775   1.747   8.019   9.307  0.1161  0.1050  0.3388
  486loPI   C4B 7776   1.709   7.881   8.781  0.0456  0.1089 -0.1473
  487loPI    C1 7777   5.831  10.766  11.224 -0.0777  0.1372  0.0566
  487loPI    C2 7778   5.623  10.593  11.518  0.1086  0.0839  0.1584
  487loPI    C3 7779   5.916  10.852  11.605  0.4391 -0.2402  0.0374
  487loPI   PO4 7780   5.763  10.782  11.032 -0.2857 -0.1133 -0.0954
  487loPI   GL1 7781   5.506  10.916  10.728 -0.0634  0.0530 -0.0536
  487loPI   GL2 7782   5.279  11.155  10.576 -0.0563 -0.4148  0.1468
  487loPI   C1A 7783   5.518  10.674  10.272 -0.3512 -0.0694 -0.1791
  487loPI   C2A 7784   5.562  10.694   9.858 -0.2898  0.0739 -0.1025
  487loPI   C3A 7785   5.593  10.715   9.453 -0.1772 -0.1221 -0.0031
  487loPI   C4A 7786   5.498  10.728   8.981  0.1621  0.0951 -0.0274
  487loPI   C5A 7787   5.653  10.735   8.658 -0.0625 -0.0898  0.1419
  487loPI   C6A 7788   5.937  10.817   8.339 -0.0289  0.2439 -0.2465
  487loPI   C1B 7789   5.154  10.984  10.156 -0.0487  0.0742 -0.1155
  487loPI   C2B 7790   5.049  10.825   9.739 -0.1362 -0.1058 -0.1078
  487loPI   C3B 7791   5.119  10.943   9.359  0.0517  0.1370 -0.0214
  487loPI   C4B 7792   5.022  10.963   8.906  0.3410 -0.4093  0.0404
  488loPI    C1 7793  13.050  11.480  11.186 -0.0538  0.1641  0.0413
  488loPI    C2 7794  13.411  11.504  11.356  0.0018 -0.1194 -0.0317
  488loPI    C3 7795  13.131  11.264  11.513  0.0060 -0.2709 -0.2523
  488loPI   PO4 7796  13.070  11.710  11.010 -0.0352 -0.3076 -0.0282
  488loPI   GL1 7797  12.962  11.699  10.658  0.1448  0.1827 -0.1664
  488loPI   GL2 7798  13.128  11.295  10.614 -0.1447 -0.1116 -0.1183
  488loPI   C1A 7799  13.018  11.712  10.212 -0.0735  0.2797  0.4164
  488loPI   C2A 7800  12.931  11.799   9.760 -0.0444 -0.0154 -0.1004
  488loPI   C3A 7801  12.919  11.802   9.252 -0.1796  0.0046 -0.1201
  488loPI   C4A 7802  12.953  11.764   8.843  0.1299  0.5271 -0.0671
  488loPI   C5A 7803  12.863  11.482   8.498 -0.0432 -0.4042  0.4050
  488loPI   C6A 7804  12.999  11.149   8.362 -0.2045 -0.1900 -0.1602
  488loPI   C1B 7805  13.186  11.234  10.214  0.0624  0.3155  0.2574
  488loPI   C2B 7806  13.016  11.208   9.853  0.0904  0.0960  0.2991
  488loPI   C3B 7807  12.950  11.343   9.399 -0.3293 -0.3040 -0.4258
  488loPI   C4B 7808  12.804  11.318   8.993  0.0956 -0.1458  0.0953
  489loPI    C1 7809  11.267  11.827  11.039  0.0634  0.0385  0.1517
  489loPI    C2 7810  11.348  12.056  11.357  0.0813 -0.0927  0.2420
  489loPI    C3 7811  11.631  11.817  11.204  0.1084  0.0574  0.0546
  489loPI   PO4 7812  11.105  11.977  10.867  0.1184 -0.3930 -0.1255
  489loPI   GL1 7813  11.237  12.150  10.508 -0.1442 -0.0022 -0.1290
  489loPI   GL2 7814  11.063  12.472  10.561 -0.2630  0.2568  0.2920
  489loPI   C1A 7815  11.471  12.266  10.247  0.0586 -0.1810 -0.1151
  489loPI   C2A 7816  11.499  12.254   9.792 -0.3162 -0.0948  0.0326
  489loPI   C3A 7817  11.412  12.253   9.340 -0.1048 -0.0341 -0.0419
  489loPI   C4A 7818  11.391  12.067   8.898  0.0650  0.0697 -0.0827
  489loPI   C5A 7819  11.177  12.183   8.461 -0.2411  0.2991 -0.1372
  489loPI   C6A 7820  11.229  12.064   8.024 -0.0624 -0.0388  0.4190
  489loPI   C1B 7821  11.039  12.502  10.101 -0.0278  0.3807 -0.1801
  489loPI   C2B 7822  11.038  12.461   9.637  0.0064  0.3066  0.0962
  489loPI   C3B 7823  10.979  12.523   9.190  0.1390  0.0771 -0.1448
  489loPI   C4B 7824  10.973  12.599   8.741  0.0930 -0.0403 -0.2725
  490loPI    C1 7825   8.413   0.789  11.497 -0.2056 -0.0168 -0.1294
  490loPI    C2 7826   8.032   0.679  11.449 -0.2321 -0.0160  0.0716
  490loPI    C3 7827   8.196   0.678  11.813 -0.0955  0.1647  0.0121
  490loPI   PO4 7828   8.495   0.859  11.257  0.1799  0.0929  0.3677
  490loPI   GL1 7829   8.465   1.245  10.932 -0.0701  0.0805 -0.2569
  490loPI   GL2 7830   8.411   1.090  10.733 -0.1235 -0.1753 -0.1637
  490loPI   C1A 7831   8.738   1.376  10.496  0.0316 -0.0328  0.1579
  490loPI   C2A 7832   8.783   1.333  10.020 -0.0757 -0.0489  0.0050
  490loPI   C3A 7833   8.750   1.362   9.574 -0.0253 -0.2439  0.2858
  490loPI   C4A 7834   8.753   1.365   9.104  0.1837 -0.1104 -0.2133
  490loPI   C5A 7835   8.716   1.463   8.688 -0.1591  0.2261  0.1364
  490loPI   C6A 7836   9.092   1.505   8.396  0.0971 -0.0678 -0.0929
  490loPI   C1B 7837   8.309   1.099  10.352 -0.3127 -0.1272  0.0245
  490loPI   C2B 7838   8.404   1.051   9.817  0.2266 -0.3711  0.2160
  490loPI   C3B 7839   8.411   1.020   9.377 -0.1405 -0.0693  0.1009
  490loPI   C4B 7840   8.407   1.044   8.991  0.0695  0.2619 -0.1491
  491loPI    C1 7841  15.758   1.707  10.687 -0.0112  0.1422  0.1839
  491loPI    C2 7842  15.761   1.589  11.069 -0.0964  0.0483  0.1560
  491loPI    C3 7843  16.006   1.416  10.805  0.0416  0.1896  0.1901
  491loPI   PO4 7844  15.560   1.770  10.651 -0.0108  0.2030  0.1854
  491loPI   GL1 7845  15.398   1.775  10.250 -0.2670 -0.0485  0.0730
  491loPI   GL2 7846  15.706   1.769  10.105 -0.1979 -0.1179  0.2053
  491loPI   C1A 7847  15.327   1.882   9.795  0.1335  0.1695 -0.1208
  491loPI   C2A 7848  15.291   1.902   9.406 -0.2376  0.0762  0.1764
  491loPI   C3A 7849  15.205   1.901   8.987  0.0459  0.2236  0.2919
  491loPI   C4A 7850  15.291   2.045   8.570 -0.0336 -0.1136  0.1664
  491loPI   C5A 7851  15.173   1.778   8.275  0.1254  0.0422  0.0305
  491loPI   C6A 7852  15.161   1.732   7.900 -0.0719 -0.1961  0.4775
  491loPI   C1B 7853  15.808   1.765   9.643  0.1572  0.0525  0.0088
  491loPI   C2B 7854  15.785   1.700   9.305  0.0742  0.1206  0.2050
  491loPI   C3B 7855  15.678   1.732   8.861 -0.0528 -0.1485  0.0858
  491loPI   C4B 7856  15.656   1.780   8.406  0.2689  0.1654 -0.0122
  492loPI    C1 7857   6.993  17.286  11.034 -0.0519  0.1347  0.0726
  492loPI    C2 7858   6.880  17.371  11.408  0.2134  0.2322  0.1324
  492loPI    C3 7859   7.117  17.624  11.208 -0.0326  0.2445 -0.1501
  492loPI   PO4 7860   7.087  17.096  10.993  0.0277  0.0490 -0.0048
  492loPI   GL1 7861   7.231  17.106  10.604  0.3535  0.1369 -0.0636
  492loPI   GL2 7862   6.844  16.982  10.578  0.0862  0.1262 -0.3130
  492loPI   C1A 7863   7.239  17.401  10.221 -0.1803 -0.3315 -0.4467
  492loPI   C2A 7864   7.133  17.534   9.918  0.1734 -0.1197  0.0443
  492loPI   C3A 7865   7.198  17.492   9.527 -0.0084 -0.3846  0.0364
  492loPI   C4A 7866   7.257  17.481   9.095 -0.3046  0.0269  0.1344
  492loPI   C5A 7867   7.154  17.424   8.612 -0.1999 -0.2907  0.1562
  492loPI   C6A 7868   6.962  17.128   8.264 -0.1548 -0.1341  0.1517
  492loPI   C1B 7869   7.037  16.929  10.151 -0.0013  0.1448 -0.0074
  492loPI   C2B 7870   7.199  16.898   9.703  0.3042 -0.1623  0.1360
  492loPI   C3B 7871   7.310  16.951   9.252 -0.0567  0.0083  0.3031
  492loPI   C4B 7872   7.232  16.987   8.893 -0.0041 -0.3364 -0.0029
  493loPI    C1 7873   2.417  11.680  11.742 -0.0737  0.0134 -0.0297
  493loPI    C2 7874   2.053  11.559  11.858 -0.1094  0.1233 -0.0261
  493loPI    C3 7875   2.239  11.853  12.056  0.0681 -0.0698  0.0980
  493loPI   PO4 7876   2.374  11.731  11.396  0.1417 -0.0824 -0.2091
  493loPI   GL1 7877   2.378  11.673  10.960 -0.0591  0.1362 -0.3097
  493loPI   GL2 7878   2.078  11.337  10.940  0.0043 -0.4264  0.1755
  493loPI   C1A 7879   2.364  11.692  10.513  0.1478  0.3277 -0.1920
  493loPI   C2A 7880   2.334  11.654  10.126  0.1098 -0.1879  0.0866
  493loPI   C3A 7881   2.318  11.729   9.705 -0.0015  0.1257 -0.0540
  493loPI   C4A 7882   2.247  11.802   9.263  0.1491  0.0847  0.0541
  493loPI   C5A 7883   2.401  11.713   8.819  0.0105 -0.0234  0.0697
  493loPI   C6A 7884   2.548  11.584   8.390  0.1163 -0.3300 -0.1305
  493loPI   C1B 7885   2.370  11.209  10.562 -0.4667  0.0457 -0.1018
  493loPI   C2B 7886   2.399  11.138  10.055  0.2358  0.0725  0.2749
  493loPI   C3B 7887   2.397  11.200   9.679  0.0808  0.0176  0.3552
  493loPI   C4B 7888   2.370  11.233   9.183 -0.0144 -0.2712  0.2003
  494loPI    C1 7889  17.718   9.738  11.480  0.1671  0.0943  0.0278
  494loPI    C2 7890  17.345   9.882  11.508  0.0413 -0.2133 -0.0320
  494loPI    C3 7891  17.566   9.834  11.838  0.0477  0.0165 -0.0015
  494loPI   PO4 7892  17.688   9.569  11.217  0.0240  0.1097  0.2513
  494loPI   GL1 7893  17.777   9.628  10.753 -0.0936 -0.0283  0.1178
  494loPI   GL2 7894  17.561   9.393  10.708  0.1480 -0.2090 -0.1069
  494loPI   C1A 7895  17.556   9.781  10.428  0.1597 -0.2460 -0.0035
  494loPI   C2A 7896  17.600   9.792  10.017 -0.2720  0.1945 -0.1211
  494loPI   C3A 7897  17.558   9.728   9.616  0.0025 -0.1614  0.2310
  494loPI   C4A 7898  17.629   9.834   9.341  0.0060  0.0775  0.1121
  494loPI   C5A 7899  17.592   9.893   9.014 -0.2004 -0.1241 -0.2599
  494loPI   C6A 7900  17.542  10.056   8.644 -0.3309 -0.0260 -0.2227
  494loPI   C1B 7901  17.736   9.260  10.280 -0.1118  0.2055 -0.1905
  494loPI   C2B 7902  17.721   9.269   9.825 -0.1767  0.0121 -0.0621
  494loPI   C3B 7903  17.692   9.338   9.390  0.1087 -0.3412 -0.3103
  494loPI   C4B 7904  17.602   9.407   8.976 -0.1700  0.1359 -0.1121
  495loPI    C1 7905  17.504   3.981  11.331 -0.0023  0.2241  0.1876
  495loPI    C2 7906  17.780   3.707  11.422  0.0299  0.2121  0.0551
  495loPI    C3 7907  17.594   3.907  11.713 -0.0353  0.0088  0.1551
  495loPI   PO4 7908  17.600   4.045  11.020  0.2423 -0.0625 -0.2726
  495loPI   GL1 7909  17.778   4.164  10.734  0.0906  0.2901 -0.1978
  495loPI   GL2 7910  18.062   4.301  10.804  0.1526  0.1675  0.0930
  495loPI   C1A 7911  17.708   4.297  10.248 -0.1228 -0.1949 -0.0801
  495loPI   C2A 7912  17.710   4.296   9.803 -0.1560  0.1757  0.0359
  495loPI   C3A 7913  17.745   4.300   9.327 -0.2535 -0.3009  0.0300
  495loPI   C4A 7914  17.794   4.322   8.939  0.1351 -0.0319 -0.3110
  495loPI   C5A 7915  17.961   4.185   8.600 -0.1425  0.3070  0.1651
  495loPI   C6A 7916  18.079   3.720   8.495  0.1442  0.0951  0.2312
  495loPI   C1B 7917  18.150   4.037  10.451  0.4370  0.0353 -0.1143
  495loPI   C2B 7918  18.213   4.107   9.944 -0.0649 -0.3728  0.2198
  495loPI   C3B 7919  18.186   4.121   9.494  0.0093  0.1253 -0.0504
  495loPI   C4B 7920  18.249   4.079   9.074 -0.0095  0.1964 -0.1424
  496loPI    C1 7921  16.565  13.500  11.250  0.0254 -0.0638 -0.0388
  496loPI    C2 7922  16.257  13.262  11.341 -0.1274  0.1756  0.0818
  496loPI    C3 7923  16.342  13.576  11.574  0.1516  0.1659 -0.0036
  496loPI   PO4 7924  16.529  13.525  10.982 -0.4143  0.1501 -0.3141
  496loPI   GL1 7925  16.433  13.671  10.653 -0.0728  0.0513  0.0388
  496loPI   GL2 7926  16.200  13.961  10.689 -0.1759 -0.0414 -0.0372
  496loPI   C1A 7927  16.664  13.577  10.216  0.1120 -0.0859  0.1621
  496loPI   C2A 7928  16.959  13.896  10.053 -0.1330  0.0481 -0.1246
  496loPI   C3A 7929  17.096  13.940   9.576 -0.0146 -0.0694 -0.1513
  496loPI   C4A 7930  17.167  13.904   9.149  0.1217  0.1752  0.1283
  496loPI   C5A 7931  17.322  13.870   8.706 -0.0677  0.0107 -0.1021
  496loPI   C6A 7932  17.370  13.728   8.214 -0.0126  0.2119 -0.1134
  496loPI   C1B 7933  16.356  13.975  10.282  0.0220 -0.0349 -0.2180
  496loPI   C2B 7934  16.279  13.914   9.877 -0.0775 -0.2497  0.2630
  496loPI   C3B 7935  16.294  13.804   9.377  0.1180  0.2979  0.1525
  496loPI   C4B 7936  16.237  13.933   8.976 -0.0334 -0.0736  0.0468
  497loPI    C1 7937   4.608   0.819  10.854  0.1129  0.0810  0.0017
  497loPI    C2 7938   4.922   0.610  10.985  0.0183 -0.0973 -0.0528
  497loPI    C3 7939   4.708   0.830  11.241 -0.0652 -0.3102  0.0634
  497loPI   PO4 7940   4.610   0.826  10.564  0.3450  0.2886 -0.1185
  497loPI   GL1 7941   4.563   0.694  10.258  0.0388 -0.3879  0.3007
  497loPI   GL2 7942   4.295   0.904  10.122  0.4150  0.2769  0.0014
  497loPI   C1A 7943   4.744   0.637   9.873 -0.1798 -0.1679  0.1330
  497loPI   C2A 7944   4.733   0.555   9.470 -0.0861  0.1557  0.0896
  497loPI   C3A 7945   4.902   0.653   9.034  0.1980 -0.1778  0.1742
  497loPI   C4A 7946   4.865   0.549   8.617  0.1744 -0.2737 -0.0557
  497loPI   C5A 7947   4.973   0.777   8.308  0.3320  0.0826  0.3615
  497loPI   C6A 7948   4.652   1.105   8.253  0.1557 -0.4958  0.0239
  497loPI   C1B 7949   4.260   0.666   9.756 -0.3456  0.2025  0.2459
  497loPI   C2B 7950   4.267   0.809   9.289 -0.3611  0.0029 -0.4853
  497loPI   C3B 7951   4.374   0.786   8.820  0.0302 -0.1062 -0.0070
  497loPI   C4B 7952   4.402   0.693   8.381  0.1970 -0.0911 -0.2164
  498loPI    C1 7953   2.996   5.007  11.237  0.0335 -0.3094 -0.1652
  498loPI    C2 7954   3.298   5.073  11.491 -0.1064  0.0474 -0.0857
  498loPI    C3 7955   2.988   4.845  11.603 -0.0753  0.0431 -0.0076
  498loPI   PO4 7956   3.112   4.896  11.036  0.0364  0.0473 -0.1211
  498loPI   GL1 7957   3.039   5.192  10.633  0.0523 -0.0548  0.1062
  498loPI   GL2 7958   3.054   4.896  10.514  0.0947 -0.0535  0.0673
  498loPI   C1A 7959   2.938   5.433  10.185  0.0099  0.2195  0.1217
  498loPI   C2A 7960   2.866   5.489   9.744  0.3809 -0.2663  0.1262
  498loPI   C3A 7961   2.907   5.489   9.361 -0.0970  0.1484 -0.2234
  498loPI   C4A 7962   2.861   5.373   8.937  0.0285  0.0414 -0.1453
  498loPI   C5A 7963   2.854   5.291   8.417  0.1403 -0.3156  0.1583
  498loPI   C6A 7964   2.443   5.404   8.164  0.0485 -0.2082  0.2077
  498loPI   C1B 7965   3.024   4.954  10.040 -0.0644  0.1518 -0.0466
  498loPI   C2B 7966   3.002   4.976   9.563 -0.2110 -0.1163  0.1209
  498loPI   C3B 7967   3.053   4.902   9.125 -0.1773 -0.1299  0.1124
  498loPI   C4B 7968   2.908   4.845   8.649 -0.3692 -0.1004 -0.1079
  499loPI    C1 7969   1.228   6.583  11.455 -0.3558 -0.1688  0.1471
  499loPI    C2 7970   1.594   6.517  11.602 -0.1559  0.0158 -0.2511
  499loPI    C3 7971   1.296   6.624  11.847  0.0486 -0.1539  0.0795
  499loPI   PO4 7972   1.349   6.677  11.187  0.0309  0.0600 -0.1343
  499loPI   GL1 7973   1.210   6.655  10.783 -0.0499 -0.1550 -0.2010
  499loPI   GL2 7974   1.457   6.492  10.751  0.1773  0.2375  0.3436
  499loPI   C1A 7975   1.001   6.760  10.484 -0.0436  0.2489 -0.0775
  499loPI   C2A 7976   0.934   6.738   9.995 -0.2367  0.2076 -0.1535
  499loPI   C3A 7977   0.901   6.819   9.517 -0.0178 -0.4115  0.1932
  499loPI   C4A 7978   0.972   6.802   9.066 -0.2510 -0.2904  0.2582
  499loPI   C5A 7979   1.075   7.038   8.645  0.0994  0.0213  0.0061
  499loPI   C6A 7980   0.966   7.057   8.232 -0.0761  0.0175  0.0103
  499loPI   C1B 7981   1.384   6.548  10.265 -0.1920  0.0830  0.0942
  499loPI   C2B 7982   1.491   6.685   9.899 -0.0313 -0.0720 -0.2297
  499loPI   C3B 7983   1.396   6.633   9.439 -0.3263  0.2679 -0.0291
  499loPI   C4B 7984   1.387   6.522   9.030  0.1630 -0.1473 -0.0545
  500loPI    C1 7985  13.691  10.259  11.032  0.1090 -0.0072  0.1229
  500loPI    C2 7986  13.497   9.942  10.883 -0.0812  0.1153  0.1062
  500loPI    C3 7987  13.649   9.928  11.253  0.2712 -0.1400 -0.0420
  500loPI   PO4 7988  13.876  10.407  10.854 -0.1077  0.0778 -0.0012
  500loPI   GL1 7989  14.071  10.475  10.439 -0.2363 -0.0558  0.0487
  500loPI   GL2 7990  13.852  10.638  10.392  0.0333 -0.1603 -0.2498
  500loPI   C1A 7991  14.075  10.415  10.030 -0.3752  0.0113 -0.0349
  500loPI   C2A 7992  14.331  10.262   9.693  0.1342  0.0647  0.0220
  500loPI   C3A 7993  14.412  10.114   9.290 -0.0105  0.1640  0.1753
  500loPI   C4A 7994  14.424  10.166   8.889  0.1547 -0.0677  0.3547
  500loPI   C5A 7995  14.542  10.252   8.554  0.1868  0.1557 -0.2062
  500loPI   C6A 7996  14.783  10.446   8.231  0.3331  0.3825 -0.0308
  500loPI   C1B 7997  13.920  10.926  10.015  0.3242  0.0362  0.2406
  500loPI   C2B 7998  13.918  10.984   9.573  0.4126 -0.0401 -0.2831
  500loPI   C3B 7999  13.980  10.927   9.223  0.3252  0.3692 -0.0879
  500loPI   C4B 8000  13.983  10.890   8.825 -0.0346 -0.1681  0.0059
  501loPI    C1 8001  16.798  14.401  11.412 -0.0465 -0.0273 -0.1045
  501loPI    C2 8002  16.638  14.652  11.679 -0.1132 -0.1179 -0.0586
  501loPI    C3 8003  16.770  14.293  11.796  0.3510  0.0498 -0.0505
  501loPI   PO4 8004  16.661  14.478  11.218  0.1269 -0.0699  0.0685
  501loPI   GL1 8005  16.553  14.527  10.835  0.0245 -0.0867  0.0374
  501loPI   GL2 8006  16.529  14.301  10.570 -0.1063  0.2413 -0.0051
  501loPI   C1A 8007  16.535  14.790  10.513 -0.0834  0.1385 -0.1274
  501loPI   C2A 8008  16.530  14.742   9.995  0.1865  0.0254 -0.0665
  501loPI   C3A 8009  16.529  14.708   9.576 -0.2074 -0.1697 -0.0427
  501loPI   C4A 8010  16.739  14.733   9.236 -0.2918 -0.0376 -0.4107
  501loPI   C5A 8011  16.815  14.657   8.880 -0.0757 -0.3540 -0.0366
  501loPI   C6A 8012  16.847  14.830   8.458  0.2055 -0.1762 -0.2371
  501loPI   C1B 8013  16.694  14.358  10.230 -0.1755 -0.0298 -0.0905
  501loPI   C2B 8014  16.700  14.228   9.829  0.3245 -0.0048  0.2285
  501loPI   C3B 8015  16.586  14.138   9.486  0.0570  0.0036  0.0623
  501loPI   C4B 8016  16.728  14.162   9.119 -0.1819 -0.1537  0.2315
  502loPI    C1 8017   4.243   7.097  11.231 -0.1548 -0.1887  0.0662
  502loPI    C2 8018   4.486   7.347  11.428  0.1151 -0.3253 -0.0870
  502loPI    C3 8019   4.230   7.116  11.631  0.1532 -0.2227  0.0804
  502loPI   PO4 8020   4.267   7.152  11.041 -0.1637  0.1156 -0.2281
  502loPI   GL1 8021   4.393   7.209  10.648 -0.4730  0.0320  0.2106
  502loPI   GL2 8022   4.077   7.421  10.625 -0.1350  0.1116 -0.2215
  502loPI   C1A 8023   4.545   7.284  10.246  0.0018 -0.0068 -0.1837
  502loPI   C2A 8024   4.447   7.197   9.782  0.1095  0.0554 -0.1544
  502loPI   C3A 8025   4.507   7.194   9.348  0.0683  0.2118 -0.3589
  502loPI   C4A 8026   4.561   7.092   8.929  0.0935  0.1127 -0.0585
  502loPI   C5A 8027   4.385   7.231   8.640  0.0132  0.2190 -0.0096
  502loPI   C6A 8028   4.396   7.574   8.339 -0.3429  0.2334  0.0305
  502loPI   C1B 8029   3.968   7.473  10.217 -0.1039  0.2035 -0.0085
  502loPI   C2B 8030   4.035   7.449   9.711  0.4713 -0.4048  0.1283
  502loPI   C3B 8031   4.108   7.571   9.416 -0.0290 -0.2748 -0.3449
  502loPI   C4B 8032   4.471   7.596   9.020 -0.0173  0.2322 -0.0503
  503loPI    C1 8033   7.300  13.153  11.226 -0.4557 -0.1676  0.1353
  503loPI    C2 8034   7.523  12.943  11.484  0.0212  0.2022  0.0397
  503loPI    C3 8035   7.268  13.221  11.619  0.3827  0.5039  0.1170
  503loPI   PO4 8036   7.481  13.182  10.965 -0.0521  0.1269  0.1142
  503loPI   GL1 8037   7.392  13.301  10.569 -0.1168 -0.0127  0.0033
  503loPI   GL2 8038   7.723  13.209  10.322 -0.1353 -0.3199 -0.2096
  503loPI   C1A 8039   7.238  13.375  10.195 -0.5120 -0.1291  0.3211
  503loPI   C2A 8040   7.147  13.361   9.737  0.2007  0.1439 -0.2509
  503loPI   C3A 8041   7.113  13.505   9.306 -0.1877  0.1357 -0.1146
  503loPI   C4A 8042   7.088  13.711   8.842 -0.0631 -0.1885  0.2393
  503loPI   C5A 8043   7.395  13.993   8.573  0.1493  0.0076  0.2073
  503loPI   C6A 8044   7.700  13.846   8.411 -0.1782 -0.2519 -0.0257
  503loPI   C1B 8045   7.660  13.197   9.893  0.1242  0.1945  0.1556
  503loPI   C2B 8046   7.585  13.310   9.470  0.3338 -0.0413  0.3596
  503loPI   C3B 8047   7.517  13.323   8.996 -0.0545 -0.2264  0.2238
  503loPI   C4B 8048   7.523  12.934   8.707 -0.0590 -0.2640 -0.0399
  504loPI    C1 8049  10.241  10.672  10.691 -0.0936  0.0473  0.1393
  504loPI    C2 8050  10.193  10.601  11.081  0.0465  0.1715  0.1801
  504loPI    C3 8051  10.550  10.712  10.941 -0.0247  0.2130  0.0292
  504loPI   PO4 8052  10.061  10.773  10.641  0.0644  0.0621 -0.1963
  504loPI   GL1 8053   9.749  10.696  10.308  0.0118  0.0815  0.0988
  504loPI   GL2 8054  10.009  10.944  10.176 -0.0852  0.2557  0.0913
  504loPI   C1A 8055   9.584  10.366   9.914  0.2204 -0.1187 -0.1003
  504loPI   C2A 8056   9.479  10.288   9.448  0.0248  0.1062 -0.0281
  504loPI   C3A 8057   9.453  10.111   9.116  0.0365 -0.0104  0.0620
  504loPI   C4A 8058   9.662   9.796   8.792 -0.3958 -0.1231 -0.0799
  504loPI   C5A 8059   9.422   9.481   8.499  0.2602  0.2405 -0.2219
  504loPI   C6A 8060   9.279   9.202   8.178 -0.1830  0.3570 -0.2164
  504loPI   C1B 8061   9.835  10.808   9.793 -0.1444  0.0920  0.1708
  504loPI   C2B 8062   9.650  10.860   9.418 -0.2990 -0.2152 -0.0698
  504loPI   C3B 8063   9.781  11.137   9.049  0.1211  0.2831  0.1107
  504loPI   C4B 8064   9.769  11.131   8.682 -0.0013 -0.3095  0.2433
  505loPI    C1 8065   7.844   8.893  10.432  0.1080 -0.1189 -0.0619
  505loPI    C2 8066   8.109   9.017  10.705 -0.0996 -0.0631  0.1166
  505loPI    C3 8067   8.001   9.260  10.407  0.1752 -0.1468 -0.0544
  505loPI   PO4 8068   7.633   8.845  10.548  0.0770 -0.1757 -0.2562
  505loPI   GL1 8069   7.312   8.801  10.332 -0.2479  0.3298 -0.0065
  505loPI   GL2 8070   7.155   9.093  10.162  0.2265 -0.2560 -0.1003
  505loPI   C1A 8071   7.214   8.581   9.981 -0.0466  0.0256 -0.0524
  505loPI   C2A 8072   7.094   8.500   9.517 -0.0675  0.2552 -0.0472
  505loPI   C3A 8073   7.062   8.566   9.062 -0.0329 -0.1239  0.0539
  505loPI   C4A 8074   7.072   8.607   8.614 -0.0145  0.0727 -0.2784
  505loPI   C5A 8075   6.713   8.353   8.399 -0.0951 -0.3010 -0.0892
  505loPI   C6A 8076   6.295   8.417   8.343 -0.0158 -0.3231 -0.0236
  505loPI   C1B 8077   7.187   9.012   9.722  0.0005 -0.0811  0.0986
  505loPI   C2B 8078   7.042   9.016   9.298  0.1816 -0.2945  0.0748
  505loPI   C3B 8079   6.870   9.053   8.976  0.0075 -0.0431 -0.2089
  505loPI   C4B 8080   7.095   9.144   8.622 -0.1328  0.2628 -0.2056
  506loPI    C1 8081  14.221   2.470  10.929 -0.1286 -0.1213 -0.0252
  506loPI    C2 8082  14.584   2.574  11.060 -0.0994 -0.0686 -0.1466
  506loPI    C3 8083  14.259   2.678  11.268 -0.0476 -0.0774 -0.0609
  506loPI   PO4 8084  14.209   2.514  10.750  0.3346 -0.0840  0.1517
  506loPI   GL1 8085  13.960   2.732  10.545 -0.1864  0.0422  0.2023
  506loPI   GL2 8086  13.818   2.992  10.513  0.1829  0.1149 -0.0045
  506loPI   C1A 8087  13.892   2.459  10.158 -0.2090 -0.0284 -0.0854
  506loPI   C2A 8088  13.932   2.530   9.689  0.1429 -0.1122 -0.3584
  506loPI   C3A 8089  13.903   2.627   9.260  0.0244  0.0406  0.0322
  506loPI   C4A 8090  13.930   2.612   8.793  0.1117 -0.1170 -0.3483
  506loPI   C5A 8091  13.976   2.570   8.450  0.0580 -0.2325  0.0984
  506loPI   C6A 8092  13.906   2.260   8.108  0.1487 -0.2522 -0.0564
  506loPI   C1B 8093  13.900   3.037  10.026  0.3129 -0.2005 -0.2425
  506loPI   C2B 8094  13.918   3.026   9.669 -0.0215 -0.1054 -0.1484
  506loPI   C3B 8095  13.924   3.180   9.254 -0.1448  0.1400 -0.1839
  506loPI   C4B 8096  13.939   3.209   8.799  0.0367 -0.0000  0.2277
  507loPI    C1 8097  10.680   0.384  11.327  0.0863 -0.1170  0.0034
  507loPI    C2 8098  10.530   0.588  11.636  0.2066  0.0933 -0.0743
  507loPI    C3 8099  10.501   0.189  11.626  0.1626  0.0881  0.1856
  507loPI   PO4 8100  10.653   0.415  11.032  0.0042  0.1374 -0.1739
  507loPI   GL1 8101  10.633   0.303  10.648  0.2624  0.3148  0.0564
  507loPI   GL2 8102  10.697   0.098  10.683  0.0911 -0.1310 -0.1236
  507loPI   C1A 8103  10.705   0.520  10.262  0.3989 -0.3251 -0.0823
  507loPI   C2A 8104  10.759   0.456   9.850 -0.0883  0.1377 -0.3778
  507loPI   C3A 8105  10.630   0.479   9.453 -0.1009 -0.1085  0.2151
  507loPI   C4A 8106  10.573   0.602   9.038  0.1248  0.1007 -0.0316
  507loPI   C5A 8107  10.797   0.660   8.718  0.2048 -0.0725 -0.0106
  507loPI   C6A 8108  11.004   0.895   8.375 -0.2984 -0.0480 -0.0036
  507loPI   C1B 8109  10.687   0.016  10.203  0.1017 -0.0245  0.1063
  507loPI   C2B 8110  10.356   0.091   9.875 -0.0555  0.0434  0.0335
  507loPI   C3B 8111  10.236   0.196   9.457  0.4902  0.0017  0.0192
  507loPI   C4B 8112  10.182   0.271   8.989 -0.1042 -0.1205 -0.1051
  508loPI    C1 8113   3.019   6.041  11.319  0.1485 -0.0697 -0.0694
  508loPI    C2 8114   2.992   5.913  11.697 -0.2538  0.1569 -0.0153
  508loPI    C3 8115   3.190   6.250  11.614 -0.1081  0.0716 -0.0175
  508loPI   PO4 8116   3.106   5.880  11.191 -0.2432 -0.2459 -0.0829
  508loPI   GL1 8117   2.976   5.696  10.668  0.3089 -0.3475 -0.0998
  508loPI   GL2 8118   3.306   5.835  10.745 -0.0134  0.1904  0.3078
  508loPI   C1A 8119   2.915   5.972  10.330 -0.1297 -0.0384 -0.0139
  508loPI   C2A 8120   2.911   6.001   9.876  0.0729  0.1275  0.0021
  508loPI   C3A 8121   2.877   5.951   9.495  0.5804 -0.2081  0.1015
  508loPI   C4A 8122   2.884   5.995   9.066 -0.2480  0.2605  0.2051
  508loPI   C5A 8123   2.844   6.137   8.713 -0.2013  0.3395 -0.0341
  508loPI   C6A 8124   2.732   6.508   8.601 -0.0958  0.0244  0.0018
  508loPI   C1B 8125   3.501   5.876  10.371  0.0786 -0.1433  0.0869
  508loPI   C2B 8126   3.323   5.748   9.990  0.1241  0.0503  0.3532
  508loPI   C3B 8127   3.359   5.693   9.539 -0.3184 -0.1262 -0.0798
  508loPI   C4B 8128   3.364   5.736   9.104 -0.0620  0.0913 -0.2671
  509loPI    C1 8129   6.040   0.693  11.234 -0.2329 -0.0246  0.1143
  509loPI    C2 8130   6.069   0.889  11.582 -0.0115  0.0515  0.0541
  509loPI    C3 8131   6.323   0.592  11.497 -0.1760 -0.0839  0.0304
  509loPI   PO4 8132   6.044   0.833  11.018  0.1040  0.3036 -0.3344
  509loPI   GL1 8133   5.836   0.995  10.619 -0.3007 -0.0196  0.1569
  509loPI   GL2 8134   5.581   0.881  10.521  0.3603 -0.1234 -0.0248
  509loPI   C1A 8135   6.066   1.137  10.306  0.1314  0.1201 -0.0213
  509loPI   C2A 8136   6.007   1.086   9.850  0.1993  0.0782  0.2818
  509loPI   C3A 8137   6.088   1.075   9.480  0.0184  0.0043  0.0331
  509loPI   C4A 8138   6.145   1.047   9.085 -0.0096 -0.0441  0.3037
  509loPI   C5A 8139   6.092   0.827   8.747  0.2582  0.1046  0.1064
  509loPI   C6A 8140   6.202   0.728   8.270 -0.0537 -0.1306  0.0953
  509loPI   C1B 8141   5.553   0.824  10.039  0.0920  0.2784  0.2066
  509loPI   C2B 8142   5.696   0.667   9.579  0.1296 -0.2356  0.0502
  509loPI   C3B 8143   5.711   0.675   9.077  0.3496 -0.0315  0.1718
  509loPI   C4B 8144   5.702   0.607   8.589  0.1218 -0.1746  0.2465
  510loPI    C1 8145   4.067   7.723  11.031 -0.1227  0.1328  0.0243
  510loPI    C2 8146   3.996   7.533  11.376  0.0733  0.0161  0.0024
  510loPI    C3 8147   3.816   7.412  11.040 -0.0904  0.1075  0.0560
  510loPI   PO4 8148   4.311   7.693  10.973 -0.0437 -0.1169 -0.4908
  510loPI   GL1 8149   4.512   7.752  10.641 -0.1091  0.0635  0.1705
  510loPI   GL2 8150   4.525   8.058  10.729 -0.2354  0.0443 -0.0788
  510loPI   C1A 8151   4.450   7.749  10.258 -0.0441 -0.1426 -0.1449
  510loPI   C2A 8152   4.424   7.739   9.785 -0.1178  0.0430 -0.2706
  510loPI   C3A 8153   4.694   7.626   9.445 -0.1835 -0.1132  0.2090
  510loPI   C4A 8154   4.953   7.445   9.128 -0.0684  0.2347  0.0500
  510loPI   C5A 8155   5.156   7.450   8.711 -0.1814 -0.0510  0.2498
  510loPI   C6A 8156   5.388   7.737   8.752  0.2006  0.1327 -0.0894
  510loPI   C1B 8157   4.434   8.299  10.391 -0.2828  0.2466 -0.0507
  510loPI   C2B 8158   4.390   8.203   9.983  0.0846 -0.1582  0.3278
  510loPI   C3B 8159   4.357   8.167   9.597  0.0065  0.0147  0.3430
  510loPI   C4B 8160   4.605   8.103   9.202  0.2285 -0.0798  0.3049
  511loPI    C1 8161  14.432  15.506  11.406  0.0756 -0.0331  0.2604
  511loPI    C2 8162  14.619  15.155  11.452  0.2046 -0.0021 -0.0090
  511loPI    C3 8163  14.264  15.217  11.625  0.1685 -0.2752  0.0184
  511loPI   PO4 8164  14.452  15.535  11.141  0.1719  0.0181 -0.0985
  511loPI   GL1 8165  14.374  15.531  10.715 -0.0725  0.0472 -0.0761
  511loPI   GL2 8166  14.132  15.570  10.494 -0.2363 -0.2328  0.3627
  511loPI   C1A 8167  14.663  15.421  10.307 -0.5246  0.1347 -0.2447
  511loPI   C2A 8168  14.652  15.401   9.864 -0.2008 -0.0136  0.2128
  511loPI   C3A 8169  14.636  15.509   9.444 -0.2439  0.1841 -0.2208
  511loPI   C4A 8170  14.826  15.473   9.037  0.1692  0.2095  0.3061
  511loPI   C5A 8171  15.018  15.518   8.599 -0.1316 -0.2908 -0.0800
  511loPI   C6A 8172  15.004  15.732   8.194 -0.5074  0.0858  0.2787
  511loPI   C1B 8173  14.194  15.603  10.058 -0.0585 -0.1347 -0.0697
  511loPI   C2B 8174  14.200  15.563   9.656  0.2008 -0.2090 -0.1122
  511loPI   C3B 8175  14.185  15.604   9.213 -0.1832  0.1863 -0.1811
  511loPI   C4B 8176  14.320  15.601   8.802  0.1778  0.1532  0.1643
  512loPI    C1 8177   0.584  12.579  11.013  0.0519 -0.1467  0.2764
  512loPI    C2 8178   0.921  12.740  11.157  0.1101 -0.0455  0.0326
  512loPI    C3 8179   0.619  12.653  11.404  0.2349  0.0574  0.2238
  512loPI   PO4 8180   0.476  12.680  10.745 -0.1858 -0.0346  0.0038
  512loPI   GL1 8181   0.400  12.681  10.347  0.0225 -0.0633 -0.1720
  512loPI   GL2 8182   0.254  13.081  10.337  0.2353 -0.0687  0.2747
  512loPI   C1A 8183   0.284  12.596   9.887 -0.0517 -0.0851 -0.0164
  512loPI   C2A 8184   0.322  12.557   9.447 -0.0507  0.2136  0.0597
  512loPI   C3A 8185   0.412  12.541   9.042  0.4127  0.2497 -0.0591
  512loPI   C4A 8186   0.248  12.440   8.637  0.2679 -0.3725 -0.1620
  512loPI   C5A 8187   0.018  12.188   8.304  0.0002 -0.2026  0.3067
  512loPI   C6A 8188  -0.301  11.868   8.353 -0.2020  0.1438 -0.0597
  512loPI   C1B 8189   0.186  13.047   9.942 -0.1017  0.0174  0.1916
  512loPI   C2B 8190   0.274  13.035   9.536  0.2933 -0.0728 -0.0995
  512loPI   C3B 8191   0.359  13.049   9.115 -0.0547 -0.2678  0.0729
  512loPI   C4B 8192   0.444  12.968   8.730  0.4454 -0.0373  0.3285
  513loPI    C1 8193   0.079   2.708  11.238 -0.0350  0.0151 -0.0736
  513loPI    C2 8194   0.241   2.900  11.549  0.0947  0.2428 -0.2787
  513loPI    C3 8195  -0.154   2.912  11.491  0.0397 -0.0104  0.0168
  513loPI   PO4 8196   0.209   2.739  11.008  0.1623 -0.0781 -0.1022
  513loPI   GL1 8197   0.066   2.824  10.530 -0.0536 -0.1893 -0.0024
  513loPI   GL2 8198  -0.135   2.681  10.417 -0.1018 -0.0742 -0.0434
  513loPI   C1A 8199   0.137   2.813  10.070  0.0008 -0.1778  0.2310
  513loPI   C2A 8200   0.046   2.728   9.658 -0.0154 -0.1665 -0.1472
  513loPI   C3A 8201  -0.071   2.711   9.256 -0.0427  0.3299  0.0359
  513loPI   C4A 8202  -0.006   2.711   8.845  0.1341 -0.2565  0.0354
  513loPI   C5A 8203  -0.016   2.641   8.403 -0.1116 -0.1064  0.1833
  513loPI   C6A 8204  -0.191   2.919   8.112  0.0467  0.0090  0.0955
  513loPI   C1B 8205  -0.323   2.510  10.040 -0.0034  0.1380 -0.1876
  513loPI   C2B 8206  -0.394   2.376   9.627  0.1219  0.0482 -0.0542
  513loPI   C3B 8207  -0.469   2.373   9.142 -0.2419  0.2057  0.0119
  513loPI   C4B 8208  -0.350   2.397   8.746 -0.2279  0.2697  0.4380
  514loPI    C1 8209   7.026   2.061  11.250  0.1193 -0.0270  0.1322
  514loPI    C2 8210   6.843   1.804  11.496 -0.2231  0.0630 -0.0229
  514loPI    C3 8211   6.897   2.185  11.608 -0.1700  0.0474  0.0050
  514loPI   PO4 8212   6.978   2.086  11.010 -0.0002 -0.3070 -0.0990
  514loPI   GL1 8213   6.834   1.916  10.597  0.0427 -0.2239 -0.0756
  514loPI   GL2 8214   7.006   1.697  10.655  0.0688  0.1554 -0.0446
  514loPI   C1A 8215   6.885   2.199  10.320  0.4180  0.0823 -0.0937
  514loPI   C2A 8216   6.927   2.156   9.898  0.1450  0.0132  0.0276
  514loPI   C3A 8217   6.841   2.192   9.444 -0.0590 -0.0349  0.0088
  514loPI   C4A 8218   6.902   2.141   9.058 -0.3007 -0.1798  0.2029
  514loPI   C5A 8219   6.886   2.186   8.619 -0.0552  0.0823  0.4557
  514loPI   C6A 8220   6.674   2.325   8.294  0.2311 -0.1165 -0.4232
  514loPI   C1B 8221   7.001   1.711  10.230 -0.2851  0.1321 -0.1143
  514loPI   C2B 8222   6.892   1.643   9.805 -0.0707  0.2318 -0.3674
  514loPI   C3B 8223   6.914   1.686   9.388  0.1090 -0.1710  0.1242
  514loPI   C4B 8224   6.916   1.613   8.992  0.2378 -0.0627  0.2095
  515loPI    C1 8225   4.884  11.235  11.379 -0.0665 -0.0462  0.1979
  515loPI    C2 8226   4.552  11.313  11.589 -0.0817 -0.1684  0.2197
  515loPI    C3 8227   4.911  11.334  11.765 -0.0877 -0.1752  0.2327
  515loPI   PO4 8228   4.880  11.358  11.134  0.0614 -0.2136 -0.0831
  515loPI   GL1 8229   4.896  11.492  10.703  0.4311  0.1692 -0.3108
  515loPI   GL2 8230   4.692  11.251  10.609 -0.0931 -0.4549 -0.1541
  515loPI   C1A 8231   5.026  11.513  10.272 -0.0363 -0.1225  0.1959
  515loPI   C2A 8232   5.128  11.522   9.866  0.1219  0.1214 -0.2136
  515loPI   C3A 8233   5.040  11.474   9.416  0.1354  0.0689 -0.0741
  515loPI   C4A 8234   5.105  11.424   9.005 -0.0225  0.0294  0.0681
  515loPI   C5A 8235   4.887  11.340   8.517 -0.1389  0.1317  0.0173
  515loPI   C6A 8236   4.551  11.287   8.204  0.0195 -0.0074 -0.2493
  515loPI   C1B 8237   4.607  11.200  10.231  0.0828  0.0019  0.2396
  515loPI   C2B 8238   4.605  11.098   9.784 -0.1994  0.0068 -0.2408
  515loPI   C3B 8239   4.582  11.143   9.373 -0.0802 -0.4274  0.1642
  515loPI   C4B 8240   4.527  11.131   8.854 -0.1383 -0.1884  0.1447
  516loPI    C1 8241  17.236   2.193  11.141 -0.1045 -0.1570  0.1509
  516loPI    C2 8242  17.452   2.112  11.469  0.2798 -0.0794 -0.0767
  516loPI    C3 8243  17.496   2.463  11.282  0.0007 -0.0893 -0.1658
  516loPI   PO4 8244  17.291   2.008  10.959 -0.3573 -0.0849  0.0036
  516loPI   GL1 8245  17.181   2.027  10.487  0.0483  0.0701 -0.0487
  516loPI   GL2 8246  17.108   1.713  10.512 -0.1742 -0.2831 -0.0696
  516loPI   C1A 8247  17.149   2.165   9.986  0.1274 -0.1605  0.0740
  516loPI   C2A 8248  17.089   2.091   9.614  0.1245 -0.0210  0.2844
  516loPI   C3A 8249  16.980   2.066   9.196 -0.0875  0.3108 -0.0531
  516loPI   C4A 8250  17.051   2.163   8.842 -0.0035  0.2742 -0.0227
  516loPI   C5A 8251  16.977   2.163   8.354  0.0840  0.0319  0.4116
  516loPI   C6A 8252  16.858   1.924   8.021 -0.0851  0.0974  0.1965
  516loPI   C1B 8253  17.140   1.651  10.145 -0.1209 -0.0022  0.1448
  516loPI   C2B 8254  17.102   1.580   9.729  0.3305 -0.1491  0.0542
  516loPI   C3B 8255  17.086   1.548   9.309  0.2270 -0.0100  0.0272
  516loPI   C4B 8256  17.076   1.578   8.867  0.1330 -0.0011  0.2209
  517loPI    C1 8257   3.808  16.300  11.295  0.1113 -0.1746  0.1214
  517loPI    C2 8258   4.082  16.435  11.553 -0.0031 -0.1416  0.2269
  517loPI    C3 8259   3.764  16.233  11.687 -0.1087 -0.0476  0.1199
  517loPI   PO4 8260   3.712  16.504  11.075  0.1909 -0.2320 -0.1832
  517loPI   GL1 8261   3.639  16.484  10.611  0.4328  0.3544 -0.0257
  517loPI   GL2 8262   3.905  16.348  10.655 -0.3809 -0.0332 -0.1454
  517loPI   C1A 8263   3.661  16.451  10.199  0.0559  0.1320 -0.1299
  517loPI   C2A 8264   3.679  16.524   9.798  0.3462  0.0199  0.0561
  517loPI   C3A 8265   3.692  16.462   9.432  0.0400  0.2923  0.2492
  517loPI   C4A 8266   3.604  16.522   9.004 -0.0094 -0.1425 -0.0763
  517loPI   C5A 8267   3.851  16.647   8.577 -0.0413 -0.1364 -0.2897
  517loPI   C6A 8268   4.182  16.501   8.456 -0.0859  0.0331 -0.2141
  517loPI   C1B 8269   4.133  16.220  10.230  0.1228  0.2013 -0.0417
  517loPI   C2B 8270   4.085  16.260   9.749  0.2810 -0.3718  0.0498
  517loPI   C3B 8271   4.191  16.389   9.325  0.4635 -0.0149  0.2258
  517loPI   C4B 8272   4.241  16.228   8.899 -0.4933 -0.3383  0.0198
  518loPI    C1 8273   0.264  16.888  11.105 -0.0137  0.2552 -0.0927
  518loPI    C2 8274   0.099  16.830  11.464  0.0150  0.1272 -0.0997
  518loPI    C3 8275   0.495  16.802  11.419  0.0201  0.2340 -0.1233
  518loPI   PO4 8276   0.130  17.112  10.950 -0.0823 -0.1573 -0.2826
  518loPI   GL1 8277   0.152  17.199  10.517 -0.2146 -0.0678 -0.2078
  518loPI   GL2 8278   0.481  17.114  10.503 -0.1861 -0.1116  0.4801
  518loPI   C1A 8279   0.257  17.315  10.068  0.0606 -0.0347  0.2168
  518loPI   C2A 8280   0.372  17.530   9.621 -0.0975 -0.1276  0.2597
  518loPI   C3A 8281   0.386  17.526   9.156  0.0152  0.2173 -0.1159
  518loPI   C4A 8282   0.383  17.523   8.732 -0.0267  0.1254  0.0095
  518loPI   C5A 8283   0.334  17.708   8.347 -0.2769  0.0680 -0.0742
  518loPI   C6A 8284   0.322  18.066   8.202  0.0490  0.1486  0.0153
  518loPI   C1B 8285   0.528  16.924  10.046  0.0426  0.1307  0.3058
  518loPI   C2B 8286   0.397  17.011   9.686  0.4289  0.1264  0.1700
  518loPI   C3B 8287   0.405  16.988   9.269  0.0815  0.0137  0.1373
  518loPI   C4B 8288   0.418  16.970   8.868 -0.0973 -0.0396  0.1130
  519loPI    C1 8289  13.507   6.696  10.908  0.0598  0.1492 -0.0949
  519loPI    C2 8290  13.301   6.472  11.169  0.1350  0.0806 -0.0940
  519loPI    C3 8291  13.184   6.846  11.090  0.0920  0.0898  0.0124
  519loPI   PO4 8292  13.556   6.495  10.686  0.1784  0.1396 -0.1225
  519loPI   GL1 8293  13.315   6.379  10.356 -0.1236  0.0791 -0.0770
  519loPI   GL2 8294  13.472   6.174  10.167  0.1395  0.0160 -0.3368
  519loPI   C1A 8295  13.249   6.638   9.961 -0.1357  0.1375 -0.0376
  519loPI   C2A 8296  13.316   6.689   9.497 -0.1423  0.0272  0.0597
  519loPI   C3A 8297  13.422   6.771   9.181  0.0243 -0.1003 -0.0959
  519loPI   C4A 8298  13.502   6.823   8.750 -0.2979  0.1619 -0.0652
  519loPI   C5A 8299  13.653   6.641   8.382 -0.1033  0.0273  0.1316
  519loPI   C6A 8300  14.040   6.580   8.330 -0.2584 -0.1893 -0.0594
  519loPI   C1B 8301  13.482   6.192   9.808  0.0457  0.1916  0.1608
  519loPI   C2B 8302  13.541   6.123   9.421  0.0679  0.1810  0.2482
  519loPI   C3B 8303  13.555   6.236   9.093 -0.0111  0.1697  0.1257
  519loPI   C4B 8304  13.514   6.255   8.655  0.1623 -0.0500 -0.0155
  520loPI    C1 8305   9.831  16.692  11.342 -0.3538  0.2681  0.0926
  520loPI    C2 8306   9.786  16.469  11.671  0.0135 -0.1175 -0.1094
  520loPI    C3 8307   9.482  16.511  11.415 -0.2538  0.1320  0.2402
  520loPI   PO4 8308  10.072  16.578  11.150  0.1735  0.2257  0.0246
  520loPI   GL1 8309  10.143  16.620  10.724  0.0021  0.1555  0.1537
  520loPI   GL2 8310  10.094  16.385  10.678  0.0002  0.0739 -0.4241
  520loPI   C1A 8311  10.002  16.805  10.327 -0.0132  0.1651 -0.2920
  520loPI   C2A 8312   9.946  16.710   9.947 -0.0217 -0.0907 -0.1509
  520loPI   C3A 8313   9.885  16.714   9.564 -0.0733  0.1165  0.0992
  520loPI   C4A 8314   9.877  16.670   9.061 -0.2343  0.1113 -0.0211
  520loPI   C5A 8315  10.001  16.772   8.630  0.1500  0.4048  0.0489
  520loPI   C6A 8316  10.313  16.591   8.454 -0.1083 -0.0150  0.0794
  520loPI   C1B 8317  10.064  16.238  10.227  0.1921  0.1679 -0.1321
  520loPI   C2B 8318  10.038  16.249   9.778  0.0986 -0.3544 -0.0631
  520loPI   C3B 8319  10.158  16.232   9.272 -0.2054 -0.1350 -0.2492
  520loPI   C4B 8320  10.116  16.295   8.796 -0.3741  0.2965 -0.2418
  521loPI    C1 8321  15.160   9.390  11.201 -0.0837 -0.1654 -0.0099
  521loPI    C2 8322  14.901   9.675  11.307  0.2225  0.0838  0.0868
  521loPI    C3 8323  14.776   9.297  11.262 -0.1397  0.1857  0.1968
  521loPI   PO4 8324  15.303   9.483  11.059  0.0241  0.1677 -0.2355
  521loPI   GL1 8325  15.331   9.669  10.579 -0.0959 -0.0055  0.3931
  521loPI   GL2 8326  15.531   9.522  10.518  0.2821 -0.3926  0.0329
  521loPI   C1A 8327  15.184   9.711  10.209 -0.1487 -0.1453 -0.2774
  521loPI   C2A 8328  15.184   9.814   9.821  0.5898  0.1477 -0.0374
  521loPI   C3A 8329  15.510   9.802   9.498 -0.0552  0.2106 -0.3075
  521loPI   C4A 8330  15.413   9.831   9.051 -0.2282  0.1212 -0.2513
  521loPI   C5A 8331  15.563   9.856   8.661 -0.0281 -0.1088  0.1132
  521loPI   C6A 8332  15.836   9.648   8.398  0.1417  0.0917  0.2112
  521loPI   C1B 8333  15.677   9.739  10.081  0.3839 -0.1438 -0.1755
  521loPI   C2B 8334  15.973   9.689   9.760 -0.2379 -0.2633  0.0307
  521loPI   C3B 8335  15.975   9.679   9.278 -0.1091 -0.0918 -0.0292
  521loPI   C4B 8336  15.933   9.589   8.928  0.2181  0.0196  0.2793
  522loPI    C1 8337  11.575  15.759  11.321 -0.0618 -0.1101  0.0763
  522loPI    C2 8338  11.518  15.999  11.636 -0.0336 -0.0311  0.0215
  522loPI    C3 8339  11.680  15.637  11.687  0.2065  0.0808  0.0658
  522loPI   PO4 8340  11.614  15.887  11.139 -0.1392 -0.0635 -0.2433
  522loPI   GL1 8341  11.753  15.861  10.677  0.2507 -0.0102 -0.1459
  522loPI   GL2 8342  11.427  15.868  10.651  0.0184 -0.1048 -0.0181
  522loPI   C1A 8343  11.883  15.916  10.359 -0.2004 -0.1171  0.3577
  522loPI   C2A 8344  11.896  16.040   9.996 -0.2221 -0.2179  0.2143
  522loPI   C3A 8345  11.934  16.045   9.512  0.0223  0.1602 -0.0906
  522loPI   C4A 8346  11.977  16.077   9.151  0.0707 -0.0832 -0.2963
  522loPI   C5A 8347  11.838  15.955   8.709 -0.1220  0.0637 -0.0109
  522loPI   C6A 8348  11.460  16.136   8.552 -0.0340 -0.2030  0.0693
  522loPI   C1B 8349  11.423  16.140  10.249 -0.0227  0.1968  0.1239
  522loPI   C2B 8350  11.388  16.185   9.811 -0.2359  0.0842 -0.0549
  522loPI   C3B 8351  11.494  16.235   9.419  0.1081  0.2318 -0.3087
  522loPI   C4B 8352  11.460  16.198   9.052  0.1295  0.2576 -0.0664
  523loPI    C1 8353   7.819   3.739  11.291 -0.1030 -0.0829  0.2216
  523loPI    C2 8354   7.936   4.096  11.428 -0.0996 -0.0260  0.0724
  523loPI    C3 8355   7.699   3.864  11.651 -0.3406  0.1953  0.0504
  523loPI   PO4 8356   7.686   3.688  10.977 -0.1177 -0.1637  0.0810
  523loPI   GL1 8357   7.708   3.538  10.603 -0.3389 -0.2902 -0.0548
  523loPI   GL2 8358   7.697   3.256  10.630  0.2563  0.2559  0.1214
  523loPI   C1A 8359   8.055   3.578  10.323  0.1734  0.4535  0.0529
  523loPI   C2A 8360   8.064   3.541   9.945  0.1942 -0.2672  0.2196
  523loPI   C3A 8361   7.997   3.641   9.477  0.0263 -0.0327 -0.3373
  523loPI   C4A 8362   8.012   3.539   9.098  0.1774  0.2464 -0.1589
  523loPI   C5A 8363   8.061   3.546   8.646 -0.1023 -0.0117  0.2162
  523loPI   C6A 8364   8.174   3.730   8.268 -0.1874 -0.0819 -0.1643
  523loPI   C1B 8365   7.639   3.273  10.211  0.5035  0.1678 -0.2134
  523loPI   C2B 8366   7.643   3.247   9.825 -0.1723  0.0789 -0.2711
  523loPI   C3B 8367   7.575   3.296   9.357  0.3901  0.2505 -0.0351
  523loPI   C4B 8368   7.624   3.321   8.865 -0.1323  0.0431 -0.1761
  524loPI    C1 8369   0.639   7.598  11.312 -0.0128 -0.0079 -0.1243
  524loPI    C2 8370   0.797   7.779  11.632  0.0009 -0.0719 -0.0946
  524loPI    C3 8371   0.597   7.436  11.675  0.0864 -0.1313 -0.1673
  524loPI   PO4 8372   0.843   7.477  11.141 -0.2189 -0.0317 -0.2008
  524loPI   GL1 8373   0.817   7.236  10.746 -0.1613  0.1121  0.0296
  524loPI   GL2 8374   1.192   7.277  10.689 -0.0146  0.1971 -0.1479
  524loPI   C1A 8375   0.534   7.479  10.342  0.1764  0.2804 -0.0759
  524loPI   C2A 8376   0.436   7.547   9.938  0.2632 -0.0716  0.3351
  524loPI   C3A 8377   0.493   7.620   9.529 -0.1293  0.0694 -0.0418
  524loPI   C4A 8378   0.433   7.586   9.143 -0.1243  0.0921 -0.0449
  524loPI   C5A 8379   0.331   7.391   8.763 -0.1921  0.3161 -0.0369
  524loPI   C6A 8380   0.514   7.238   8.335  0.2791  0.0998 -0.1310
  524loPI   C1B 8381   0.961   7.237  10.276  0.2496  0.2225  0.0831
  524loPI   C2B 8382   0.870   7.329   9.901  0.0046 -0.3312 -0.2765
  524loPI   C3B 8383   0.923   7.357   9.384  0.1607  0.0943 -0.1001
  524loPI   C4B 8384   0.902   7.342   8.933  0.0826  0.0022 -0.2572
  525loPI    C1 8385   0.389   5.509  11.177 -0.0052 -0.0155 -0.0814
  525loPI    C2 8386   0.676   5.646  11.420 -0.1856  0.0895  0.0760
  525loPI    C3 8387   0.442   5.343  11.537 -0.0093 -0.1319 -0.1341
  525loPI   PO4 8388   0.458   5.625  10.971  0.1329 -0.0763  0.3322
  525loPI   GL1 8389   0.371   5.437  10.598  0.0987  0.0100 -0.1578
  525loPI   GL2 8390   0.082   5.565  10.460  0.0823  0.0663  0.0160
  525loPI   C1A 8391   0.240   5.120  10.341 -0.1735 -0.1181 -0.0872
  525loPI   C2A 8392   0.261   5.125   9.876 -0.0018  0.0848  0.0943
  525loPI   C3A 8393   0.262   5.237   9.454  0.0624  0.1032 -0.1025
  525loPI   C4A 8394   0.275   5.125   9.065  0.0073 -0.0207  0.1612
  525loPI   C5A 8395   0.377   5.032   8.682 -0.1372 -0.0105  0.1617
  525loPI   C6A 8396   0.498   5.301   8.400 -0.0958  0.3351  0.0473
  525loPI   C1B 8397   0.209   5.586  10.089 -0.0445 -0.0398  0.0128
  525loPI   C2B 8398   0.139   5.693   9.690 -0.3605 -0.2954  0.2059
  525loPI   C3B 8399   0.189   5.641   9.213  0.0268 -0.1873 -0.2684
  525loPI   C4B 8400   0.310   5.660   8.757  0.0849 -0.0132  0.2009
  526loPI    C1 8401   2.856   8.526  11.344 -0.3382  0.0579  0.0537
  526loPI    C2 8402   2.936   8.904  11.242 -0.2428  0.0047 -0.0713
  526loPI    C3 8403   2.818   8.818  11.614  0.3239  0.0837  0.1354
  526loPI   PO4 8404   2.812   8.435  11.073 -0.0920  0.0017 -0.2986
  526loPI   GL1 8405   2.856   8.229  10.700  0.2684 -0.0790 -0.3099
  526loPI   GL2 8406   3.116   8.324  10.645 -0.0534  0.0133 -0.1151
  526loPI   C1A 8407   2.614   8.086  10.288 -0.3431  0.0125  0.1592
  526loPI   C2A 8408   2.624   8.153   9.893  0.0070  0.1514 -0.0944
  526loPI   C3A 8409   2.613   8.026   9.475  0.0024  0.0716 -0.1440
  526loPI   C4A 8410   2.714   8.101   9.094  0.1681  0.1315  0.1211
  526loPI   C5A 8411   2.567   8.319   8.795  0.1533  0.1195  0.1548
  526loPI   C6A 8412   2.349   8.214   8.370  0.0057 -0.1783  0.0182
  526loPI   C1B 8413   3.007   8.401  10.164  0.1542  0.0377 -0.0194
  526loPI   C2B 8414   3.060   8.382   9.731 -0.1491 -0.1058  0.1117
  526loPI   C3B 8415   3.098   8.426   9.300  0.0320  0.1260  0.2762
  526loPI   C4B 8416   3.059   8.369   8.896 -0.1065  0.2157  0.1053
  527loPI    C1 8417   7.429   5.153  11.053  0.2985 -0.1496  0.4049
  527loPI    C2 8418   7.106   5.064  11.271  0.2141 -0.1725  0.2715
  527loPI    C3 8419   7.303   5.406  11.336 -0.0590  0.0217  0.1016
  527loPI   PO4 8420   7.338   5.241  10.878  0.2229  0.1676  0.1266
  527loPI   GL1 8421   7.285   5.105  10.460  0.0028 -0.3146  0.1360
  527loPI   GL2 8422   7.021   5.127  10.329 -0.0359 -0.0469 -0.0371
  527loPI   C1A 8423   7.452   5.367  10.154 -0.0933  0.1601  0.2701
  527loPI   C2A 8424   7.428   5.446   9.737  0.0154  0.0294 -0.1419
  527loPI   C3A 8425   7.466   5.319   9.300 -0.1210 -0.1133 -0.2579
  527loPI   C4A 8426   7.410   5.273   8.797 -0.0928  0.0711 -0.3061
  527loPI   C5A 8427   7.384   5.409   8.471 -0.1137  0.0575  0.3169
  527loPI   C6A 8428   7.178   5.224   8.104  0.0801 -0.3134  0.0997
  527loPI   C1B 8429   7.068   5.059   9.949  0.1312 -0.0024  0.1906
  527loPI   C2B 8430   6.983   5.082   9.546 -0.1384 -0.0319  0.0083
  527loPI   C3B 8431   6.942   4.946   9.162 -0.0427  0.2519  0.4094
  527loPI   C4B 8432   6.957   5.032   8.643  0.1683 -0.0808  0.0345
  528loPI    C1 8433  16.570   5.899  11.192  0.0916 -0.2624 -0.1120
  528loPI    C2 8434  16.684   5.714  11.528  0.0384  0.0597  0.0871
  528loPI    C3 8435  16.346   5.605  11.345  0.0562 -0.1028  0.1491
  528loPI   PO4 8436  16.714   6.039  10.941 -0.1709  0.1892  0.1835
  528loPI   GL1 8437  16.550   6.211  10.498  0.0637  0.0545  0.1647
  528loPI   GL2 8438  16.156   6.442  10.411  0.0550  0.1735  0.1193
  528loPI   C1A 8439  16.692   5.831  10.221  0.1166  0.1488  0.2344
  528loPI   C2A 8440  16.742   5.759   9.753  0.3280  0.2549 -0.2366
  528loPI   C3A 8441  16.753   5.734   9.323 -0.1845  0.0127  0.0856
  528loPI   C4A 8442  16.736   5.810   8.867  0.1080  0.1177 -0.1964
  528loPI   C5A 8443  16.661   5.718   8.468 -0.1211  0.0039  0.0070
  528loPI   C6A 8444  16.985   5.443   8.293  0.1738  0.0011 -0.0498
  528loPI   C1B 8445  16.164   6.461   9.875 -0.0306 -0.3748 -0.0319
  528loPI   C2B 8446  16.201   6.457   9.329 -0.1244 -0.0494  0.2331
  528loPI   C3B 8447  16.261   6.505   8.836  0.1139 -0.2900 -0.1533
  528loPI   C4B 8448  16.358   6.761   8.439 -0.0930 -0.1450  0.2454
  529loPI    C1 8449  15.944   0.589  11.411 -0.3889  0.0001  0.2757
  529loPI    C2 8450  16.223   0.841  11.549 -0.1613 -0.1413  0.0787
  529loPI    C3 8451  15.840   0.895  11.648 -0.1320  0.3505 -0.0518
  529loPI   PO4 8452  16.020   0.578  11.176 -0.0754  0.0544 -0.1404
  529loPI   GL1 8453  15.856   0.456  10.738  0.2473 -0.1127 -0.0672
  529loPI   GL2 8454  15.799   0.147  10.628  0.0642  0.2876  0.0202
  529loPI   C1A 8455  16.296   0.454  10.358 -0.1730  0.0861  0.0081
  529loPI   C2A 8456  16.358   0.527  10.033  0.1707  0.0612  0.0230
  529loPI   C3A 8457  16.393   0.344   9.711 -0.5177  0.0185 -0.0783
  529loPI   C4A 8458  16.387   0.395   9.292  0.0087  0.1386 -0.0808
  529loPI   C5A 8459  16.148   0.398   8.945 -0.4384  0.0770 -0.0895
  529loPI   C6A 8460  16.001   0.316   8.527  0.3887  0.2662  0.0744
  529loPI   C1B 8461  15.895   0.147  10.279  0.1638 -0.0971  0.1737
  529loPI   C2B 8462  15.911   0.099   9.866  0.2334 -0.0628 -0.1101
  529loPI   C3B 8463  15.969   0.076   9.388  0.0696  0.0511  0.1059
  529loPI   C4B 8464  15.890   0.012   8.923 -0.0309 -0.0988 -0.1380
  530loPI    C1 8465  10.631   6.997  10.642  0.0679  0.2291 -0.1025
  530loPI    C2 8466  10.907   6.829  10.878 -0.0976 -0.1631 -0.1805
  530loPI    C3 8467  10.555   6.941  11.031 -0.0770 -0.1048 -0.1754
  530loPI   PO4 8468  10.705   6.883  10.334 -0.1280  0.1425 -0.0913
  530loPI   GL1 8469  10.997   6.818  10.039  0.0122 -0.0176 -0.1984
  530loPI   GL2 8470  10.773   7.037   9.880  0.1408 -0.0715  0.0295
  530loPI   C1A 8471  11.169   6.783   9.609  0.1296  0.1540 -0.2004
  530loPI   C2A 8472  11.215   6.753   9.232  0.1753 -0.0864  0.0973
  530loPI   C3A 8473  11.221   6.767   8.818  0.0031 -0.3051 -0.0254
  530loPI   C4A 8474  11.239   6.799   8.407  0.0136  0.0031 -0.2943
  530loPI   C5A 8475  11.347   7.019   7.971  0.0979  0.1747  0.0677
  530loPI   C6A 8476  11.175   7.111   7.668 -0.2114 -0.1294 -0.1754
  530loPI   C1B 8477  10.655   7.053   9.420 -0.2314  0.0452  0.2396
  530loPI   C2B 8478  10.791   6.980   9.007  0.2062  0.0956 -0.2839
  530loPI   C3B 8479  10.734   6.890   8.572 -0.1090  0.2218 -0.0679
  530loPI   C4B 8480  10.730   6.616   8.154 -0.0752  0.0478 -0.2051
  531loPI    C1 8481  14.662  13.552  11.327 -0.0066 -0.0858 -0.2650
  531loPI    C2 8482  14.979  13.424  11.535 -0.2167 -0.0254  0.1015
  531loPI    C3 8483  14.724  13.160  11.376 -0.0607 -0.0720 -0.0744
  531loPI   PO4 8484  14.778  13.765  11.173 -0.0608  0.2228 -0.1583
  531loPI   GL1 8485  14.964  13.790  10.775 -0.0541 -0.4328  0.0404
  531loPI   GL2 8486  14.564  13.708  10.676  0.1376  0.2215  0.0461
  531loPI   C1A 8487  14.871  13.915  10.304 -0.2369 -0.1713  0.0040
  531loPI   C2A 8488  14.854  13.940   9.880  0.1041  0.1920  0.1571
  531loPI   C3A 8489  14.988  13.838   9.425  0.1056 -0.2194  0.3038
  531loPI   C4A 8490  14.889  13.874   8.994  0.1433  0.2275 -0.1673
  531loPI   C5A 8491  15.032  13.930   8.554  0.0975 -0.0408 -0.0345
  531loPI   C6A 8492  15.284  13.604   8.259  0.0409  0.3374 -0.0556
  531loPI   C1B 8493  14.525  13.572  10.353  0.0599  0.1657 -0.0068
  531loPI   C2B 8494  14.458  13.567   9.897  0.2007  0.0286 -0.2596
  531loPI   C3B 8495  14.472  13.602   9.398 -0.1326  0.1012  0.0459
  531loPI   C4B 8496  14.484  13.521   8.994  0.1133  0.0552  0.1749
  532loPI    C1 8497  15.468   2.666  11.039 -0.1403 -0.0843 -0.1482
  532loPI    C2 8498  15.488   2.858  11.390 -0.0602  0.0084 -0.2028
  532loPI    C3 8499  15.268   2.525  11.355 -0.0933  0.0164 -0.0730
  532loPI   PO4 8500  15.376   2.841  10.821  0.1272  0.2318  0.0378
  532loPI   GL1 8501  15.225   3.156  10.496  0.0510 -0.0325  0.0145
  532loPI   GL2 8502  15.147   2.804  10.363 -0.3384  0.0108 -0.0371
  532loPI   C1A 8503  15.552   3.185  10.193  0.0626 -0.1754  0.1188
  532loPI   C2A 8504  15.626   3.384   9.694 -0.0572  0.0019 -0.2401
  532loPI   C3A 8505  15.572   3.279   9.248 -0.3395  0.0472 -0.1305
  532loPI   C4A 8506  15.582   3.371   8.818 -0.1146 -0.0398 -0.1233
  532loPI   C5A 8507  15.521   3.144   8.360  0.1886 -0.0896  0.0180
  532loPI   C6A 8508  15.565   3.187   7.873 -0.2364  0.0581  0.0365
  532loPI   C1B 8509  15.173   2.913   9.909 -0.0851 -0.2987  0.2257
  532loPI   C2B 8510  15.196   2.943   9.385  0.0045  0.1985 -0.1644
  532loPI   C3B 8511  15.190   3.037   9.010 -0.0237 -0.0097  0.0465
  532loPI   C4B 8512  15.066   3.061   8.513 -0.4074  0.2499 -0.2308
  533loPI    C1 8513   4.574   3.905  11.188 -0.2407 -0.0139  0.0793
  533loPI    C2 8514   4.731   4.064  11.519 -0.1634 -0.0302  0.0506
  533loPI    C3 8515   4.388   3.860  11.539 -0.1243 -0.0883  0.1320
  533loPI   PO4 8516   4.760   3.718  11.062 -0.1322 -0.0432  0.0247
  533loPI   GL1 8517   4.766   3.559  10.608  0.2157  0.0488  0.0096
  533loPI   GL2 8518   4.880   3.876  10.558  0.0389  0.1495 -0.3616
  533loPI   C1A 8519   4.868   3.538  10.158 -0.2306  0.0924 -0.1050
  533loPI   C2A 8520   4.986   3.620   9.806 -0.1892  0.1456 -0.0433
  533loPI   C3A 8521   4.975   3.538   9.376 -0.1031 -0.3329 -0.0072
  533loPI   C4A 8522   4.891   3.463   8.956 -0.1247  0.1053  0.0797
  533loPI   C5A 8523   5.025   3.350   8.520  0.2378 -0.1466  0.3612
  533loPI   C6A 8524   5.018   3.665   8.224  0.0004 -0.0639  0.1062
  533loPI   C1B 8525   4.941   4.076  10.223 -0.1528  0.0738  0.2381
  533loPI   C2B 8526   4.938   4.134   9.774 -0.0393 -0.1422 -0.3226
  533loPI   C3B 8527   4.934   4.061   9.394 -0.1493 -0.0464  0.0192
  533loPI   C4B 8528   4.805   3.967   8.935  0.2432  0.1783  0.1592
  534loPI    C1 8529   5.568   4.656  11.138  0.2044 -0.1606  0.0121
  534loPI    C2 8530   5.822   4.933  11.273  0.1086 -0.1219  0.1145
  534loPI    C3 8531   5.493   4.845  11.482 -0.1049  0.0257 -0.1530
  534loPI   PO4 8532   5.521   4.642  10.949  0.0843  0.1956  0.2157
  534loPI   GL1 8533   5.341   4.675  10.666  0.0947  0.1637 -0.2903
  534loPI   GL2 8534   5.361   4.958  10.582  0.0711 -0.2900 -0.3154
  534loPI   C1A 8535   5.324   4.351  10.317  0.1452 -0.0160 -0.3362
  534loPI   C2A 8536   5.401   4.409   9.879  0.0816 -0.1113 -0.1768
  534loPI   C3A 8537   5.313   4.394   9.445  0.2383 -0.1299  0.2498
  534loPI   C4A 8538   5.287   4.348   9.034 -0.0020 -0.1772  0.0960
  534loPI   C5A 8539   5.284   4.356   8.546  0.2009 -0.2199  0.1787
  534loPI   C6A 8540   5.328   4.062   8.119  0.0220  0.2272 -0.2120
  534loPI   C1B 8541   5.225   4.904  10.130  0.0491 -0.1450  0.0093
  534loPI   C2B 8542   5.178   4.825   9.692 -0.0301 -0.0911  0.2290
  534loPI   C3B 8543   5.313   4.911   9.302 -0.0068 -0.1630  0.1336
  534loPI   C4B 8544   5.304   4.806   8.846  0.3375  0.0664  0.0812
  535loPI    C1 8545   4.491  14.994  10.851 -0.1926 -0.1703 -0.0530
  535loPI    C2 8546   4.443  15.204  11.188  0.1452  0.1105 -0.1740
  535loPI    C3 8547   4.538  14.816  11.206  0.4002  0.1804  0.0571
  535loPI   PO4 8548   4.403  15.112  10.707 -0.1417  0.1055  0.1698
  535loPI   GL1 8549   4.580  15.415  10.399  0.2112  0.0210  0.1662
  535loPI   GL2 8550   4.657  15.133  10.278 -0.0338  0.0023 -0.0490
  535loPI   C1A 8551   4.615  15.533   9.953 -0.2192 -0.1197 -0.0959
  535loPI   C2A 8552   4.581  15.559   9.542 -0.4029 -0.1337 -0.1427
  535loPI   C3A 8553   4.623  15.504   9.075 -0.0221  0.0102  0.1392
  535loPI   C4A 8554   4.574  15.482   8.576 -0.1299  0.1884 -0.0634
  535loPI   C5A 8555   4.869  15.342   8.271  0.2512  0.1443 -0.0383
  535loPI   C6A 8556   4.710  15.048   8.051  0.0215 -0.1087 -0.1670
  535loPI   C1B 8557   4.659  15.002   9.822 -0.3181 -0.1151 -0.0833
  535loPI   C2B 8558   4.668  15.001   9.425 -0.1139  0.0790  0.0272
  535loPI   C3B 8559   4.667  14.963   9.047 -0.2507 -0.3527  0.1680
  535loPI   C4B 8560   4.661  14.965   8.555 -0.0812  0.0499  0.2673
  536loPI    C1 8561   6.660  16.867  11.232  0.1156  0.0020  0.2714
  536loPI    C2 8562   6.417  17.121  11.422 -0.0025 -0.0256  0.1593
  536loPI    C3 8563   6.709  16.936  11.622 -0.0337  0.0559  0.2816
  536loPI   PO4 8564   6.586  17.068  10.988  0.0728 -0.1394 -0.0523
  536loPI   GL1 8565   6.557  17.422  10.637  0.1358  0.0431 -0.1416
  536loPI   GL2 8566   6.864  17.482  10.539 -0.0676  0.4433  0.1493
  536loPI   C1A 8567   6.170  17.527  10.395 -0.0739  0.0019  0.3688
  536loPI   C2A 8568   6.211  17.449  10.006 -0.0566  0.0073 -0.0240
  536loPI   C3A 8569   6.325  17.360   9.622 -0.0506  0.1848 -0.4706
  536loPI   C4A 8570   6.368  17.356   9.283  0.4558  0.0829  0.3024
  536loPI   C5A 8571   6.178  17.252   8.880  0.2191 -0.0237  0.0720
  536loPI   C6A 8572   6.109  17.313   8.408 -0.0230 -0.2981  0.1431
  536loPI   C1B 8573   6.674  17.316  10.166  0.2399  0.1428 -0.0307
  536loPI   C2B 8574   6.790  17.170   9.762 -0.0035 -0.0042 -0.2203
  536loPI   C3B 8575   6.818  17.133   9.296 -0.2961  0.0268 -0.0579
  536loPI   C4B 8576   6.665  17.211   8.829 -0.1639  0.2975 -0.2598
  537loPI    C1 8577  12.173   8.672  10.943 -0.0312 -0.2574  0.0381
  537loPI    C2 8578  11.909   8.458  10.733 -0.2436  0.0192  0.0171
  537loPI    C3 8579  11.855   8.513  11.126 -0.1244 -0.0655  0.0459
  537loPI   PO4 8580  12.154   8.894  10.779 -0.2252 -0.1002  0.3873
  537loPI   GL1 8581  12.023   8.979  10.329 -0.1191  0.0477  0.0533
  537loPI   GL2 8582  12.195   8.661  10.285  0.1429  0.0035 -0.2009
  537loPI   C1A 8583  12.338   9.172  10.138 -0.3385 -0.0079 -0.3399
  537loPI   C2A 8584  12.596   9.456   9.870 -0.0150 -0.2099 -0.0739
  537loPI   C3A 8585  12.668   9.492   9.411 -0.2257  0.1310 -0.1720
  537loPI   C4A 8586  12.678   9.431   9.009 -0.0957 -0.2797 -0.1816
  537loPI   C5A 8587  12.908   9.555   8.583 -0.1974 -0.0120 -0.2377
  537loPI   C6A 8588  13.066   9.472   8.220 -0.1628 -0.0513 -0.0901
  537loPI   C1B 8589  12.263   8.615   9.882 -0.1758  0.1418  0.1034
  537loPI   C2B 8590  12.330   8.587   9.508 -0.3518 -0.3460 -0.2581
  537loPI   C3B 8591  12.426   8.629   9.051 -0.1666 -0.1544 -0.1626
  537loPI   C4B 8592  12.530   8.606   8.656 -0.0630  0.1025 -0.0973
  538loPI    C1 8593  13.131   4.793  10.887  0.1766  0.0945 -0.0703
  538loPI    C2 8594  13.244   4.452  11.062 -0.0375  0.0165 -0.0807
  538loPI    C3 8595  13.323   4.803  11.238  0.3119 -0.0283 -0.1400
  538loPI   PO4 8596  13.180   4.779  10.683  0.1678  0.1605  0.1472
  538loPI   GL1 8597  13.237   4.551  10.367  0.1083 -0.1892 -0.2422
  538loPI   GL2 8598  13.301   4.307  10.157 -0.1698  0.0551 -0.2926
  538loPI   C1A 8599  13.335   4.774   9.969  0.0558  0.0187 -0.1688
  538loPI   C2A 8600  13.255   4.815   9.561 -0.0367 -0.1977 -0.0377
  538loPI   C3A 8601  13.197   4.808   9.110 -0.0850 -0.2213 -0.2076
  538loPI   C4A 8602  13.296   4.911   8.692 -0.2029 -0.1029  0.0741
  538loPI   C5A 8603  13.257   4.948   8.271  0.2095  0.1936  0.2718
  538loPI   C6A 8604  13.036   4.707   7.854 -0.1491 -0.0013  0.3389
  538loPI   C1B 8605  13.317   4.362   9.708  0.0419  0.4805 -0.4291
  538loPI   C2B 8606  13.286   4.335   9.332 -0.3774  0.3319 -0.2453
  538loPI   C3B 8607  13.290   4.339   8.942  0.0364  0.0373  0.1431
  538loPI   C4B 8608  13.315   4.421   8.477 -0.0061 -0.1292 -0.0219
  539loPI    C1 8609  11.539   8.113  10.495  0.0756  0.1277  0.1143
  539loPI    C2 8610  11.424   8.357  10.790 -0.1278  0.0618  0.0910
  539loPI    C3 8611  11.357   7.963  10.818 -0.1486  0.0553 -0.0426
  539loPI   PO4 8612  11.735   8.178  10.334 -0.2267 -0.0829 -0.0910
  539loPI   GL1 8613  11.829   8.484   9.967 -0.0867 -0.2491 -0.0546
  539loPI   GL2 8614  11.578   8.380   9.930  0.1773  0.2638 -0.3163
  539loPI   C1A 8615  11.888   8.289   9.555 -0.1988  0.0173 -0.0172
  539loPI   C2A 8616  11.981   8.476   9.151 -0.0083  0.0497  0.0315
  539loPI   C3A 8617  11.994   8.643   8.762  0.1486  0.0426  0.1101
  539loPI   C4A 8618  11.877   8.911   8.441  0.1885 -0.0236  0.2412
  539loPI   C5A 8619  11.583   9.001   8.184 -0.2602  0.1046  0.4308
  539loPI   C6A 8620  11.306   9.297   8.013 -0.1600 -0.2833 -0.1382
  539loPI   C1B 8621  11.457   8.567   9.549  0.4603  0.1754  0.1502
  539loPI   C2B 8622  11.119   8.668   9.352 -0.1250 -0.0474 -0.1574
  539loPI   C3B 8623  11.108   8.758   8.906 -0.0405  0.1941  0.0573
  539loPI   C4B 8624  11.061   9.077   8.670 -0.2371  0.1055  0.2136
  540loPI    C1 8625   9.614   1.884  11.183  0.0375 -0.1703  0.0487
  540loPI    C2 8626   9.257   1.781  11.333 -0.1075 -0.2409 -0.3322
  540loPI    C3 8627   9.367   2.166  11.324 -0.0573 -0.2431  0.0295
  540loPI   PO4 8628   9.584   1.771  10.954  0.1852 -0.1177 -0.1037
  540loPI   GL1 8629   9.523   1.908  10.464  0.4137  0.3439 -0.2171
  540loPI   GL2 8630   9.246   2.201  10.400  0.0101 -0.3072  0.0972
  540loPI   C1A 8631   9.590   1.857  10.055 -0.3698 -0.1952 -0.1009
  540loPI   C2A 8632   9.638   1.931   9.558  0.0852  0.0011 -0.0555
  540loPI   C3A 8633   9.547   2.089   9.123 -0.0297 -0.1889 -0.2314
  540loPI   C4A 8634   9.630   2.005   8.641 -0.0407 -0.0629 -0.1893
  540loPI   C5A 8635   9.401   1.859   8.247  0.0473  0.0150  0.1110
  540loPI   C6A 8636   9.055   1.912   8.025  0.0913 -0.4115 -0.1403
  540loPI   C1B 8637   9.085   2.141  10.028  0.1143 -0.1111  0.0470
  540loPI   C2B 8638   9.140   2.088   9.587  0.1375 -0.0031 -0.1515
  540loPI   C3B 8639   9.070   2.237   9.146  0.0581 -0.0746  0.0243
  540loPI   C4B 8640   9.034   2.376   8.702 -0.1611  0.3863 -0.0501
  541loPI    C1 8641   6.464  11.203  11.198 -0.1254  0.1185  0.2904
  541loPI    C2 8642   6.703  11.301  11.504 -0.0065  0.0248  0.2282
  541loPI    C3 8643   6.810  11.010  11.251 -0.0533  0.1739  0.0342
  541loPI   PO4 8644   6.381  11.444  11.003 -0.1165  0.0623 -0.0497
  541loPI   GL1 8645   6.493  11.647  10.596  0.1454  0.1116  0.0062
  541loPI   GL2 8646   6.255  11.381  10.535  0.0475 -0.1565  0.0152
  541loPI   C1A 8647   6.457  11.763  10.231 -0.1766 -0.0872  0.0811
  541loPI   C2A 8648   6.405  11.829   9.781  0.0616  0.0295 -0.0617
  541loPI   C3A 8649   6.383  11.804   9.376 -0.3423  0.0646  0.1805
  541loPI   C4A 8650   6.401  11.840   8.839 -0.0522  0.2285 -0.3720
  541loPI   C5A 8651   6.307  11.775   8.419 -0.1194 -0.1532 -0.0116
  541loPI   C6A 8652   6.147  12.126   8.179 -0.3727 -0.2972  0.1732
  541loPI   C1B 8653   6.022  11.500  10.175 -0.0233 -0.1839 -0.0075
  541loPI   C2B 8654   5.893  11.470   9.825  0.0462  0.3005  0.0822
  541loPI   C3B 8655   5.940  11.498   9.339 -0.1254  0.1382 -0.0436
  541loPI   C4B 8656   6.008  11.543   8.874  0.2835  0.1769 -0.0172
  542loPI    C1 8657   1.624   1.084  10.991  0.1950  0.1994 -0.2921
  542loPI    C2 8658   1.317   1.147  10.742  0.1370 -0.2112 -0.3320
  542loPI    C3 8659   1.324   0.820  10.972  0.3005  0.0503  0.0447
  542loPI   PO4 8660   1.801   1.131  10.839  0.1053  0.2692  0.0025
  542loPI   GL1 8661   1.731   1.328  10.514  0.0023 -0.1143  0.2044
  542loPI   GL2 8662   1.477   1.602  10.426 -0.4834  0.1740 -0.1148
  542loPI   C1A 8663   1.533   1.150  10.241 -0.1591 -0.0282 -0.2310
  542loPI   C2A 8664   1.642   1.087   9.818 -0.0234 -0.0261  0.2249
  542loPI   C3A 8665   1.595   1.052   9.401  0.1013  0.0515  0.0192
  542loPI   C4A 8666   1.508   1.046   9.024 -0.1713  0.1927 -0.1004
  542loPI   C5A 8667   1.515   1.049   8.629  0.0263 -0.2891 -0.3482
  542loPI   C6A 8668   1.518   1.111   8.264  0.1831  0.0560 -0.0444
  542loPI   C1B 8669   1.497   1.610  10.051 -0.0693 -0.1038 -0.3240
  542loPI   C2B 8670   1.541   1.565   9.587  0.0891  0.0827  0.2061
  542loPI   C3B 8671   1.496   1.533   9.160  0.0440 -0.1072  0.1888
  542loPI   C4B 8672   1.492   1.520   8.724 -0.0052  0.0901 -0.0290
  543loPI    C1 8673  16.631   5.330  11.017 -0.1083  0.0471 -0.0439
  543loPI    C2 8674  16.406   5.122  11.274  0.0592  0.0339  0.0932
  543loPI    C3 8675  16.772   5.244  11.381  0.0888  0.1193 -0.1020
  543loPI   PO4 8676  16.514   5.368  10.876  0.2475  0.1672 -0.0092
  543loPI   GL1 8677  16.553   5.267  10.487 -0.1937  0.1345 -0.0047
  543loPI   GL2 8678  16.188   5.290  10.439 -0.2139 -0.2864 -0.2067
  543loPI   C1A 8679  16.781   5.246  10.103  0.2377  0.2538  0.1446
  543loPI   C2A 8680  16.804   5.322   9.599  0.0252 -0.2448  0.0605
  543loPI   C3A 8681  16.835   5.270   9.160  0.0785  0.1480  0.1358
  543loPI   C4A 8682  16.800   5.272   8.765  0.2296 -0.1680  0.0873
  543loPI   C5A 8683  16.745   4.815   8.473  0.4276  0.0141 -0.0026
  543loPI   C6A 8684  16.681   4.407   8.345  0.0880 -0.1044  0.0389
  543loPI   C1B 8685  16.294   5.428  10.041 -0.1063 -0.1050  0.0683
  543loPI   C2B 8686  16.285   5.485   9.671 -0.2889  0.1382  0.1158
  543loPI   C3B 8687  16.283   5.522   9.203 -0.0065  0.0545 -0.2514
  543loPI   C4B 8688  16.227   5.436   8.745 -0.2939 -0.2847 -0.0004
  544loPI    C1 8689   6.725   4.797  11.020 -0.0675 -0.2750  0.1538
  544loPI    C2 8690   6.339   4.836  11.113 -0.0800 -0.3364  0.1286
  544loPI    C3 8691   6.618   5.014  11.338 -0.1335 -0.1265  0.0313
  544loPI   PO4 8692   6.753   4.852  10.737  0.0148  0.3288  0.2035
  544loPI   GL1 8693   6.889   4.583  10.453  0.1308 -0.0230 -0.1392
  544loPI   GL2 8694   6.675   4.256  10.473 -0.1932 -0.2082  0.1390
  544loPI   C1A 8695   7.138   4.592  10.202  0.1208 -0.0345  0.0596
  544loPI   C2A 8696   7.085   4.593   9.789  0.0952 -0.0692 -0.1375
  544loPI   C3A 8697   7.060   4.496   9.315 -0.2112 -0.1742  0.2807
  544loPI   C4A 8698   7.056   4.418   8.922  0.0366  0.0227  0.0791
  544loPI   C5A 8699   7.034   4.470   8.505  0.1491  0.0236  0.1500
  544loPI   C6A 8700   6.898   4.774   8.176  0.1708 -0.3920  0.3257
  544loPI   C1B 8701   6.751   4.300  10.052 -0.1886  0.0440  0.1190
  544loPI   C2B 8702   6.708   4.255   9.619  0.1857 -0.2865 -0.2123
  544loPI   C3B 8703   6.646   4.130   9.145 -0.0486  0.0600  0.1839
  544loPI   C4B 8704   6.678   4.195   8.684 -0.5674  0.0287 -0.2655
  545loPI    C1 8705   1.130  10.063  11.371 -0.0527 -0.2670  0.2780
  545loPI    C2 8706   1.505  10.004  11.497  0.1488 -0.0021 -0.1708
  545loPI    C3 8707   1.271  10.269  11.684  0.2822  0.0426 -0.0647
  545loPI   PO4 8708   1.145  10.120  11.132  0.2975 -0.1237 -0.0854
  545loPI   GL1 8709   0.823   9.961  10.772  0.1457 -0.1258 -0.3250
  545loPI   GL2 8710   1.195   9.768  10.801 -0.0426 -0.0701 -0.1381
  545loPI   C1A 8711   0.767   9.902  10.287 -0.1283  0.1188  0.1210
  545loPI   C2A 8712   0.641   9.863   9.847 -0.2158  0.1330  0.0009
  545loPI   C3A 8713   0.661   9.972   9.410  0.3759 -0.1394 -0.2681
  545loPI   C4A 8714   0.637  10.015   8.957 -0.2635 -0.1504  0.2572
  545loPI   C5A 8715   0.839   9.912   8.553 -0.3887  0.1447 -0.0298
  545loPI   C6A 8716   1.186   9.668   8.416 -0.0271 -0.0273 -0.0572
  545loPI   C1B 8717   1.212   9.743  10.376 -0.3426 -0.1427 -0.0312
  545loPI   C2B 8718   1.137   9.706   9.885 -0.0711  0.0811  0.0766
  545loPI   C3B 8719   1.098   9.760   9.432 -0.0594  0.3932  0.0281
  545loPI   C4B 8720   1.128   9.766   8.960  0.0502 -0.1217  0.1705
  546loPI    C1 8721   3.247  17.060  11.575  0.1111 -0.0399  0.1266
  546loPI    C2 8722   2.868  16.930  11.588  0.1743 -0.2393  0.0262
  546loPI    C3 8723   3.038  17.089  11.914 -0.1148  0.2006 -0.0293
  546loPI   PO4 8724   3.214  17.250  11.282  0.0743 -0.2683 -0.0035
  546loPI   GL1 8725   3.129  17.202  10.866 -0.3830 -0.1528  0.1573
  546loPI   GL2 8726   3.167  17.454  10.739  0.1189  0.5721  0.1441
  546loPI   C1A 8727   2.950  17.084  10.466 -0.0394 -0.0738  0.0000
  546loPI   C2A 8728   3.047  17.195  10.060 -0.1230 -0.1418  0.0279
  546loPI   C3A 8729   3.051  17.195   9.602 -0.1356  0.3528 -0.1579
  546loPI   C4A 8730   3.221  17.183   9.192  0.1065  0.0127 -0.1106
  546loPI   C5A 8731   3.108  17.100   8.764  0.0387 -0.0039  0.1669
  546loPI   C6A 8732   3.206  17.217   8.377 -0.0798 -0.0942 -0.0330
  546loPI   C1B 8733   3.330  17.511  10.362  0.2856 -0.1820  0.1479
  546loPI   C2B 8734   3.474  17.497   9.895  0.2272 -0.2856 -0.2542
  546loPI   C3B 8735   3.457  17.548   9.483  0.3450  0.1003  0.1743
  546loPI   C4B 8736   3.573  17.557   9.037  0.2794 -0.0570 -0.0926
  547loPI    C1 8737  13.971  14.957  11.286  0.3039 -0.0542  0.0785
  547loPI    C2 8738  14.080  14.758  11.615 -0.1014  0.0602  0.2887
  547loPI    C3 8739  13.693  14.780  11.513  0.0290 -0.0870 -0.2734
  547loPI   PO4 8740  14.197  15.000  11.187 -0.1852 -0.1811 -0.0327
  547loPI   GL1 8741  14.328  14.898  10.848  0.1336  0.0074 -0.0675
  547loPI   GL2 8742  14.321  14.533  10.688  0.2915  0.1873 -0.1043
  547loPI   C1A 8743  14.281  15.008  10.419  0.1313 -0.1183  0.0697
  547loPI   C2A 8744  14.271  15.124   9.988  0.1573  0.1582 -0.1865
  547loPI   C3A 8745  14.222  15.034   9.518  0.0374 -0.0183  0.0008
  547loPI   C4A 8746  14.340  15.137   9.143  0.0451  0.0491  0.0415
  547loPI   C5A 8747  14.187  14.876   8.653  0.5641 -0.1910  0.1498
  547loPI   C6A 8748  13.950  14.663   8.341 -0.1440 -0.0414 -0.0226
  547loPI   C1B 8749  14.270  14.560  10.270  0.1723 -0.0326  0.1335
  547loPI   C2B 8750  14.359  14.601   9.861  0.0482  0.0016  0.1467
  547loPI   C3B 8751  14.356  14.569   9.453 -0.0842 -0.0294 -0.0039
  547loPI   C4B 8752  14.366  14.554   9.050  0.0935 -0.2382 -0.1745
  548loPI    C1 8753   5.653  17.119  11.316 -0.0411 -0.1536  0.1566
  548loPI    C2 8754   5.963  17.326  11.461  0.0691 -0.0227 -0.2511
  548loPI    C3 8755   5.843  16.991  11.644  0.1215  0.1986  0.2044
  548loPI   PO4 8756   5.709  17.234  11.062 -0.1008  0.1811 -0.2094
  548loPI   GL1 8757   5.647  17.031  10.667 -0.1006 -0.4203 -0.0688
  548loPI   GL2 8758   5.771  17.377  10.577  0.3152  0.2522  0.0226
  548loPI   C1A 8759   5.887  16.668  10.464  0.1262  0.0336 -0.1381
  548loPI   C2A 8760   5.922  16.448  10.132 -0.0343 -0.1442 -0.2237
  548loPI   C3A 8761   5.966  16.488   9.730 -0.3300  0.0208  0.1334
  548loPI   C4A 8762   6.006  16.496   9.365  0.2400  0.0200  0.1914
  548loPI   C5A 8763   5.839  16.225   8.967 -0.2401 -0.1497  0.0802
  548loPI   C6A 8764   5.434  16.140   8.835 -0.2621  0.0605 -0.0485
  548loPI   C1B 8765   5.793  17.182  10.210 -0.0675 -0.0660  0.4478
  548loPI   C2B 8766   5.853  17.048   9.738 -0.0342  0.0710 -0.0353
  548loPI   C3B 8767   5.900  16.992   9.298  0.0383  0.2935 -0.3888
  548loPI   C4B 8768   5.975  16.828   8.855  0.0685  0.5382 -0.0227
  549loPI    C1 8769  17.750   2.340  10.880  0.0663  0.0736 -0.1996
  549loPI    C2 8770  17.738   1.999  11.090 -0.0592  0.0946 -0.1717
  549loPI    C3 8771  18.056   2.241  11.118 -0.1799  0.2179  0.1875
  549loPI   PO4 8772  17.630   2.210  10.612 -0.0770  0.2548  0.1776
  549loPI   GL1 8773  17.835   2.115  10.207  0.0001  0.1768  0.0189
  549loPI   GL2 8774  17.619   1.882  10.197 -0.1304 -0.0231  0.1238
  549loPI   C1A 8775  17.884   2.190   9.790 -0.0172 -0.0928 -0.1388
  549loPI   C2A 8776  17.885   2.198   9.377 -0.1875  0.0418 -0.1992
  549loPI   C3A 8777  17.891   2.259   8.984 -0.1015  0.4459  0.1160
  549loPI   C4A 8778  17.992   2.182   8.561  0.1772 -0.1116 -0.1270
  549loPI   C5A 8779  18.141   2.286   8.217 -0.1873 -0.2727 -0.1084
  549loPI   C6A 8780  17.983   2.571   7.928  0.2265 -0.2157 -0.0536
  549loPI   C1B 8781  17.531   1.868   9.770 -0.2437 -0.1440  0.1714
  549loPI   C2B 8782  17.482   1.835   9.379 -0.1989 -0.0185  0.1856
  549loPI   C3B 8783  17.469   1.922   8.982  0.1565 -0.4449  0.0953
  549loPI   C4B 8784  17.438   1.939   8.580  0.2871 -0.2193  0.4240
  550loPI    C1 8785  11.320   2.288  10.806 -0.0038  0.0330 -0.0005
  550loPI    C2 8786  10.950   2.433  10.843 -0.0992 -0.1905 -0.0586
  550loPI    C3 8787  11.008   2.079  10.667  0.1280 -0.2293  0.0905
  550loPI   PO4 8788  11.462   2.560  10.787  0.0555  0.1749  0.0035
  550loPI   GL1 8789  11.650   2.841  10.432  0.1595  0.0408  0.6803
  550loPI   GL2 8790  11.738   3.114  10.281  0.0381 -0.1316 -0.1997
  550loPI   C1A 8791  11.833   2.612  10.109  0.1415  0.2570 -0.1473
  550loPI   C2A 8792  11.725   2.645   9.696 -0.0283 -0.0675 -0.0748
  550loPI   C3A 8793  11.720   2.565   9.212  0.2294  0.1073 -0.1099
  550loPI   C4A 8794  11.732   2.567   8.812  0.4557 -0.1731  0.2948
  550loPI   C5A 8795  11.735   2.243   8.467 -0.3248 -0.3401  0.1199
  550loPI   C6A 8796  11.842   1.704   8.287 -0.0178 -0.0305  0.2007
  550loPI   C1B 8797  11.710   3.179   9.805  0.2432  0.3709 -0.0314
  550loPI   C2B 8798  11.677   3.069   9.390  0.0055  0.0403  0.2229
  550loPI   C3B 8799  11.717   3.083   8.974  0.2471  0.1251  0.0103
  550loPI   C4B 8800  11.727   3.029   8.577  0.0545  0.0509  0.1476
  551loPI    C1 8801   8.808   4.062  11.268  0.1038  0.1431  0.0939
  551loPI    C2 8802   8.842   3.817  11.583 -0.0701  0.0549  0.0452
  551loPI    C3 8803   8.919   4.207  11.624  0.1108  0.0096  0.1468
  551loPI   PO4 8804   9.000   3.856  11.033 -0.0383  0.1153 -0.0909
  551loPI   GL1 8805   9.137   3.879  10.606 -0.1291 -0.0199 -0.4124
  551loPI   GL2 8806   8.840   3.914  10.523 -0.0620  0.0602 -0.1287
  551loPI   C1A 8807   9.249   3.940  10.191  0.0314 -0.2971  0.1520
  551loPI   C2A 8808   9.317   4.065   9.770 -0.1974  0.1765  0.4372
  551loPI   C3A 8809   9.277   3.945   9.302 -0.0096  0.1591  0.5109
  551loPI   C4A 8810   9.252   3.972   8.856 -0.0191  0.1637 -0.2954
  551loPI   C5A 8811   9.327   4.132   8.450  0.2736 -0.1204 -0.0136
  551loPI   C6A 8812   9.825   4.239   8.305  0.2004  0.0535 -0.0504
  551loPI   C1B 8813   8.591   3.946  10.196 -0.0730  0.2053 -0.3194
  551loPI   C2B 8814   8.405   3.887   9.799  0.0455 -0.2926  0.2848
  551loPI   C3B 8815   8.469   3.865   9.352 -0.2069 -0.0099  0.0638
  551loPI   C4B 8816   8.402   3.908   8.918 -0.5704  0.2738  0.1972
  552loPI    C1 8817  15.173  15.777  11.115  0.1824 -0.1491  0.1981
  552loPI    C2 8818  14.918  15.583  11.354  0.0926  0.0765  0.2885
  552loPI    C3 8819  15.076  15.931  11.471 -0.0443  0.2492 -0.0294
  552loPI   PO4 8820  15.313  15.619  11.017  0.0908  0.2951 -0.1123
  552loPI   GL1 8821  15.376  15.455  10.552  0.0064 -0.2444  0.0894
  552loPI   GL2 8822  15.119  15.253  10.474  0.0289  0.1578 -0.1216
  552loPI   C1A 8823  15.569  15.631  10.112  0.2534  0.0731  0.1362
  552loPI   C2A 8824  15.570  15.602   9.561  0.0776 -0.0288 -0.1433
  552loPI   C3A 8825  15.656  15.621   9.160 -0.1300 -0.1525 -0.0325
  552loPI   C4A 8826  15.708  15.607   8.704 -0.1087  0.2277 -0.1713
  552loPI   C5A 8827  15.536  15.547   8.247 -0.2532 -0.2393 -0.3157
  552loPI   C6A 8828  15.532  15.118   7.929 -0.1988 -0.0670  0.2434
  552loPI   C1B 8829  15.110  15.327  10.078 -0.1781  0.0504 -0.4668
  552loPI   C2B 8830  15.117  15.271   9.660  0.0476  0.1140 -0.2400
  552loPI   C3B 8831  15.178  15.200   9.184 -0.0233  0.0283 -0.2694
  552loPI   C4B 8832  15.169  15.100   8.774 -0.1183  0.1253  0.0076
  553loPI    C1 8833  14.663  11.321  10.976  0.1468  0.2804 -0.1352
  553loPI    C2 8834  14.858  11.175  11.293  0.0914  0.0923 -0.1866
  553loPI    C3 8835  14.613  11.489  11.336 -0.1011 -0.0808  0.0041
  553loPI   PO4 8836  14.740  11.396  10.765  0.0267  0.0596 -0.0399
  553loPI   GL1 8837  14.843  11.733  10.566 -0.1927 -0.0399 -0.3056
  553loPI   GL2 8838  14.760  12.027  10.363 -0.0269  0.0651 -0.0536
  553loPI   C1A 8839  14.855  11.588  10.101  0.0865  0.3038  0.0731
  553loPI   C2A 8840  14.762  11.610   9.682 -0.1454  0.2334  0.2686
  553loPI   C3A 8841  14.742  11.512   9.292 -0.2958  0.2751  0.3785
  553loPI   C4A 8842  14.781  11.606   8.860  0.0800 -0.2444  0.0159
  553loPI   C5A 8843  14.842  11.542   8.402  0.2532  0.3659 -0.2176
  553loPI   C6A 8844  14.957  11.719   7.987 -0.3929  0.2769 -0.3508
  553loPI   C1B 8845  14.760  12.099   9.950 -0.1017  0.2481 -0.2541
  553loPI   C2B 8846  14.682  12.154   9.452 -0.0047 -0.0729 -0.0713
  553loPI   C3B 8847  14.615  11.972   9.103 -0.2415  0.0179 -0.2226
  553loPI   C4B 8848  14.874  12.106   8.714 -0.2720 -0.1370 -0.1857
  554loPI    C1 8849   9.185  11.252  11.096  0.0233  0.1232  0.0928
  554loPI    C2 8850   9.335  10.881  11.115  0.0890  0.1567  0.2402
  554loPI    C3 8851   9.417  11.145  11.404  0.0474  0.2885  0.1326
  554loPI   PO4 8852   9.290  11.275  10.805 -0.2288  0.4281 -0.1876
  554loPI   GL1 8853   9.261  11.573  10.578  0.1162 -0.3720 -0.0546
  554loPI   GL2 8854   9.021  11.792  10.724 -0.1351  0.1519  0.0028
  554loPI   C1A 8855   9.407  11.649  10.061  0.0672 -0.1717  0.0724
  554loPI   C2A 8856   9.403  11.776   9.709 -0.0766 -0.2411 -0.2337
  554loPI   C3A 8857   9.296  11.595   9.369 -0.1383 -0.2225  0.1855
  554loPI   C4A 8858   9.277  11.278   9.071  0.2087 -0.1759  0.2380
  554loPI   C5A 8859   9.292  10.979   8.733  0.1932 -0.0554 -0.1324
  554loPI   C6A 8860   9.103  10.704   8.335  0.2346  0.0183 -0.0644
  554loPI   C1B 8861   8.995  11.825  10.238  0.1118 -0.0057 -0.1503
  554loPI   C2B 8862   8.955  11.796   9.887  0.0405  0.4361  0.1648
  554loPI   C3B 8863   8.877  11.804   9.539  0.0575 -0.0536 -0.2688
  554loPI   C4B 8864   8.719  11.920   9.128  0.3152  0.0414  0.0440
  555loPI    C1 8865   6.839  12.522  11.235 -0.0792  0.1345 -0.0515
  555loPI    C2 8866   6.992  12.859  11.388 -0.2104  0.1628  0.0188
  555loPI    C3 8867   6.702  12.664  11.583 -0.0580 -0.0521  0.0341
  555loPI   PO4 8868   6.850  12.576  10.996 -0.0900 -0.1151 -0.0421
  555loPI   GL1 8869   6.858  12.348  10.611 -0.1866 -0.0857  0.0139
  555loPI   GL2 8870   6.832  12.031  10.522  0.1444  0.0840 -0.2205
  555loPI   C1A 8871   6.825  12.558  10.266  0.2884 -0.2051  0.1675
  555loPI   C2A 8872   6.779  12.615   9.823 -0.3483  0.0547 -0.1021
  555loPI   C3A 8873   6.744  12.634   9.406  0.2089 -0.0742 -0.1193
  555loPI   C4A 8874   6.776  12.556   8.990 -0.0989  0.0236  0.2003
  555loPI   C5A 8875   7.035  12.669   8.661 -0.2342  0.2821  0.1006
  555loPI   C6A 8876   7.484  12.355   8.583 -0.3251  0.0207 -0.1213
  555loPI   C1B 8877   6.762  12.110  10.021  0.4611 -0.0519  0.1032
  555loPI   C2B 8878   6.767  12.072   9.593  0.0349  0.1186 -0.1397
  555loPI   C3B 8879   6.800  12.103   9.192  0.0785  0.0794 -0.0293
  555loPI   C4B 8880   6.794  12.094   8.698  0.1552  0.1283  0.1221
  556loPI    C1 8881   5.428   5.148  11.047 -0.0653 -0.2239 -0.0917
  556loPI    C2 8882   5.523   5.349  11.380 -0.0804 -0.1628 -0.1241
  556loPI    C3 8883   5.157   5.191  11.339 -0.1055 -0.0993 -0.1466
  556loPI   PO4 8884   5.494   5.335  10.859  0.2587  0.0223 -0.2987
  556loPI   GL1 8885   5.640   5.388  10.486  0.2434 -0.2959  0.1029
  556loPI   GL2 8886   5.971   5.439  10.588 -0.0867 -0.1889  0.0791
  556loPI   C1A 8887   5.660   5.207  10.142 -0.2780  0.3351  0.1162
  556loPI   C2A 8888   5.583   5.157   9.612  0.0917  0.0387 -0.4313
  556loPI   C3A 8889   5.695   5.223   9.214  0.2132 -0.0597  0.0135
  556loPI   C4A 8890   5.694   5.166   8.756  0.0456 -0.1679 -0.1510
  556loPI   C5A 8891   5.750   5.134   8.308 -0.0236 -0.0287 -0.1267
  556loPI   C6A 8892   6.008   5.102   8.083 -0.0260 -0.1198  0.2034
  556loPI   C1B 8893   6.155   5.597  10.170  0.0697 -0.0836 -0.1825
  556loPI   C2B 8894   6.165   5.577   9.752  0.0071 -0.1059 -0.1110
  556loPI   C3B 8895   6.110   5.481   9.283  0.0830  0.0793 -0.2247
  556loPI   C4B 8896   6.111   5.512   8.903  0.1514 -0.1005 -0.0303
  557loPI    C1 8897  12.283   0.751  11.003  0.0567  0.1633 -0.0216
  557loPI    C2 8898  12.338   0.394  11.174 -0.1553  0.1045 -0.0732
  557loPI    C3 8899  12.539   0.713  11.308 -0.2302  0.0368  0.2087
  557loPI   PO4 8900  12.213   0.594  10.741 -0.0536 -0.2318  0.2466
  557loPI   GL1 8901  12.020   0.653  10.263 -0.1348  0.2165  0.4941
  557loPI   GL2 8902  11.725   0.699  10.128  0.0968  0.2660  0.0137
  557loPI   C1A 8903  12.181   0.503   9.963  0.1418  0.0938  0.0096
  557loPI   C2A 8904  12.431   0.703   9.565 -0.3735  0.2334  0.3325
  557loPI   C3A 8905  12.543   0.904   9.215  0.1868  0.3002 -0.2669
  557loPI   C4A 8906  12.575   1.152   8.866 -0.3786  0.1324 -0.3443
  557loPI   C5A 8907  12.782   1.242   8.577  0.2062  0.1574  0.0453
  557loPI   C6A 8908  13.001   1.443   8.314  0.2015 -0.1900 -0.1038
  557loPI   C1B 8909  11.568   0.661   9.689  0.3545 -0.1969  0.0046
  557loPI   C2B 8910  11.533   0.737   9.287  0.1015 -0.4100 -0.1777
  557loPI   C3B 8911  11.735   0.903   8.889  0.2683 -0.0563  0.1025
  557loPI   C4B 8912  11.730   1.266   8.690  0.0281  0.2395 -0.0910
  558loPI    C1 8913  14.882   9.598  10.810  0.0238  0.0011  0.0233
  558loPI    C2 8914  14.792   9.906  10.570 -0.0173 -0.0540 -0.0326
  558loPI    C3 8915  14.705   9.924  10.960 -0.3196 -0.1265 -0.0949
  558loPI   PO4 8916  14.842   9.414  10.703  0.2636  0.0278  0.0884
  558loPI   GL1 8917  14.868   9.140  10.432 -0.2097 -0.1168 -0.2662
  558loPI   GL2 8918  15.197   9.222  10.460 -0.2300  0.1650  0.1997
  558loPI   C1A 8919  15.022   8.934   9.978 -0.0468  0.0797  0.0839
  558loPI   C2A 8920  15.104   8.949   9.418  0.1540 -0.0459  0.0596
  558loPI   C3A 8921  15.096   8.972   9.022 -0.3881  0.0004 -0.2849
  558loPI   C4A 8922  15.107   9.050   8.641  0.1810 -0.0409  0.0843
  558loPI   C5A 8923  15.057   8.899   8.338 -0.0113 -0.2895 -0.0354
  558loPI   C6A 8924  15.185   8.914   7.969 -0.2438  0.1543  0.3058
  558loPI   C1B 8925  15.363   9.288  10.064 -0.4123  0.3100  0.3135
  558loPI   C2B 8926  15.404   9.308   9.672  0.0490 -0.2059  0.1085
  558loPI   C3B 8927  15.409   9.363   9.262 -0.1222  0.1596  0.1142
  558loPI   C4B 8928  15.506   9.330   8.759 -0.3946 -0.2418 -0.4626
  559loPI    C1 8929   1.859   6.855  11.398  0.0702 -0.1560  0.1363
  559loPI    C2 8930   1.602   7.044  11.639  0.0240 -0.1054  0.0476
  559loPI    C3 8931   1.920   6.859  11.793 -0.0083 -0.0779  0.1481
  559loPI   PO4 8932   1.864   6.965  11.254  0.1309  0.3963  0.0751
  559loPI   GL1 8933   1.940   6.675  10.849 -0.0192 -0.3175  0.0727
  559loPI   GL2 8934   1.682   6.920  10.762 -0.0092  0.1772 -0.3619
  559loPI   C1A 8935   1.842   6.556  10.459  0.0666 -0.0901  0.0670
  559loPI   C2A 8936   1.958   6.274  10.006  0.1752 -0.0481 -0.2296
  559loPI   C3A 8937   1.873   6.381   9.562 -0.3688  0.0182 -0.0051
  559loPI   C4A 8938   1.948   6.337   9.108 -0.1743  0.1312  0.0842
  559loPI   C5A 8939   1.950   6.483   8.793  0.0844  0.2486  0.3173
  559loPI   C6A 8940   1.699   6.533   8.335 -0.1573 -0.0827 -0.0496
  559loPI   C1B 8941   1.500   7.041  10.373  0.0859  0.1308  0.3908
  559loPI   C2B 8942   1.449   7.147   9.919  0.1067  0.2588  0.0914
  559loPI   C3B 8943   1.377   7.103   9.546  0.2290  0.1254 -0.2040
  559loPI   C4B 8944   1.382   7.090   9.116 -0.0228 -0.0916  0.0375
  560loPI    C1 8945   8.047   1.224  11.260 -0.0316 -0.0307  0.0338
  560loPI    C2 8946   7.979   1.127  11.642 -0.0426 -0.1787 -0.0053
  560loPI    C3 8947   7.771   1.422  11.471  0.1877  0.1071  0.1964
  560loPI   PO4 8948   7.998   1.073  11.063  0.0422  0.2075 -0.2605
  560loPI   GL1 8949   7.972   1.199  10.624  0.1870  0.1263  0.0213
  560loPI   GL2 8950   7.761   1.460  10.583  0.1211 -0.0786 -0.3271
  560loPI   C1A 8951   7.876   1.235  10.170 -0.2069 -0.0234 -0.0031
  560loPI   C2A 8952   7.893   1.254   9.761 -0.0383 -0.0156 -0.2310
  560loPI   C3A 8953   7.865   1.224   9.313 -0.0112 -0.0059 -0.3138
  560loPI   C4A 8954   7.901   1.177   8.900 -0.0642 -0.2353  0.0444
  560loPI   C5A 8955   8.081   1.454   8.570  0.0759  0.0526  0.0822
  560loPI   C6A 8956   8.357   1.714   8.550 -0.2813 -0.1539  0.2727
  560loPI   C1B 8957   7.867   1.729  10.187  0.2269 -0.0030 -0.1100
  560loPI   C2B 8958   7.814   1.763   9.700  0.1993 -0.2761  0.1804
  560loPI   C3B 8959   7.837   1.770   9.281 -0.0021 -0.1613 -0.0659
  560loPI   C4B 8960   7.817   1.705   8.943  0.1859  0.2675  0.0287
  561loPI    C1 8961  12.360  12.620  11.225 -0.1034 -0.0110 -0.0755
  561loPI    C2 8962  12.070  12.858  11.085 -0.1570 -0.1441 -0.1932
  561loPI    C3 8963  12.138  12.836  11.479 -0.2782 -0.0794 -0.1680
  561loPI   PO4 8964  12.410  12.511  11.002  0.3175  0.1566  0.1938
  561loPI   GL1 8965  12.383  12.219  10.751 -0.1348  0.2068  0.0936
  561loPI   GL2 8966  12.036  12.356  10.669 -0.0345 -0.3786 -0.0594
  561loPI   C1A 8967  12.405  12.380  10.277  0.0642 -0.0256 -0.0178
  561loPI   C2A 8968  12.300  12.340   9.907  0.1551  0.0943  0.0174
  561loPI   C3A 8969  12.309  12.412   9.441 -0.1677 -0.0243  0.1534
  561loPI   C4A 8970  12.383  12.470   8.997 -0.1193 -0.2086  0.0176
  561loPI   C5A 8971  12.456  12.855   8.701  0.1041 -0.1389 -0.1360
  561loPI   C6A 8972  12.294  13.208   8.503 -0.0519 -0.1120  0.0721
  561loPI   C1B 8973  11.911  12.575  10.139 -0.4311 -0.1703 -0.0037
  561loPI   C2B 8974  11.825  12.621   9.708 -0.0796 -0.3025 -0.0658
  561loPI   C3B 8975  11.879  12.646   9.285 -0.4068  0.0217 -0.1491
  561loPI   C4B 8976  11.662  12.503   8.871 -0.3054 -0.2049 -0.2186
  562loPI    C1 8977  12.551  14.896  11.414  0.1512  0.0564  0.2850
  562loPI    C2 8978  12.689  15.267  11.356 -0.0024  0.1257  0.3577
  562loPI    C3 8979  12.525  15.168  11.706 -0.1430  0.0468  0.2702
  562loPI   PO4 8980  12.522  14.794  11.175 -0.2301 -0.0816  0.0738
  562loPI   GL1 8981  12.336  14.821  10.763 -0.0969  0.2333  0.1632
  562loPI   GL2 8982  12.566  14.717  10.584 -0.4492 -0.2417  0.0130
  562loPI   C1A 8983  12.096  14.920  10.329 -0.1399 -0.1030 -0.3228
  562loPI   C2A 8984  11.993  14.902   9.896  0.3159  0.4967 -0.1409
  562loPI   C3A 8985  11.966  14.952   9.504 -0.0262 -0.2231  0.0483
  562loPI   C4A 8986  12.079  15.033   9.116  0.1779  0.0765  0.0881
  562loPI   C5A 8987  12.029  15.119   8.639  0.0679  0.2434  0.0573
  562loPI   C6A 8988  11.930  15.402   8.304  0.0785  0.0921 -0.2051
  562loPI   C1B 8989  12.531  14.805  10.140  0.2133 -0.2009  0.0296
  562loPI   C2B 8990  12.473  14.860   9.688  0.2611  0.1312  0.3383
  562loPI   C3B 8991  12.539  14.831   9.256  0.1982  0.0690  0.1972
  562loPI   C4B 8992  12.505  14.868   8.860  0.0502  0.0177 -0.2249
  563loPI    C1 8993  14.242   6.350  10.981 -0.3304 -0.2184 -0.2933
  563loPI    C2 8994  13.914   6.532  11.121  0.0186  0.0778  0.1724
  563loPI    C3 8995  14.141   6.311  11.366  0.1923 -0.0912 -0.1337
  563loPI   PO4 8996  14.138   6.331  10.687 -0.1476 -0.1006 -0.2505
  563loPI   GL1 8997  14.214   6.076  10.378 -0.2492  0.1973 -0.0582
  563loPI   GL2 8998  14.482   6.149  10.237  0.3790 -0.2558 -0.1726
  563loPI   C1A 8999  13.976   5.965  10.102  0.0831  0.1233 -0.2820
  563loPI   C2A 9000  13.945   5.963   9.672 -0.2528 -0.0293  0.0138
  563loPI   C3A 9001  14.043   6.045   9.260 -0.0884  0.1423 -0.2839
  563loPI   C4A 9002  13.990   6.052   8.791 -0.0040  0.0312 -0.0764
  563loPI   C5A 9003  13.831   6.112   8.287 -0.2119  0.0831 -0.1714
  563loPI   C6A 9004  13.779   6.321   7.953  0.0925 -0.4699  0.0772
  563loPI   C1B 9005  14.388   6.244   9.807  0.2089 -0.3906  0.0133
  563loPI   C2B 9006  14.404   6.314   9.389 -0.1495  0.0912 -0.1384
  563loPI   C3B 9007  14.433   6.322   8.978 -0.0221 -0.3811 -0.1260
  563loPI   C4B 9008  14.407   6.288   8.516 -0.0054 -0.1763 -0.2887
  564loPI    C1 9009  10.519   1.666  11.181  0.3612 -0.0956  0.0587
  564loPI    C2 9010  10.683   2.026  11.238 -0.4347  0.3500 -0.2887
  564loPI    C3 9011  10.504   1.837  11.542  0.1787  0.1255 -0.0509
  564loPI   PO4 9012  10.392   1.721  10.997  0.1904  0.0132 -0.2318
  564loPI   GL1 9013  10.231   1.671  10.637  0.1555 -0.0089 -0.0233
  564loPI   GL2 9014  10.003   1.970  10.544 -0.0701 -0.0049  0.1116
  564loPI   C1A 9015  10.603   1.703  10.309  0.1712 -0.0677  0.1873
  564loPI   C2A 9016  10.662   1.675   9.838  0.0590  0.0046 -0.2471
  564loPI   C3A 9017  10.477   1.588   9.401  0.0378  0.0248 -0.1022
  564loPI   C4A 9018  10.464   1.594   9.007 -0.0270 -0.0655  0.2723
  564loPI   C5A 9019  10.471   1.746   8.524 -0.0810 -0.0051 -0.1065
  564loPI   C6A 9020  10.875   1.775   8.340 -0.1172  0.0429  0.1751
  564loPI   C1B 9021  10.133   1.776  10.159 -0.0568  0.2207  0.0130
  564loPI   C2B 9022  10.102   1.729   9.743 -0.0398 -0.1371 -0.2615
  564loPI   C3B 9023  10.062   1.788   9.293  0.1668 -0.0398  0.2459
  564loPI   C4B 9024  10.061   1.828   8.835 -0.3707  0.1022 -0.0374
  565loPI    C1 9025   8.360   3.197  11.380 -0.0137  0.0677 -0.0727
  565loPI    C2 9026   8.392   3.072  11.758  0.0985  0.3013 -0.0031
  565loPI    C3 9027   8.639   3.354  11.619  0.2028  0.0618 -0.3170
  565loPI   PO4 9028   8.336   2.983  11.193 -0.0602 -0.0656 -0.2408
  565loPI   GL1 9029   8.250   2.902  10.780 -0.1149  0.2503  0.0941
  565loPI   GL2 9030   8.487   2.765  10.554  0.0864 -0.1357 -0.0641
  565loPI   C1A 9031   8.111   3.084  10.402  0.0971 -0.2512 -0.3748
  565loPI   C2A 9032   8.133   3.079   9.999  0.2055 -0.0110 -0.0098
  565loPI   C3A 9033   8.049   3.118   9.533 -0.3638  0.3339  0.2072
  565loPI   C4A 9034   8.080   3.093   9.023 -0.0540  0.1277 -0.0155
  565loPI   C5A 9035   8.029   3.085   8.598  0.0660 -0.0482  0.0238
  565loPI   C6A 9036   8.187   2.847   8.367 -0.0947  0.0629  0.0026
  565loPI   C1B 9037   8.594   2.891  10.141  0.2157 -0.1282 -0.0121
  565loPI   C2B 9038   8.584   2.833   9.699 -0.0766  0.0540  0.2860
  565loPI   C3B 9039   8.508   2.905   9.268 -0.0449  0.2483  0.0040
  565loPI   C4B 9040   8.522   2.790   8.808  0.1392 -0.2821 -0.0601
  566loPI    C1 9041   1.782  16.656  10.918 -0.0461  0.0699 -0.0528
  566loPI    C2 9042   1.909  16.472  11.249  0.2010  0.1021 -0.1277
  566loPI    C3 9043   1.823  16.862  11.258 -0.0731  0.0421 -0.0324
  566loPI   PO4 9044   1.630  16.445  10.812  0.2328  0.2241 -0.2722
  566loPI   GL1 9045   1.727  16.166  10.631 -0.3050  0.1292 -0.1625
  566loPI   GL2 9046   1.931  15.853  10.602 -0.0665 -0.0611 -0.0989
  566loPI   C1A 9047   1.709  16.278  10.175 -0.1142  0.0800 -0.0548
  566loPI   C2A 9048   1.766  16.331   9.755  0.1598  0.3083 -0.3004
  566loPI   C3A 9049   1.944  16.323   9.316  0.3192 -0.0644  0.0136
  566loPI   C4A 9050   1.826  16.301   8.814  0.1090  0.2078 -0.3987
  566loPI   C5A 9051   1.930  16.406   8.443  0.2147  0.2884 -0.2395
  566loPI   C6A 9052   2.264  16.356   8.191  0.1177 -0.0847  0.2192
  566loPI   C1B 9053   1.786  15.746  10.230 -0.0901 -0.1519  0.2268
  566loPI   C2B 9054   1.903  15.895   9.785 -0.2649 -0.1129 -0.0198
  566loPI   C3B 9055   1.860  15.846   9.389  0.1196  0.0178 -0.1284
  566loPI   C4B 9056   1.868  15.829   8.997  0.1397  0.1825  0.1078
  567loPI    C1 9057  14.635  12.651  11.485  0.0953 -0.0160 -0.1889
  567loPI    C2 9058  14.928  12.434  11.650  0.0799 -0.1451 -0.3286
  567loPI    C3 9059  14.662  12.621  11.883  0.0867 -0.2854 -0.2064
  567loPI   PO4 9060  14.757  12.672  11.262 -0.0470  0.0950 -0.2133
  567loPI   GL1 9061  14.950  13.002  11.008 -0.2626 -0.0050 -0.1146
  567loPI   GL2 9062  14.729  13.249  10.896  0.5736 -0.0041 -0.2549
  567loPI   C1A 9063  15.132  12.874  10.628  0.2877 -0.0474  0.0466
  567loPI   C2A 9064  14.953  12.789  10.208  0.2657  0.0857 -0.1678
  567loPI   C3A 9065  15.059  12.939   9.772 -0.2921  0.1877 -0.0715
  567loPI   C4A 9066  15.129  12.896   9.237  0.0021 -0.2995  0.1505
  567loPI   C5A 9067  15.032  13.026   8.863 -0.3933  0.2245 -0.1699
  567loPI   C6A 9068  14.946  13.373   8.724  0.2447  0.0915 -0.1554
  567loPI   C1B 9069  14.960  13.357  10.525 -0.0122 -0.0612  0.1413
  567loPI   C2B 9070  14.960  13.356  10.162 -0.2125 -0.0800  0.0221
  567loPI   C3B 9071  14.877  13.460   9.692  0.1467  0.2000  0.0643
  567loPI   C4B 9072  15.034  13.383   9.266 -0.0411  0.0149 -0.2158
  568loPI    C1 9073  17.604  10.979  11.068  0.1945 -0.0846  0.0888
  568loPI    C2 9074  17.999  10.926  11.036  0.1550 -0.3983  0.0885
  568loPI    C3 9075  17.818  10.869  11.388  0.1370 -0.0501  0.1395
  568loPI   PO4 9076  17.554  11.142  10.964 -0.1291  0.0266  0.1192
  568loPI   GL1 9077  17.365  11.184  10.605 -0.1874 -0.0338 -0.0286
  568loPI   GL2 9078  17.552  11.249  10.378 -0.0751 -0.2047  0.0651
  568loPI   C1A 9079  17.159  10.968  10.213  0.4017 -0.1651 -0.0614
  568loPI   C2A 9080  17.066  11.029   9.762  0.0039  0.1664 -0.1126
  568loPI   C3A 9081  17.055  11.139   9.309 -0.0508 -0.1166 -0.3507
  568loPI   C4A 9082  17.094  11.085   8.890 -0.1878  0.3348  0.1170
  568loPI   C5A 9083  17.120  11.105   8.438  0.2055  0.0312  0.1445
  568loPI   C6A 9084  17.398  11.344   8.099 -0.1278  0.1106  0.1105
  568loPI   C1B 9085  17.486  11.409   9.949  0.2830  0.0625 -0.2373
  568loPI   C2B 9086  17.447  11.384   9.493 -0.0516  0.2058  0.1209
  568loPI   C3B 9087  17.458  11.437   9.106  0.1381 -0.0285 -0.0599
  568loPI   C4B 9088  17.441  11.441   8.637  0.2695 -0.0452 -0.4096
  569loPI    C1 9089  13.459  12.510  11.433 -0.1019  0.1445 -0.2473
  569loPI    C2 9090  13.266  12.838  11.554  0.0977  0.1481  0.0698
  569loPI    C3 9091  13.172  12.482  11.710  0.2362  0.1281  0.1087
  569loPI   PO4 9092  13.401  12.532  11.116 -0.1310 -0.1746 -0.3531
  569loPI   GL1 9093  13.099  12.681  10.779  0.1635  0.1308 -0.2515
  569loPI   GL2 9094  12.808  12.601  10.708 -0.3071  0.1958  0.2947
  569loPI   C1A 9095  13.187  12.928  10.528  0.2603 -0.0099 -0.1491
  569loPI   C2A 9096  13.226  13.102  10.171  0.0637  0.1338 -0.1640
  569loPI   C3A 9097  13.256  13.203   9.717 -0.1105 -0.0570  0.1771
  569loPI   C4A 9098  13.128  13.119   9.319 -0.2284 -0.0225  0.2629
  569loPI   C5A 9099  13.263  13.041   8.910  0.1557 -0.1154  0.1346
  569loPI   C6A 9100  12.965  12.893   8.633 -0.0552  0.0058  0.0020
  569loPI   C1B 9101  12.819  12.724  10.294 -0.2918 -0.2122 -0.0087
  569loPI   C2B 9102  12.863  12.793   9.933  0.0125  0.2290 -0.1639
  569loPI   C3B 9103  12.731  12.715   9.510 -0.2362 -0.0366  0.1226
  569loPI   C4B 9104  12.796  12.764   9.106  0.0694 -0.1992  0.3129
  570loPI    C1 9105   5.286  10.396  11.232 -0.1484 -0.0923  0.1213
  570loPI    C2 9106   5.331  10.052  11.033 -0.2168  0.0344 -0.1170
  570loPI    C3 9107   5.171  10.052  11.400  0.1285 -0.2281  0.0394
  570loPI   PO4 9108   5.346  10.562  11.040  0.1691 -0.1427  0.3538
  570loPI   GL1 9109   5.123  10.571  10.605 -0.2763 -0.0190  0.1373
  570loPI   GL2 9110   4.966  10.334  10.675 -0.3200  0.1884 -0.5030
  570loPI   C1A 9111   5.091  10.448  10.140 -0.0770  0.0379  0.0775
  570loPI   C2A 9112   5.116  10.335   9.675 -0.0325  0.0450  0.0194
  570loPI   C3A 9113   5.151  10.498   9.261 -0.1604 -0.0972  0.1091
  570loPI   C4A 9114   5.341  10.250   8.786 -0.0957  0.1521 -0.0270
  570loPI   C5A 9115   5.104   9.813   8.721  0.0280 -0.1448  0.0507
  570loPI   C6A 9116   4.957   9.406   8.715  0.2579 -0.0937 -0.2532
  570loPI   C1B 9117   4.669  10.214  10.338  0.0222 -0.1806  0.0212
  570loPI   C2B 9118   4.292  10.241  10.156 -0.2534 -0.1427  0.0453
  570loPI   C3B 9119   4.220  10.256   9.623  0.1260 -0.2514 -0.1208
  570loPI   C4B 9120   4.260  10.380   9.197  0.0300  0.1205  0.0013
  571loPI    C1 9121  12.673   6.273  10.828  0.0693  0.0185 -0.0744
  571loPI    C2 9122  12.891   6.085  10.550  0.1765 -0.0123  0.0293
  571loPI    C3 9123  13.058   6.370  10.776  0.1967 -0.2515  0.3216
  571loPI   PO4 9124  12.380   6.279  10.683 -0.0793 -0.1417  0.1178
  571loPI   GL1 9125  12.225   6.347  10.239  0.2760 -0.1486  0.3376
  571loPI   GL2 9126  12.446   6.180  10.219 -0.2264 -0.0786 -0.0894
  571loPI   C1A 9127  12.244   6.202   9.734  0.1965 -0.0637 -0.1066
  571loPI   C2A 9128  12.107   6.318   9.285 -0.0821 -0.0097 -0.1080
  571loPI   C3A 9129  12.161   6.330   8.847 -0.1256 -0.1532 -0.2572
  571loPI   C4A 9130  12.130   6.282   8.318  0.1336 -0.2852  0.1728
  571loPI   C5A 9131  12.055   6.163   7.828  0.0648 -0.0084 -0.1988
  571loPI   C6A 9132  12.015   5.764   7.753 -0.4078  0.2836  0.1594
  571loPI   C1B 9133  12.854   6.249  10.009  0.0102  0.3240 -0.1109
  571loPI   C2B 9134  12.905   6.376   9.663  0.2324 -0.3190 -0.1250
  571loPI   C3B 9135  13.002   6.362   9.206  0.2997  0.2438  0.2355
  571loPI   C4B 9136  12.993   6.432   8.673  0.3503 -0.2042 -0.0615
  572loPI    C1 9137   8.239  10.608  10.929 -0.1774 -0.2584 -0.1337
  572loPI    C2 9138   8.401  10.550  11.290 -0.1102  0.0769 -0.1067
  572loPI    C3 9139   8.082  10.336  11.177  0.0314 -0.2197  0.0431
  572loPI   PO4 9140   8.457  10.546  10.784 -0.0429  0.1231 -0.3813
  572loPI   GL1 9141   8.637  10.567  10.424 -0.0783 -0.3646 -0.1004
  572loPI   GL2 9142   8.793  10.828  10.274 -0.1338  0.0077 -0.0653
  572loPI   C1A 9143   8.418  10.404  10.024  0.1463 -0.1239  0.1319
  572loPI   C2A 9144   8.334  10.466   9.643 -0.0695 -0.0225 -0.1995
  572loPI   C3A 9145   8.328  10.419   9.167 -0.1805 -0.1055 -0.1291
  572loPI   C4A 9146   8.313  10.432   8.786 -0.1728 -0.0879 -0.0625
  572loPI   C5A 9147   8.281  10.706   8.466 -0.0576  0.0603 -0.1780
  572loPI   C6A 9148   8.112  10.752   8.043 -0.0252 -0.0994 -0.1612
  572loPI   C1B 9149   8.740  10.734   9.866 -0.2803  0.3766 -0.5131
  572loPI   C2B 9150   8.752  10.686   9.494 -0.0668 -0.2549 -0.2172
  572loPI   C3B 9151   8.761  10.719   9.094 -0.1266 -0.2998 -0.0543
  572loPI   C4B 9152   8.768  10.593   8.697  0.0987  0.2499 -0.1152
  573loPI    C1 9153  11.974  17.103  11.127 -0.0366  0.0128  0.0519
  573loPI    C2 9154  11.825  16.866  11.412  0.2059  0.0954  0.2509
  573loPI    C3 9155  11.951  17.234  11.504 -0.2667  0.3482 -0.0748
  573loPI   PO4 9156  11.883  16.971  10.896  0.1906 -0.4932  0.0430
  573loPI   GL1 9157  11.914  17.256  10.493 -0.0304 -0.5040  0.0315
  573loPI   GL2 9158  11.874  17.594  10.294  0.0281 -0.0896  0.0931
  573loPI   C1A 9159  11.810  16.968  10.245  0.0715  0.0008  0.3323
  573loPI   C2A 9160  11.745  16.975   9.762  0.1439  0.0209  0.0232
  573loPI   C3A 9161  11.862  17.077   9.343  0.0181 -0.0298 -0.1557
  573loPI   C4A 9162  11.741  17.016   8.861 -0.1001  0.0486  0.2050
  573loPI   C5A 9163  11.734  16.984   8.396 -0.0173 -0.0378 -0.1972
  573loPI   C6A 9164  11.635  16.719   8.078  0.0466 -0.0501  0.1857
  573loPI   C1B 9165  11.652  17.463   9.894 -0.2710  0.2255 -0.0250
  573loPI   C2B 9166  11.595  17.512   9.457  0.1752  0.1093 -0.2318
  573loPI   C3B 9167  11.199  17.684   9.172 -0.1417 -0.2186  0.2765
  573loPI   C4B 9168  11.288  17.809   8.785 -0.1466  0.1398 -0.2391
  574loPI    C1 9169   3.236   9.316  11.440 -0.0256  0.0949  0.0046
  574loPI    C2 9170   3.539   9.252  11.693  0.2544  0.0773 -0.3268
  574loPI    C3 9171   3.384   9.618  11.656  0.1653  0.0664 -0.0835
  574loPI   PO4 9172   3.272   9.245  11.239 -0.1176  0.0130 -0.2318
  574loPI   GL1 9173   3.343   9.066  10.877  0.0227 -0.0896  0.0066
  574loPI   GL2 9174   3.579   9.127  10.835  0.3643 -0.1256 -0.2613
  574loPI   C1A 9175   3.025   8.904  10.679  0.0660  0.1217  0.3975
  574loPI   C2A 9176   2.938   8.953  10.218 -0.0349  0.0713  0.1884
  574loPI   C3A 9177   3.028   8.858   9.759 -0.0115 -0.2417  0.0976
  574loPI   C4A 9178   3.078   8.965   9.361  0.0613  0.0004  0.1966
  574loPI   C5A 9179   2.913   9.355   9.037  0.0388  0.5055  0.1572
  574loPI   C6A 9180   3.037   9.626   8.738 -0.0271  0.0381 -0.0001
  574loPI   C1B 9181   3.408   9.188  10.392 -0.1991  0.3415  0.0413
  574loPI   C2B 9182   3.400   9.230   9.937 -0.1063 -0.1734 -0.0524
  574loPI   C3B 9183   3.469   9.260   9.526 -0.0323 -0.1122  0.0646
  574loPI   C4B 9184   3.464   9.181   9.031 -0.1683  0.0762 -0.0496
  575loPI    C1 9185  16.342  14.164  11.347 -0.0956  0.2106 -0.0622
  575loPI    C2 9186  16.559  14.015  11.046 -0.0541 -0.1528  0.1416
  575loPI    C3 9187  16.661  13.935  11.424 -0.1801  0.1947  0.2531
  575loPI   PO4 9188  16.116  14.275  11.088  0.1213 -0.1276  0.3897
  575loPI   GL1 9189  16.065  14.482  10.682 -0.0543  0.0961  0.0476
  575loPI   GL2 9190  16.136  14.761  10.827  0.1562  0.1535  0.0755
  575loPI   C1A 9191  16.157  14.412  10.219 -0.0149 -0.2478 -0.0873
  575loPI   C2A 9192  16.190  14.418   9.790  0.0709 -0.1869 -0.2421
  575loPI   C3A 9193  16.129  14.365   9.308  0.1301  0.0770 -0.2817
  575loPI   C4A 9194  16.395  14.426   8.958 -0.1431  0.0944 -0.0197
  575loPI   C5A 9195  16.593  14.207   8.604  0.0837  0.0374  0.2206
  575loPI   C6A 9196  16.406  14.203   8.258 -0.0178 -0.1694  0.1683
  575loPI   C1B 9197  16.036  14.869  10.374  0.0647 -0.0045 -0.0987
  575loPI   C2B 9198  16.045  14.939   9.987 -0.1029 -0.1420  0.1271
  575loPI   C3B 9199  16.081  14.888   9.557 -0.1411 -0.0810 -0.1069
  575loPI   C4B 9200  16.249  14.864   9.174  0.3180  0.1593 -0.2279
  576loPI    C1 9201  12.709   6.913  11.089 -0.1666 -0.0337  0.2142
  576loPI    C2 9202  12.775   6.548  11.239 -0.2074 -0.1505 -0.0450
  576loPI    C3 9203  12.568   6.817  11.451  0.1286 -0.1549  0.2998
  576loPI   PO4 9204  12.731   6.805  10.781  0.0485 -0.1361 -0.0362
  576loPI   GL1 9205  12.702   6.599  10.375 -0.1719 -0.0091 -0.3598
  576loPI   GL2 9206  12.902   6.807  10.183 -0.0131  0.1514 -0.0639
  576loPI   C1A 9207  12.501   6.581   9.938  0.0669  0.1895  0.2350
  576loPI   C2A 9208  12.544   6.571   9.430  0.1961 -0.2479 -0.0129
  576loPI   C3A 9209  12.571   6.572   8.984  0.0133  0.0861  0.0598
  576loPI   C4A 9210  12.580   6.599   8.534  0.1723  0.0653 -0.2835
  576loPI   C5A 9211  12.841   6.480   8.164  0.3961 -0.0332 -0.1174
  576loPI   C6A 9212  12.959   6.653   7.884  0.1609  0.0066 -0.1186
  576loPI   C1B 9213  12.918   6.949   9.733  0.0294 -0.0204 -0.0766
  576loPI   C2B 9214  12.954   6.972   9.200  0.4735 -0.1926  0.0787
  576loPI   C3B 9215  12.982   6.923   8.783  0.1072  0.0234  0.0800
  576loPI   C4B 9216  13.150   6.868   8.376 -0.2310  0.4337 -0.2339
  577loPI    C1 9217   3.332  13.611  11.348  0.0653  0.0506  0.0567
  577loPI    C2 9218   3.505  13.751  11.680  0.0940 -0.0101  0.0673
  577loPI    C3 9219   3.654  13.427  11.498 -0.0229 -0.0778  0.0909
  577loPI   PO4 9220   3.357  13.816  11.121  0.0762 -0.3010 -0.3586
  577loPI   GL1 9221   3.637  13.871  10.806 -0.0438 -0.2827 -0.3201
  577loPI   GL2 9222   3.348  13.764  10.630  0.2215 -0.2503  0.3127
  577loPI   C1A 9223   3.870  13.908  10.383  0.3560 -0.0474 -0.0722
  577loPI   C2A 9224   3.969  13.855  10.020 -0.0318 -0.0453  0.0132
  577loPI   C3A 9225   3.920  13.884   9.565  0.0841 -0.0086  0.3558
  577loPI   C4A 9226   3.852  13.887   9.232  0.1427  0.2325  0.1721
  577loPI   C5A 9227   3.846  13.846   8.808  0.0469 -0.2859 -0.3024
  577loPI   C6A 9228   3.878  13.568   8.501 -0.1232  0.0059  0.1317
  577loPI   C1B 9229   3.451  13.685  10.231  0.2416 -0.0322 -0.1599
  577loPI   C2B 9230   3.560  13.591   9.869 -0.0919  0.0971 -0.1102
  577loPI   C3B 9231   3.480  13.601   9.509  0.0410  0.0787  0.1581
  577loPI   C4B 9232   3.498  13.598   9.063 -0.2304 -0.3660 -0.1252
  578loPI    C1 9233   2.089   2.807  10.804 -0.1805 -0.0496 -0.0157
  578loPI    C2 9234   1.974   2.454  10.953  0.0401 -0.1332 -0.0399
  578loPI    C3 9235   2.138   2.728  11.194 -0.2611  0.0103  0.0068
  578loPI   PO4 9236   2.279   2.824  10.648 -0.1911 -0.0539  0.0115
  578loPI   GL1 9237   2.613   2.706  10.411 -0.1189  0.1595  0.1075
  578loPI   GL2 9238   2.340   2.628  10.210 -0.1665 -0.0823 -0.1284
  578loPI   C1A 9239   2.752   2.390  10.082 -0.2736 -0.1434 -0.0030
  578loPI   C2A 9240   2.700   2.504   9.637  0.0760 -0.0280  0.1843
  578loPI   C3A 9241   2.677   2.501   9.206  0.2250  0.1156  0.1482
  578loPI   C4A 9242   2.653   2.480   8.711  0.0011  0.0346  0.0526
  578loPI   C5A 9243   2.546   2.276   8.428  0.0765 -0.1065 -0.0882
  578loPI   C6A 9244   2.182   2.296   8.237 -0.0610  0.3747 -0.0979
  578loPI   C1B 9245   2.291   2.367   9.844  0.0956  0.0659 -0.0569
  578loPI   C2B 9246   2.269   2.145   9.525 -0.5011  0.0261  0.2256
  578loPI   C3B 9247   2.325   2.172   9.106  0.0722  0.0441  0.2857
  578loPI   C4B 9248   2.201   2.290   8.790 -0.0177  0.2968  0.2425
  579loPI    C1 9249   1.628  11.507  11.060  0.3304 -0.0778 -0.0774
  579loPI    C2 9250   1.556  11.766  11.356  0.1474 -0.1516 -0.0559
  579loPI    C3 9251   1.846  11.493  11.395  0.3243  0.0314 -0.0683
  579loPI   PO4 9252   1.653  11.629  10.859  0.1160  0.3050 -0.1633
  579loPI   GL1 9253   1.811  11.890  10.516 -0.0263 -0.0011 -0.0646
  579loPI   GL2 9254   1.923  11.516  10.428 -0.0813 -0.0419 -0.0630
  579loPI   C1A 9255   1.836  11.933  10.058 -0.2539  0.2820 -0.1689
  579loPI   C2A 9256   1.826  11.839   9.667  0.0257  0.0890  0.1875
  579loPI   C3A 9257   1.774  11.944   9.276  0.1853 -0.1044 -0.0504
  579loPI   C4A 9258   1.877  11.877   8.857  0.1562  0.0215  0.3491
  579loPI   C5A 9259   2.140  12.056   8.608  0.1191 -0.0338 -0.0470
  579loPI   C6A 9260   2.379  12.430   8.403 -0.3749 -0.1729  0.0367
  579loPI   C1B 9261   1.935  11.421  10.014 -0.1268  0.0260  0.2424
  579loPI   C2B 9262   1.945  11.359   9.524 -0.0800 -0.0444 -0.1389
  579loPI   C3B 9263   1.830  11.400   9.098 -0.1707 -0.0731  0.0173
  579loPI   C4B 9264   2.010  11.447   8.671  0.1251  0.3250 -0.1912
  580loPI    C1 9265   8.546  11.019  10.651 -0.0911 -0.1631  0.0810
  580loPI    C2 9266   8.435  11.045  11.035  0.1603  0.4278  0.1250
  580loPI    C3 9267   8.779  10.866  10.937  0.0079  0.1133  0.1518
  580loPI   PO4 9268   8.334  10.985  10.536  0.2398 -0.0813  0.2248
  580loPI   GL1 9269   8.346  10.913  10.144 -0.1405  0.0049 -0.1054
  580loPI   GL2 9270   7.974  10.713   9.936 -0.2192  0.0094  0.1088
  580loPI   C1A 9271   8.398  11.020   9.660 -0.1005  0.1598  0.2865
  580loPI   C2A 9272   8.284  10.913   9.298  0.1198  0.2256 -0.0772
  580loPI   C3A 9273   8.387  10.982   8.896  0.0994 -0.2249  0.1269
  580loPI   C4A 9274   8.602  11.046   8.468  0.2062 -0.2225 -0.0571
  580loPI   C5A 9275   8.627  10.705   8.132 -0.2433 -0.0117 -0.0680
  580loPI   C6A 9276   8.805  10.598   7.820  0.2209 -0.4401 -0.1346
  580loPI   C1B 9277   7.849  10.664   9.402  0.0254 -0.1312  0.1306
  580loPI   C2B 9278   7.924  10.698   8.973 -0.0763 -0.0755 -0.0882
  580loPI   C3B 9279   7.790  10.797   8.486  0.0155  0.0750 -0.0335
  580loPI   C4B 9280   7.594  10.661   8.039  0.2651  0.1281  0.1073
  581loPI    C1 9281  17.278  12.717  11.395  0.1639  0.0087  0.0677
  581loPI    C2 9282  17.301  12.958  11.713  0.0800  0.0801  0.0204
  581loPI    C3 9283  17.345  12.562  11.757 -0.1493  0.0679  0.1535
  581loPI   PO4 9284  17.034  12.736  11.259  0.0244 -0.4191 -0.0777
  581loPI   GL1 9285  16.894  12.714  10.828 -0.0024  0.0005  0.0723
  581loPI   GL2 9286  17.208  12.731  10.651 -0.0360  0.0899  0.2123
  581loPI   C1A 9287  16.794  12.632  10.335  0.0710 -0.2370 -0.1414
  581loPI   C2A 9288  16.868  12.599   9.975 -0.0617  0.2181  0.1766
  581loPI   C3A 9289  16.876  12.542   9.505  0.1999  0.2647  0.1434
  581loPI   C4A 9290  16.954  12.566   9.103  0.3680  0.1557 -0.0862
  581loPI   C5A 9291  16.792  12.659   8.668 -0.0531  0.2101  0.2106
  581loPI   C6A 9292  16.559  12.354   8.386 -0.0431 -0.4379  0.0328
  581loPI   C1B 9293  17.191  12.963  10.245 -0.1146 -0.3217  0.1151
  581loPI   C2B 9294  17.236  12.841   9.732 -0.1134 -0.0843  0.1623
  581loPI   C3B 9295  17.376  12.912   9.185 -0.1006  0.1026  0.3017
  581loPI   C4B 9296  17.375  12.849   8.764  0.0345  0.0591 -0.1287
  582loPI    C1 9297   5.095  12.153  11.305  0.3045 -0.1197 -0.2598
  582loPI    C2 9298   5.334  12.421  11.481  0.1950 -0.1595 -0.0474
  582loPI    C3 9299   5.173  12.124  11.696 -0.0876 -0.1027 -0.1759
  582loPI   PO4 9300   5.002  12.328  11.084  0.3405  0.1755  0.1701
  582loPI   GL1 9301   4.882  12.276  10.785  0.0202 -0.2445 -0.1235
  582loPI   GL2 9302   4.598  12.227  10.755 -0.0894 -0.1719 -0.2400
  582loPI   C1A 9303   5.112  12.095  10.433 -0.0409 -0.1038  0.2099
  582loPI   C2A 9304   5.066  12.045  10.054  0.3368 -0.1153  0.2196
  582loPI   C3A 9305   5.013  11.945   9.639 -0.0424 -0.1209  0.5766
  582loPI   C4A 9306   5.040  11.993   9.203  0.1994  0.1738 -0.1433
  582loPI   C5A 9307   4.975  11.921   8.676  0.1381  0.0118  0.1713
  582loPI   C6A 9308   5.042  11.796   8.319 -0.0559  0.0155 -0.0472
  582loPI   C1B 9309   4.642  12.239  10.292 -0.0808  0.1436  0.2158
  582loPI   C2B 9310   4.577  12.220   9.892 -0.0327 -0.0342  0.0214
  582loPI   C3B 9311   4.586  12.163   9.500 -0.0886  0.1012  0.2234
  582loPI   C4B 9312   4.541  12.098   9.006 -0.0954 -0.1418 -0.0592
  583loPI    C1 9313   2.816  17.701  10.959  0.0423 -0.0579  0.0441
  583loPI    C2 9314   2.894  18.003  11.209 -0.0990 -0.0052  0.0251
  583loPI    C3 9315   2.937  17.625  11.333 -0.1485  0.0208  0.1232
  583loPI   PO4 9316   2.536  17.799  10.830  0.0784  0.1166  0.1097
  583loPI   GL1 9317   2.491  17.869  10.445 -0.2289  0.0425 -0.0282
  583loPI   GL2 9318   2.392  18.081  10.378 -0.2300  0.0758 -0.0837
  583loPI   C1A 9319   2.675  17.539  10.226  0.1594  0.0426 -0.1004
  583loPI   C2A 9320   2.627  17.402   9.811  0.1489  0.0629 -0.1803
  583loPI   C3A 9321   2.645  17.375   9.336 -0.4168  0.0915  0.1412
  583loPI   C4A 9322   2.744  17.398   8.895  0.1537  0.1828 -0.2398
  583loPI   C5A 9323   2.772  17.472   8.404 -0.0124 -0.1403 -0.0997
  583loPI   C6A 9324   2.750  17.494   7.950  0.3379  0.0012  0.1975
  583loPI   C1B 9325   2.468  17.915   9.894  0.0136 -0.0288  0.1843
  583loPI   C2B 9326   2.573  17.878   9.502  0.2506  0.1367 -0.0899
  583loPI   C3B 9327   2.552  17.939   9.088  0.0746 -0.1196 -0.0385
  583loPI   C4B 9328   2.709  17.895   8.736 -0.1158 -0.1581 -0.0819
  584loPI    C1 9329   3.696   8.033  11.311 -0.0394  0.1641 -0.1256
  584loPI    C2 9330   3.555   8.046  11.685 -0.1639  0.0557 -0.1681
  584loPI    C3 9331   3.947   7.997  11.621 -0.1594 -0.0654 -0.0528
  584loPI   PO4 9332   3.631   7.856  11.172  0.0736 -0.2691 -0.0074
  584loPI   GL1 9333   3.414   7.886  10.784  0.1331  0.0743 -0.2356
  584loPI   GL2 9334   3.470   7.638  10.675 -0.0202  0.1848  0.0945
  584loPI   C1A 9335   3.465   8.177  10.376 -0.5603  0.0829  0.0883
  584loPI   C2A 9336   3.474   8.183   9.943  0.0977 -0.1296  0.0641
  584loPI   C3A 9337   3.509   8.274   9.575  0.0407 -0.0068 -0.2837
  584loPI   C4A 9338   3.584   8.246   9.024  0.2262  0.2847  0.1894
  584loPI   C5A 9339   3.813   8.059   8.678  0.2536 -0.0896 -0.2869
  584loPI   C6A 9340   4.003   7.633   8.672 -0.0121 -0.0930 -0.1597
  584loPI   C1B 9341   3.538   7.725  10.284 -0.2036  0.0302  0.0059
  584loPI   C2B 9342   3.581   7.661   9.802  0.1125 -0.0791 -0.2007
  584loPI   C3B 9343   3.541   7.663   9.439 -0.1906 -0.0432 -0.2435
  584loPI   C4B 9344   3.744   7.817   9.104  0.2141  0.1284  0.2448
  585loPI    C1 9345  17.849  13.823  10.887  0.0164 -0.0737  0.0288
  585loPI    C2 9346  17.608  13.887  11.200 -0.0839 -0.0072 -0.0611
  585loPI    C3 9347  17.881  13.594  11.214 -0.0121  0.0668  0.1311
  585loPI   PO4 9348  17.797  14.041  10.733  0.2188  0.3939  0.3464
  585loPI   GL1 9349  17.995  14.082  10.317  0.2737  0.2873 -0.0615
  585loPI   GL2 9350  18.146  14.317  10.274  0.0881 -0.0115 -0.0607
  585loPI   C1A 9351  18.115  14.119   9.841  0.2728  0.0255 -0.0672
  585loPI   C2A 9352  18.096  14.141   9.449 -0.0259 -0.1544 -0.2442
  585loPI   C3A 9353  18.179  14.049   9.046 -0.1813 -0.0149  0.0353
  585loPI   C4A 9354  18.185  13.977   8.623 -0.1211  0.0380  0.0851
  585loPI   C5A 9355  17.968  14.213   8.314  0.2090  0.0264  0.1456
  585loPI   C6A 9356  17.852  14.559   8.037 -0.4191  0.1786 -0.2674
  585loPI   C1B 9357  18.463  14.392  10.017  0.1105 -0.2010  0.3342
  585loPI   C2B 9358  18.546  14.342   9.568 -0.0939 -0.0728 -0.1363
  585loPI   C3B 9359  18.570  14.364   9.164  0.0785 -0.1212  0.0760
  585loPI   C4B 9360  18.591  14.312   8.714 -0.0136 -0.2482 -0.1182
  586loPI    C1 9361   6.873  16.200  11.017  0.0944 -0.1792 -0.0982
  586loPI    C2 9362   6.815  15.865  11.227 -0.1152  0.0732  0.2587
  586loPI    C3 9363   7.101  16.122  11.337  0.0777 -0.0075 -0.0430
  586loPI   PO4 9364   6.891  16.110  10.749 -0.0379  0.1421  0.0906
  586loPI   GL1 9365   6.747  16.194  10.400  0.0997 -0.1799 -0.1816
  586loPI   GL2 9366   6.759  16.514  10.384 -0.1460 -0.0170 -0.1850
  586loPI   C1A 9367   6.735  16.066  10.016  0.2864  0.0677  0.0815
  586loPI   C2A 9368   6.874  16.117   9.561 -0.0786 -0.0285  0.1475
  586loPI   C3A 9369   6.907  16.189   9.195 -0.0930  0.2160 -0.1161
  586loPI   C4A 9370   6.894  16.178   8.774 -0.1598  0.0775  0.0703
  586loPI   C5A 9371   7.081  16.228   8.420 -0.0143  0.2095 -0.0244
  586loPI   C6A 9372   7.463  16.357   8.112 -0.0443 -0.0677 -0.0906
  586loPI   C1B 9373   6.865  16.514   9.928 -0.0615  0.3930  0.0229
  586loPI   C2B 9374   6.834  16.621   9.490 -0.0899  0.3190  0.1399
  586loPI   C3B 9375   6.867  16.660   9.007 -0.3093  0.1840  0.0407
  586loPI   C4B 9376   6.953  16.713   8.589  0.1402 -0.1163  0.3955
  587loPI    C1 9377  12.389  14.343  11.438  0.2045  0.0103 -0.3802
  587loPI    C2 9378  12.772  14.447  11.489  0.1699  0.0515 -0.1956
  587loPI    C3 9379  12.498  14.554  11.760  0.0720 -0.2062 -0.1894
  587loPI   PO4 9380  12.344  14.346  11.177 -0.4631 -0.0984  0.0796
  587loPI   GL1 9381  12.425  14.159  10.852 -0.0455  0.0083 -0.1087
  587loPI   GL2 9382  12.193  13.885  10.741  0.1036 -0.1505 -0.2985
  587loPI   C1A 9383  12.506  14.214  10.441  0.0181  0.1477  0.0694
  587loPI   C2A 9384  12.590  14.284  10.076 -0.0329  0.0944  0.0642
  587loPI   C3A 9385  12.618  14.338   9.628 -0.1961  0.0337 -0.2112
  587loPI   C4A 9386  12.662  14.388   9.231 -0.2284  0.3437  0.3168
  587loPI   C5A 9387  12.517  14.343   8.896 -0.1768  0.0247  0.2147
  587loPI   C6A 9388  12.504  14.206   8.541  0.0159  0.0924  0.3174
  587loPI   C1B 9389  12.143  13.891  10.254  0.1036 -0.3399 -0.0471
  587loPI   C2B 9390  12.123  13.971   9.801  0.0433  0.1139  0.0450
  587loPI   C3B 9391  12.170  13.973   9.308 -0.1593 -0.0346 -0.3806
  587loPI   C4B 9392  12.149  14.021   8.893 -0.0870  0.0657 -0.1325
  588loPI    C1 9393   9.476   1.201  11.222  0.1090 -0.0656 -0.4172
  588loPI    C2 9394   9.665   1.481  11.436 -0.3070  0.1797 -0.3603
  588loPI    C3 9395   9.566   1.133  11.606 -0.2020  0.1811 -0.2958
  588loPI   PO4 9396   9.355   1.354  11.079 -0.1369 -0.0514 -0.0984
  588loPI   GL1 9397   9.197   1.220  10.729 -0.0128  0.2633 -0.0169
  588loPI   GL2 9398   9.204   1.541  10.622 -0.1282 -0.0006 -0.1056
  588loPI   C1A 9399   9.283   1.205  10.300 -0.1246 -0.3542  0.2134
  588loPI   C2A 9400   9.307   1.017   9.791 -0.2359 -0.1505 -0.5050
  588loPI   C3A 9401   9.182   1.135   9.350  0.3715 -0.0286 -0.0872
  588loPI   C4A 9402   9.101   1.132   8.829  0.1244 -0.0686 -0.1548
  588loPI   C5A 9403   8.888   0.976   8.487 -0.2024  0.1657  0.0402
  588loPI   C6A 9404   8.787   0.687   8.226  0.1626 -0.0734  0.1931
  588loPI   C1B 9405   9.122   1.713  10.261 -0.1457  0.0238  0.0067
  588loPI   C2B 9406   9.152   1.624   9.777 -0.4126 -0.1276 -0.0058
  588loPI   C3B 9407   9.174   1.657   9.307 -0.1600  0.3206 -0.0481
  588loPI   C4B 9408   9.215   1.762   8.868 -0.0388  0.1075 -0.1554
  589loPI    C1 9409   2.854   3.561  11.000 -0.0142 -0.1379  0.0701
  589loPI    C2 9410   3.031   3.906  11.099  0.2138 -0.2022 -0.1039
  589loPI    C3 9411   2.797   3.719  11.364 -0.1893  0.2545 -0.1212
  589loPI   PO4 9412   2.859   3.551  10.733 -0.0598 -0.1630  0.1306
  589loPI   GL1 9413   2.839   3.524  10.345  0.3434 -0.0548  0.0607
  589loPI   GL2 9414   2.793   3.241  10.237 -0.1876  0.4085 -0.2210
  589loPI   C1A 9415   2.640   3.654   9.903 -0.0819  0.1166  0.0396
  589loPI   C2A 9416   2.690   3.537   9.573 -0.0716  0.2979 -0.3294
  589loPI   C3A 9417   2.640   3.496   9.174  0.0249 -0.1011  0.0768
  589loPI   C4A 9418   2.324   3.313   8.820 -0.0312  0.0840  0.2188
  589loPI   C5A 9419   2.018   3.505   8.512 -0.0251  0.0087 -0.1775
  589loPI   C6A 9420   1.596   3.531   8.574 -0.0693  0.2084 -0.2021
  589loPI   C1B 9421   2.576   2.903   9.897  0.6011 -0.1042 -0.1365
  589loPI   C2B 9422   2.617   3.018   9.527 -0.1122 -0.0698  0.1116
  589loPI   C3B 9423   2.596   2.972   9.089  0.0046  0.0426 -0.2627
  589loPI   C4B 9424   2.730   2.994   8.595 -0.0220  0.0841 -0.0157
  590loPI    C1 9425   0.670   8.312  11.500 -0.0454 -0.0892  0.0624
  590loPI    C2 9426   0.466   8.144  11.800 -0.1642  0.0290  0.0492
  590loPI    C3 9427   0.854   8.231  11.846 -0.0698 -0.3556  0.0145
  590loPI   PO4 9428   0.677   8.167  11.262 -0.1736  0.1311 -0.0605
  590loPI   GL1 9429   0.778   8.176  10.926  0.4371  0.1199  0.2297
  590loPI   GL2 9430   0.363   8.232  10.809 -0.0620  0.0256 -0.0345
  590loPI   C1A 9431   0.815   8.343  10.491 -0.2249 -0.2193 -0.0425
  590loPI   C2A 9432   0.827   8.363  10.054 -0.1865  0.2034  0.0150
  590loPI   C3A 9433   0.817   8.355   9.686 -0.1758  0.1775  0.0268
  590loPI   C4A 9434   0.879   8.422   9.263 -0.0759 -0.0177  0.1211
  590loPI   C5A 9435   0.784   8.265   8.760 -0.1055 -0.0286 -0.2181
  590loPI   C6A 9436   0.475   8.144   8.591  0.1786  0.0758 -0.0588
  590loPI   C1B 9437   0.404   8.042  10.374  0.2381 -0.0749  0.1328
  590loPI   C2B 9438   0.390   8.052   9.893 -0.0401  0.1597 -0.2753
  590loPI   C3B 9439   0.461   8.081   9.507  0.1553  0.0328 -0.1529
  590loPI   C4B 9440   0.420   8.053   9.104 -0.1667 -0.3156  0.2224
  591loPI    C1 9441   1.723   5.174  11.378 -0.3425  0.1816  0.1658
  591loPI    C2 9442   2.074   5.304  11.517 -0.1087 -0.1325 -0.1142
  591loPI    C3 9443   1.811   5.136  11.767 -0.0033 -0.0228  0.0737
  591loPI   PO4 9444   1.713   5.276  11.117 -0.2143 -0.2183  0.0820
  591loPI   GL1 9445   1.743   5.383  10.787  0.2369 -0.0229 -0.0373
  591loPI   GL2 9446   1.513   5.148  10.664 -0.0276  0.2119 -0.0498
  591loPI   C1A 9447   1.541   5.584  10.483 -0.0055  0.0448 -0.4606
  591loPI   C2A 9448   1.553   5.590  10.166  0.2659  0.0105  0.0570
  591loPI   C3A 9449   1.529   5.589   9.645  0.1417  0.0438 -0.0762
  591loPI   C4A 9450   1.528   5.584   9.217 -0.1796  0.0089 -0.1971
  591loPI   C5A 9451   1.523   5.528   8.874  0.2681  0.2407 -0.1495
  591loPI   C6A 9452   1.520   5.720   8.485 -0.1098 -0.1345 -0.2467
  591loPI   C1B 9453   1.618   4.997  10.281 -0.2191  0.0658  0.3335
  591loPI   C2B 9454   1.602   5.032   9.832  0.0726 -0.0217 -0.3261
  591loPI   C3B 9455   1.556   5.084   9.395 -0.3077  0.1502 -0.0698
  591loPI   C4B 9456   1.577   4.917   8.976  0.0900  0.1555  0.2079
  592loPI    C1 9457   5.416  17.596  11.269  0.0504 -0.1891 -0.0808
  592loPI    C2 9458   5.415  17.408  11.622 -0.0423  0.1316  0.0937
  592loPI    C3 9459   5.651  17.726  11.565 -0.1644  0.1944 -0.0718
  592loPI   PO4 9460   5.344  17.512  11.041  0.0779 -0.1065 -0.4038
  592loPI   GL1 9461   5.303  17.472  10.733 -0.1677  0.1557 -0.1400
  592loPI   GL2 9462   5.390  17.750  10.551 -0.0610 -0.1035 -0.1276
  592loPI   C1A 9463   5.289  17.308  10.349 -0.1141 -0.2262  0.1869
  592loPI   C2A 9464   5.399  17.299   9.943  0.2590 -0.0085 -0.4661
  592loPI   C3A 9465   5.394  17.265   9.501  0.0511  0.0222  0.2424
  592loPI   C4A 9466   5.375  17.224   9.096 -0.2457  0.0406  0.1919
  592loPI   C5A 9467   5.602  17.282   8.668  0.0254  0.0918 -0.3536
  592loPI   C6A 9468   5.739  16.951   8.406 -0.3403 -0.1083  0.0331
  592loPI   C1B 9469   5.672  17.730  10.278 -0.2867  0.1298 -0.4754
  592loPI   C2B 9470   5.760  17.616   9.934  0.0161 -0.0046 -0.0314
  592loPI   C3B 9471   5.886  17.529   9.466  0.0132  0.1815  0.1165
  592loPI   C4B 9472   5.855  17.554   9.044 -0.0348  0.0113 -0.1448
  593loPI    C1 9473   0.714  15.861  10.985 -0.2749 -0.0921  0.1466
  593loPI    C2 9474   0.910  15.512  10.977 -0.0810  0.0159  0.1316
  593loPI    C3 9475   0.863  15.707  11.323 -0.1721 -0.0149  0.1369
  593loPI   PO4 9476   0.819  16.003  10.808  0.2428 -0.2366  0.0872
  593loPI   GL1 9477   1.066  16.092  10.455  0.0763 -0.2621 -0.0051
  593loPI   GL2 9478   0.779  16.133  10.336 -0.0885  0.2106 -0.0458
  593loPI   C1A 9479   1.245  16.042  10.218  0.1623  0.0878  0.0364
  593loPI   C2A 9480   1.382  16.079   9.814 -0.3141  0.2881 -0.0177
  593loPI   C3A 9481   1.407  16.062   9.420  0.0558  0.0940 -0.0636
  593loPI   C4A 9482   1.417  16.087   8.962 -0.3431 -0.2523 -0.3348
  593loPI   C5A 9483   1.356  16.069   8.459  0.0389  0.2596  0.3370
  593loPI   C6A 9484   1.188  16.298   8.117  0.2036  0.4838  0.0645
  593loPI   C1B 9485   0.870  16.174   9.880 -0.0903  0.4287 -0.1288
  593loPI   C2B 9486   0.987  16.252   9.433  0.0574  0.0311 -0.0959
  593loPI   C3B 9487   0.985  16.277   9.022  0.1682 -0.3202 -0.1513
  593loPI   C4B 9488   0.910  16.287   8.576  0.1384 -0.0582  0.0552
  594loPI    C1 9489   4.613   6.585  11.532  0.1532  0.1176  0.0476
  594loPI    C2 9490   4.799   6.506  11.877 -0.0186  0.2866  0.1809
  594loPI    C3 9491   4.428   6.654  11.879 -0.1733 -0.0818 -0.0819
  594loPI   PO4 9492   4.718   6.837  11.224  0.0788  0.2513 -0.1021
  594loPI   GL1 9493   4.796   6.859  10.862  0.0989  0.0275 -0.2842
  594loPI   GL2 9494   4.880   7.095  10.581 -0.0271 -0.1198 -0.2001
  594loPI   C1A 9495   4.633   6.698  10.400  0.0620  0.0956  0.0345
  594loPI   C2A 9496   4.593   6.690   9.974  0.0761 -0.1216 -0.2617
  594loPI   C3A 9497   4.591   6.763   9.568 -0.0584  0.3460  0.1021
  594loPI   C4A 9498   4.568   6.611   9.127 -0.1227  0.1545 -0.2404
  594loPI   C5A 9499   4.542   6.696   8.653 -0.0590  0.4328 -0.2864
  594loPI   C6A 9500   4.191   6.466   8.308 -0.0610 -0.0223  0.0088
  594loPI   C1B 9501   5.079   7.011  10.163  0.2167 -0.0090 -0.3307
  594loPI   C2B 9502   5.446   6.845  10.108  0.2677  0.1210  0.1935
  594loPI   C3B 9503   5.536   6.762   9.588 -0.4013  0.3000 -0.0286
  594loPI   C4B 9504   5.454   6.747   9.109  0.2244  0.0435 -0.0109
  595loPI    C1 9505   6.556   1.833  11.001 -0.0555 -0.1019 -0.0727
  595loPI    C2 9506   6.347   1.732  11.327 -0.2443  0.2273 -0.0876
  595loPI    C3 9507   6.493   2.102  11.290  0.2820  0.0256 -0.1138
  595loPI   PO4 9508   6.614   1.549  10.892 -0.3514  0.0324 -0.0241
  595loPI   GL1 9509   6.572   1.427  10.472  0.2547  0.0755  0.2590
  595loPI   GL2 9510   6.872   1.166  10.400 -0.0589 -0.0049  0.0766
  595loPI   C1A 9511   6.499   1.372  10.055  0.2661 -0.0005 -0.3787
  595loPI   C2A 9512   6.540   1.363   9.607  0.3529 -0.1844 -0.0406
  595loPI   C3A 9513   6.535   1.332   9.180  0.1655 -0.0058  0.3843
  595loPI   C4A 9514   6.479   1.281   8.737 -0.1158  0.0186 -0.0687
  595loPI   C5A 9515   6.465   1.158   8.334 -0.1967  0.0503 -0.2891
  595loPI   C6A 9516   6.377   1.039   7.911 -0.2897  0.1322  0.0629
  595loPI   C1B 9517   6.998   1.175   9.960  0.3383 -0.0848 -0.1409
  595loPI   C2B 9518   7.030   1.180   9.518  0.2603 -0.1883  0.1442
  595loPI   C3B 9519   7.029   1.128   9.133  0.0202 -0.0851  0.0485
  595loPI   C4B 9520   7.032   1.271   8.619 -0.1431 -0.2553  0.1131
  596loPI    C1 9521   7.842   3.261  11.335  0.0392 -0.0710 -0.1640
  596loPI    C2 9522   7.937   2.988  11.611  0.0178  0.0821 -0.0039
  596loPI    C3 9523   7.772   3.335  11.722 -0.1310  0.0828 -0.2231
  596loPI   PO4 9524   7.766   3.124  11.133 -0.1671  0.2787  0.2528
  596loPI   GL1 9525   7.733   2.770  10.816  0.1703  0.2265  0.0807
  596loPI   GL2 9526   7.925   2.542  10.702  0.1833  0.2197  0.1896
  596loPI   C1A 9527   7.699   2.835  10.368  0.0473 -0.1016 -0.0200
  596loPI   C2A 9528   7.675   2.759   9.936 -0.0502 -0.0597 -0.1802
  596loPI   C3A 9529   7.684   2.777   9.483  0.0567  0.0649  0.3040
  596loPI   C4A 9530   7.672   2.851   9.051  0.4639 -0.5496 -0.0915
  596loPI   C5A 9531   7.641   2.798   8.695  0.4246  0.0238 -0.1341
  596loPI   C6A 9532   7.804   2.573   8.448  0.1850 -0.2177  0.0035
  596loPI   C1B 9533   8.151   2.576  10.187  0.3751 -0.2961 -0.0124
  596loPI   C2B 9534   8.134   2.592   9.763  0.0203 -0.0431 -0.0192
  596loPI   C3B 9535   8.118   2.496   9.279 -0.0723 -0.1097 -0.0604
  596loPI   C4B 9536   8.078   2.579   8.842 -0.2155 -0.1322 -0.0025
  597loPI    C1 9537   9.609  13.631  11.542 -0.1647 -0.1838 -0.0001
  597loPI    C2 9538   9.957  13.436  11.567 -0.1389 -0.1569 -0.1417
  597loPI    C3 9539   9.623  13.267  11.708 -0.0260 -0.0702  0.2422
  597loPI   PO4 9540   9.580  13.695  11.301  0.1326  0.0317  0.1266
  597loPI   GL1 9541   9.654  13.543  10.831  0.0415 -0.0361 -0.0631
  597loPI   GL2 9542  10.000  13.530  11.049 -0.1582 -0.0518 -0.0754
  597loPI   C1A 9543   9.643  13.468  10.376 -0.3018 -0.0573 -0.3043
  597loPI   C2A 9544   9.462  13.567  10.001  0.1757 -0.1088 -0.0160
  597loPI   C3A 9545   9.457  13.521   9.541 -0.2077  0.1434 -0.2220
  597loPI   C4A 9546   9.411  13.472   9.072 -0.3133 -0.0814 -0.0999
  597loPI   C5A 9547   9.551  13.380   8.684 -0.0765 -0.2535  0.0331
  597loPI   C6A 9548   9.798  13.368   8.267  0.2283  0.1879 -0.1735
  597loPI   C1B 9549  10.078  13.380  10.591  0.2520 -0.0242  0.0104
  597loPI   C2B 9550  10.042  13.292  10.171  0.2591 -0.2802  0.2091
  597loPI   C3B 9551   9.954  13.432   9.846  0.1788  0.1855  0.1869
  597loPI   C4B 9552   9.921  13.442   9.408  0.0168  0.1432 -0.2445
  598loPI    C1 9553   3.717  10.010  11.210  0.1337  0.2340 -0.0006
  598loPI    C2 9554   3.931  10.169  11.508  0.0731 -0.0541  0.2011
  598loPI    C3 9555   3.549  10.068  11.568  0.0974 -0.2313  0.0635
  598loPI   PO4 9556   4.042   9.957  11.054 -0.3165 -0.0156  0.0159
  598loPI   GL1 9557   4.214   9.851  10.627 -0.0623  0.3105 -0.2921
  598loPI   GL2 9558   4.447  10.169  10.802 -0.1121  0.0480 -0.1956
  598loPI   C1A 9559   4.234   9.737  10.161  0.0726  0.1828 -0.0341
  598loPI   C2A 9560   4.304   9.759   9.655 -0.3410 -0.1458  0.0829
  598loPI   C3A 9561   4.306   9.789   9.240  0.1880 -0.0034 -0.0984
  598loPI   C4A 9562   4.403   9.854   8.812  0.0326 -0.2469 -0.0495
  598loPI   C5A 9563   4.432  10.112   8.425  0.1479 -0.0120  0.2524
  598loPI   C6A 9564   4.062  10.298   8.229 -0.1184 -0.0949 -0.0366
  598loPI   C1B 9565   4.119  10.456  10.561  0.2073 -0.0214 -0.1657
  598loPI   C2B 9566   3.819  10.434  10.143  0.1323 -0.0404 -0.0812
  598loPI   C3B 9567   3.726  10.490   9.694 -0.2593  0.0007 -0.3186
  598loPI   C4B 9568   3.812  10.437   9.306 -0.0339 -0.1908  0.0016
  599loPI    C1 9569  11.838   6.518  10.843 -0.0002 -0.1391  0.1033
  599loPI    C2 9570  11.752   6.783  11.129  0.1637 -0.0060  0.0313
  599loPI    C3 9571  11.683   6.394  11.190  0.3367  0.0041  0.3106
  599loPI   PO4 9572  11.705   6.692  10.613 -0.0928  0.2238 -0.2183
  599loPI   GL1 9573  11.563   6.940  10.264 -0.4447  0.1245  0.3293
  599loPI   GL2 9574  11.951   6.954  10.166  0.1558 -0.0712  0.1121
  599loPI   C1A 9575  11.518   6.990   9.872  0.1467  0.1782  0.1258
  599loPI   C2A 9576  11.648   7.017   9.518  0.0580  0.1998  0.0159
  599loPI   C3A 9577  11.595   7.114   9.081  0.0212  0.2792 -0.0889
  599loPI   C4A 9578  11.657   7.153   8.686  0.1484 -0.1687 -0.0080
  599loPI   C5A 9579  11.713   7.143   8.283  0.0644 -0.1115  0.0159
  599loPI   C6A 9580  12.068   7.076   8.022  0.0157 -0.0596  0.0094
  599loPI   C1B 9581  12.077   6.789   9.756  0.1181  0.1481 -0.3714
  599loPI   C2B 9582  12.076   6.836   9.237 -0.1586  0.1447 -0.1862
  599loPI   C3B 9583  12.101   6.815   8.824 -0.0135  0.2189 -0.0110
  599loPI   C4B 9584  12.184   6.855   8.438 -0.1784 -0.0537  0.1582
  600loPI    C1 9585  13.053   7.983  10.906 -0.1001 -0.0858  0.2102
  600loPI    C2 9586  13.329   8.245  11.029  0.0910 -0.1679 -0.0354
  600loPI    C3 9587  13.143   8.011  11.295  0.2072 -0.0635  0.1402
  600loPI   PO4 9588  12.897   8.099  10.681 -0.4233  0.0592 -0.0912
  600loPI   GL1 9589  13.055   8.075  10.351  0.2361  0.4058  0.0951
  600loPI   GL2 9590  13.103   7.743  10.369 -0.1858  0.2428 -0.2946
  600loPI   C1A 9591  13.153   8.255  10.036 -0.0912  0.2753  0.0831
  600loPI   C2A 9592  13.277   8.221   9.739  0.0545 -0.2240  0.0110
  600loPI   C3A 9593  13.370   8.190   9.208 -0.1688 -0.0381 -0.3017
  600loPI   C4A 9594  13.401   8.172   8.786 -0.3078 -0.0002  0.0707
  600loPI   C5A 9595  13.428   8.289   8.445 -0.2237  0.5127  0.1137
  600loPI   C6A 9596  13.439   7.992   8.193  0.0629 -0.1288 -0.2202
  600loPI   C1B 9597  13.273   7.745   9.951  0.0392 -0.0214  0.0943
  600loPI   C2B 9598  13.314   7.734   9.460 -0.1572  0.0443 -0.3179
  600loPI   C3B 9599  13.360   7.718   9.004  0.0362 -0.0668  0.2978
  600loPI   C4B 9600  13.264   7.731   8.601  0.2069 -0.2986  0.0028
  601loPI    C1 9601   0.083   0.682  11.023 -0.1545 -0.1914  0.0766
  601loPI    C2 9602   0.176   0.553  11.390  0.0310  0.0604  0.1206
  601loPI    C3 9603   0.458   0.716  11.158 -0.0716 -0.1527 -0.1590
  601loPI   PO4 9604  -0.002   0.516  10.879  0.2109  0.3785 -0.3611
  601loPI   GL1 9605   0.015   0.679  10.419 -0.0781  0.3244  0.0634
  601loPI   GL2 9606  -0.080   0.835  10.521 -0.0875  0.0382 -0.0569
  601loPI   C1A 9607   0.231   0.703  10.071  0.3190 -0.0871  0.0536
  601loPI   C2A 9608   0.214   0.706   9.561 -0.2125 -0.0221  0.0085
  601loPI   C3A 9609   0.266   0.745   9.150  0.1070  0.0498 -0.0924
  601loPI   C4A 9610   0.195   0.647   8.670 -0.1701 -0.1983  0.0907
  601loPI   C5A 9611   0.363   0.726   8.288  0.1624  0.0819  0.0649
  601loPI   C6A 9612   0.783   0.953   8.142 -0.1792 -0.0951  0.0800
  601loPI   C1B 9613  -0.227   0.864  10.087 -0.0821 -0.1830 -0.0896
  601loPI   C2B 9614  -0.226   0.833   9.715 -0.2306  0.0781  0.1839
  601loPI   C3B 9615  -0.233   0.957   9.295  0.0076  0.2980  0.3280
  601loPI   C4B 9616  -0.267   0.874   8.833  0.1242 -0.1465 -0.3245
  602loPI    C1 9617   5.366  13.605  11.385  0.0862  0.1043  0.0289
  602loPI    C2 9618   5.515  13.261  11.524 -0.2356  0.0125  0.1550
  602loPI    C3 9619   5.451  13.567  11.774 -0.0926  0.1137  0.0696
  602loPI   PO4 9620   5.266  13.495  11.087 -0.3443  0.1656  0.0959
  602loPI   GL1 9621   4.987  13.543  10.926 -0.0604 -0.1437  0.0989
  602loPI   GL2 9622   4.997  13.253  10.742  0.2061  0.0115 -0.2802
  602loPI   C1A 9623   4.867  13.636  10.470 -0.0700  0.0961 -0.1982
  602loPI   C2A 9624   4.872  13.482  10.083  0.0337  0.0918  0.2017
  602loPI   C3A 9625   4.818  13.397   9.617 -0.1835 -0.1114  0.2391
  602loPI   C4A 9626   4.966  13.441   9.183 -0.1291  0.0019  0.1659
  602loPI   C5A 9627   4.836  13.400   8.707 -0.0740  0.1373  0.1778
  602loPI   C6A 9628   4.451  13.398   8.510  0.0771  0.2629  0.1834
  602loPI   C1B 9629   4.978  13.058  10.338  0.2160  0.0352 -0.1990
  602loPI   C2B 9630   4.919  13.003   9.850  0.3099 -0.1946  0.0094
  602loPI   C3B 9631   4.969  12.949   9.452  0.0807 -0.0238  0.0019
  602loPI   C4B 9632   4.963  12.970   8.986  0.1573  0.1250 -0.3455
  603loPI    C1 9633   0.985   1.812  11.162 -0.0556 -0.1132  0.0987
  603loPI    C2 9634   0.848   1.558  11.438  0.2203 -0.1667  0.1900
  603loPI    C3 9635   1.065   1.875  11.549  0.1410 -0.0630  0.0514
  603loPI   PO4 9636   1.114   1.601  10.944 -0.0084 -0.1835  0.1608
  603loPI   GL1 9637   1.017   1.470  10.460 -0.4016  0.1075 -0.3428
  603loPI   GL2 9638   0.623   1.483  10.456 -0.1293 -0.1939  0.1562
  603loPI   C1A 9639   1.055   1.342  10.039  0.3029  0.2772 -0.1058
  603loPI   C2A 9640   1.171   1.295   9.696  0.0471 -0.0695  0.2342
  603loPI   C3A 9641   1.039   1.222   9.287 -0.0244  0.1914 -0.1394
  603loPI   C4A 9642   1.030   1.346   8.813  0.0639 -0.2138  0.2230
  603loPI   C5A 9643   1.029   1.282   8.385 -0.0845 -0.0105  0.1372
  603loPI   C6A 9644   1.144   1.375   7.998 -0.0238 -0.1122 -0.1607
  603loPI   C1B 9645   0.574   1.497   9.999 -0.0347 -0.0113  0.1179
  603loPI   C2B 9646   0.630   1.491   9.625 -0.2266  0.3080  0.0638
  603loPI   C3B 9647   0.605   1.546   9.249  0.1279  0.0317 -0.0244
  603loPI   C4B 9648   0.493   1.513   8.822 -0.0922  0.0233  0.2405
  604loPI    C1 9649   7.541   4.711  11.290  0.2087 -0.2150 -0.2897
  604loPI    C2 9650   7.798   4.822  11.576  0.0787 -0.0173 -0.2467
  604loPI    C3 9651   7.407   4.885  11.624  0.0226 -0.2888 -0.3248
  604loPI   PO4 9652   7.734   4.773  11.052 -0.0919 -0.0022 -0.3189
  604loPI   GL1 9653   7.699   4.709  10.578 -0.0486  0.0324 -0.1000
  604loPI   GL2 9654   7.921   4.529  10.414 -0.1972 -0.3118 -0.2387
  604loPI   C1A 9655   7.495   4.858  10.089  0.4781 -0.2250  0.0196
  604loPI   C2A 9656   7.501   4.877   9.616  0.0403 -0.0872 -0.0842
  604loPI   C3A 9657   7.471   4.819   9.228 -0.4557  0.0069  0.0711
  604loPI   C4A 9658   7.426   4.775   8.836  0.1193 -0.0890 -0.2299
  604loPI   C5A 9659   7.387   4.898   8.397 -0.2872  0.1754 -0.0019
  604loPI   C6A 9660   7.414   4.736   7.991 -0.1944 -0.1109 -0.0194
  604loPI   C1B 9661   7.946   4.630  10.040 -0.0064  0.2683  0.1060
  604loPI   C2B 9662   7.871   4.551   9.480 -0.0862 -0.1930  0.1162
  604loPI   C3B 9663   7.918   4.588   9.096 -0.0601 -0.0851  0.0082
  604loPI   C4B 9664   7.823   4.637   8.623  0.0458  0.1736 -0.3433
  605loPI    C1 9665  11.688  17.824  10.707 -0.4399  0.3592 -0.1053
  605loPI    C2 9666  11.569  18.029  11.029 -0.0257  0.3652  0.0494
  605loPI    C3 9667  11.959  17.989  10.950 -0.1173  0.1601 -0.3222
  605loPI   PO4 9668  11.450  17.899  10.548  0.1542  0.1673 -0.0780
  605loPI   GL1 9669  11.112  18.072  10.346  0.2326 -0.0011  0.1725
  605loPI   GL2 9670  11.232  18.411  10.393  0.1313 -0.1496 -0.2151
  605loPI   C1A 9671  11.266  18.156   9.977 -0.0137 -0.1016  0.1879
  605loPI   C2A 9672  11.098  18.165   9.484 -0.4500  0.0297  0.4409
  605loPI   C3A 9673  11.086  18.241   9.068 -0.0124 -0.1412  0.0085
  605loPI   C4A 9674  11.314  18.393   8.684 -0.4914 -0.3075  0.1200
  605loPI   C5A 9675  11.614  18.607   8.440  0.2882 -0.2584 -0.0987
  605loPI   C6A 9676  11.993  18.586   8.265 -0.0986 -0.1122 -0.4203
  605loPI   C1B 9677  11.157  18.648  10.049  0.0443  0.1121 -0.0818
  605loPI   C2B 9678  11.020  18.682   9.605  0.0033 -0.2016  0.1872
  605loPI   C3B 9679  11.006  18.781   9.152  0.3436 -0.2945 -0.0741
  605loPI   C4B 9680  11.283  18.925   8.811 -0.1997  0.0928 -0.0654
  606loPI    C1 9681   7.156   2.874  11.236  0.0162 -0.1026  0.2205
  606loPI    C2 9682   7.521   2.742  11.336  0.1731  0.1611  0.0113
  606loPI    C3 9683   7.195   2.564  11.486  0.3867 -0.0518  0.2317
  606loPI   PO4 9684   7.206   2.861  10.955  0.1109 -0.0857 -0.3306
  606loPI   GL1 9685   7.209   3.106  10.587  0.2075  0.0815  0.1863
  606loPI   GL2 9686   7.241   3.447  10.450 -0.1230  0.1913  0.0128
  606loPI   C1A 9687   7.212   2.989  10.171 -0.4044  0.0442  0.0095
  606loPI   C2A 9688   7.254   2.999   9.664  0.1333 -0.2248 -0.2683
  606loPI   C3A 9689   7.167   2.897   9.319  0.0220  0.0251 -0.1067
  606loPI   C4A 9690   7.181   2.997   8.943 -0.1015  0.0125 -0.1867
  606loPI   C5A 9691   7.293   2.978   8.388 -0.4102 -0.0914  0.0456
  606loPI   C6A 9692   7.415   2.779   8.041 -0.0467  0.1795 -0.1244
  606loPI   C1B 9693   7.227   3.534  10.016  0.0378  0.1024  0.2988
  606loPI   C2B 9694   7.123   3.518   9.555 -0.0553 -0.1009 -0.1890
  606loPI   C3B 9695   7.140   3.494   9.084 -0.1071  0.0975  0.0637
  606loPI   C4B 9696   7.191   3.515   8.608 -0.1225 -0.2596 -0.3047
  607loPI    C1 9697   9.304   9.430  10.737  0.0556 -0.2067  0.2347
  607loPI    C2 9698   9.371   9.402  10.344 -0.1807  0.1490  0.1641
  607loPI    C3 9699   9.625   9.606  10.575 -0.2190  0.2222  0.1417
  607loPI   PO4 9700   9.018   9.503  10.702 -0.3303 -0.2143 -0.0628
  607loPI   GL1 9701   8.829   9.569  10.380  0.3491 -0.0273 -0.3152
  607loPI   GL2 9702   9.008   9.840  10.226  0.0706 -0.0053 -0.1029
  607loPI   C1A 9703   9.064   9.486   9.912  0.1134 -0.2689  0.1625
  607loPI   C2A 9704   9.004   9.414   9.502  0.0051  0.0288 -0.3591
  607loPI   C3A 9705   8.851   9.070   9.166 -0.1047 -0.0922 -0.0170
  607loPI   C4A 9706   8.865   8.825   8.834  0.1805 -0.2084 -0.0324
  607loPI   C5A 9707   9.170   8.725   8.443  0.0466  0.0972  0.3812
  607loPI   C6A 9708   9.376   8.617   8.013 -0.2137  0.3618 -0.3554
  607loPI   C1B 9709   8.725   9.825   9.767 -0.1561 -0.2283  0.4070
  607loPI   C2B 9710   8.542   9.986   9.365 -0.1341 -0.0080 -0.1848
  607loPI   C3B 9711   8.512  10.016   8.981  0.2033  0.0566 -0.1475
  607loPI   C4B 9712   8.349  10.015   8.458 -0.0555  0.0272  0.1905
  608loPI    C1 9713  11.061   9.675  10.940  0.1241  0.0907 -0.0314
  608loPI    C2 9714  11.187   9.300  10.877  0.4239  0.1385  0.2556
  608loPI    C3 9715  10.860   9.367  11.098  0.2866  0.0427  0.0844
  608loPI   PO4 9716  11.085   9.775  10.680 -0.1360  0.2138  0.0874
  608loPI   GL1 9717  11.180   9.896  10.280  0.1948  0.0428  0.0201
  608loPI   GL2 9718  11.474  10.018  10.000 -0.0158  0.2132  0.0943
  608loPI   C1A 9719  10.994   9.850   9.911  0.0759 -0.1130 -0.1802
  608loPI   C2A 9720  10.828   9.957   9.523 -0.2670  0.1988 -0.0741
  608loPI   C3A 9721  10.685   9.749   9.115 -0.0211  0.2018 -0.0019
  608loPI   C4A 9722  10.955   9.505   8.919 -0.1027  0.3111 -0.1715
  608loPI   C5A 9723  11.467   9.534   8.951  0.0397 -0.2906 -0.1443
  608loPI   C6A 9724  11.879   9.396   8.767  0.1080  0.2226 -0.1458
  608loPI   C1B 9725  11.336  10.111   9.596  0.0996  0.0544  0.1306
  608loPI   C2B 9726  11.272  10.383   9.258 -0.0897  0.0382 -0.3208
  608loPI   C3B 9727  11.221  10.451   8.820 -0.0180 -0.2344  0.1925
  608loPI   C4B 9728  11.490  10.442   8.467 -0.0991 -0.1716 -0.0738
  609POPI    C1 9729   8.075  15.952  11.310 -0.0895  0.2414 -0.1347
  609POPI    C2 9730   8.049  16.351  11.311 -0.2127  0.2360  0.2146
  609POPI    C3 9731   8.180  16.158  11.636 -0.0228 -0.0030  0.0011
  609POPI   PO4 9732   8.249  15.909  11.087  0.0587 -0.3010  0.0676
  609POPI   GL1 9733   8.324  15.979  10.673 -0.2310  0.1618 -0.2004
  609POPI   GL2 9734   8.546  16.272  10.496  0.0416  0.0786  0.0243
  609POPI   C1A 9735   8.152  15.912  10.304  0.0162  0.0444  0.0122
  609POPI   D2A 9736   8.272  15.868   9.875 -0.0085 -0.0234  0.1648
  609POPI   C3A 9737   8.187  16.052   9.508 -0.1478 -0.1926  0.1002
  609POPI   C4A 9738   8.236  16.033   9.112  0.0976  0.0614  0.2134
  609POPI   C1B 9739   8.623  16.306  10.114 -0.2324  0.3638  0.0064
  609POPI   C2B 9740   8.640  16.258   9.762 -0.1085 -0.1131  0.1861
  609POPI   C3B 9741   8.598  16.319   9.466 -0.0479 -0.0824  0.0343
  609POPI   C4B 9742   8.609  16.343   9.129 -0.2110 -0.1874 -0.1609
  610POPI    C1 9743  10.363   7.609  10.920  0.1428  0.2281  0.2131
  610POPI    C2 9744  10.701   7.412  10.839 -0.2146 -0.3338  0.0264
  610POPI    C3 9745  10.561   7.424  11.214  0.0959  0.0549  0.1372
  610POPI   PO4 9746  10.229   7.614  10.608  0.1622  0.0487 -0.1410
  610POPI   GL1 9747  10.280   7.684  10.216 -0.0239  0.2267  0.1921
  610POPI   GL2 9748  10.186   7.483   9.942 -0.1250  0.1538 -0.0730
  610POPI   C1A 9749  10.242   7.974   9.921  0.0368 -0.2903 -0.0890
  610POPI   D2A 9750  10.484   7.978   9.529 -0.2721  0.1900  0.1158
  610POPI   C3A 9751  10.370   8.003   9.090  0.0793 -0.1287 -0.1250
  610POPI   C4A 9752  10.547   7.997   8.639  0.2756 -0.3751  0.2035
  610POPI   C1B 9753  10.259   7.114   9.771  0.0491  0.0577 -0.1567
  610POPI   C2B 9754  10.165   6.962   9.424 -0.1952 -0.2940 -0.2499
  610POPI   C3B 9755  10.301   6.629   9.185 -0.1701  0.3107  0.1952
  610POPI   C4B 9756  10.395   6.564   8.788 -0.0749 -0.1203  0.0923
  611POPI    C1 9757   4.856  16.813  11.317  0.0830 -0.0764  0.2990
  611POPI    C2 9758   4.993  17.180  11.398  0.0988 -0.0860  0.3163
  611POPI    C3 9759   4.844  16.953  11.691  0.0202 -0.0652  0.2930
  611POPI   PO4 9760   4.760  16.835  11.063 -0.1211 -0.3883  0.0387
  611POPI   GL1 9761   4.785  16.832  10.672  0.2332  0.3269  0.3443
  611POPI   GL2 9762   4.492  16.697  10.570 -0.3921  0.3547  0.1162
  611POPI   C1A 9763   4.846  16.965  10.282 -0.0279  0.0004  0.4544
  611POPI   D2A 9764   5.007  16.837   9.822 -0.0267 -0.2262 -0.1034
  611POPI   C3A 9765   5.045  16.934   9.468 -0.1032  0.0520  0.1181
  611POPI   C4A 9766   4.982  16.906   8.990  0.0258  0.0930 -0.0842
  611POPI   C1B 9767   4.542  16.623  10.103 -0.0920 -0.2151  0.0975
  611POPI   C2B 9768   4.534  16.548   9.658 -0.2390 -0.3086 -0.1132
  611POPI   C3B 9769   4.651  16.569   9.242 -0.0769  0.1138  0.0730
  611POPI   C4B 9770   4.609  16.564   8.830  0.0195 -0.1288 -0.1334
  612POPI    C1 9771  13.072  10.482  10.830 -0.0411  0.1526  0.0558
  612POPI    C2 9772  13.067  10.194  11.108  0.0881  0.1373  0.0430
  612POPI    C3 9773  12.942  10.562  11.200 -0.3016  0.0213 -0.0050
  612POPI   PO4 9774  12.923  10.335  10.587  0.0996 -0.0392 -0.0905
  612POPI   GL1 9775  12.753  10.383  10.177 -0.0502  0.0275  0.1227
  612POPI   GL2 9776  13.017  10.498  10.094  0.0273  0.0142 -0.0834
  612POPI   C1A 9777  12.593  10.366   9.751 -0.1861  0.1183  0.1723
  612POPI   D2A 9778  12.564  10.461   9.341  0.2867  0.0251  0.1671
  612POPI   C3A 9779  13.014  10.306   9.089  0.1047  0.0585 -0.0646
  612POPI   C4A 9780  13.431  10.537   9.109  0.1249  0.2976 -0.0197
  612POPI   C1B 9781  13.137  10.717   9.660  0.1739 -0.1610 -0.0613
  612POPI   C2B 9782  12.976  10.770   9.225  0.1026  0.1319  0.1754
  612POPI   C3B 9783  13.067  10.714   8.737 -0.1759  0.0192  0.1586
  612POPI   C4B 9784  12.792  10.689   8.368  0.2563 -0.0786 -0.0418
  613POPI    C1 9785   6.846   5.783  11.029 -0.0358  0.0287 -0.1294
  613POPI    C2 9786   6.508   5.750  11.240  0.0379 -0.2215 -0.0468
  613POPI    C3 9787   6.815   5.505  11.314  0.2846  0.0838 -0.0370
  613POPI   PO4 9788   6.756   5.810  10.804 -0.0955  0.1095 -0.0874
  613POPI   GL1 9789   6.594   5.555  10.525 -0.2763 -0.0766 -0.0133
  613POPI   GL2 9790   6.573   5.861  10.368 -0.0407 -0.0238 -0.1433
  613POPI   C1A 9791   6.565   5.303  10.061  0.1599  0.0640 -0.0273
  613POPI   D2A 9792   6.577   5.310   9.737 -0.2280 -0.1660 -0.0487
  613POPI   C3A 9793   6.629   5.366   9.301 -0.1890 -0.1018 -0.0057
  613POPI   C4A 9794   6.532   5.314   8.870 -0.0697  0.0023 -0.1490
  613POPI   C1B 9795   6.549   5.840   9.937  0.4163  0.1443 -0.1813
  613POPI   C2B 9796   6.452   5.811   9.436  0.0436  0.1157 -0.1488
  613POPI   C3B 9797   6.513   5.801   9.001  0.0808 -0.2445  0.4565
  613POPI   C4B 9798   6.448   5.734   8.543  0.3727 -0.0980  0.0164
  614POPI    C1 9799  14.092   4.931  10.985  0.0880  0.1522  0.2150
  614POPI    C2 9800  13.869   4.677  11.199  0.1519 -0.0807  0.0091
  614POPI    C3 9801  14.199   4.837  11.358  0.0690 -0.0657  0.1670
  614POPI   PO4 9802  14.089   4.839  10.782  0.1456 -0.0452 -0.1695
  614POPI   GL1 9803  13.911   4.883  10.433 -0.0354  0.0687 -0.1545
  614POPI   GL2 9804  13.708   4.616  10.253 -0.1019  0.4153  0.2315
  614POPI   C1A 9805  14.103   4.903   9.995 -0.1315 -0.0228 -0.0078
  614POPI   D2A 9806  14.151   4.903   9.591  0.1494  0.4023  0.0832
  614POPI   C3A 9807  14.114   4.992   9.162 -0.0501 -0.0870  0.3194
  614POPI   C4A 9808  14.113   5.023   8.673 -0.3141  0.3004 -0.0518
  614POPI   C1B 9809  13.767   4.590   9.839 -0.0960 -0.1310  0.0238
  614POPI   C2B 9810  13.732   4.627   9.378  0.3057  0.2706  0.0678
  614POPI   C3B 9811  13.765   4.703   8.981 -0.2672 -0.0639 -0.1555
  614POPI   C4B 9812  13.743   4.734   8.568 -0.3047  0.0914  0.4104
  615POPI    C1 9813  15.481   1.164  10.834  0.0341 -0.0566  0.3027
  615POPI    C2 9814  15.269   1.489  10.935  0.0326 -0.0187  0.1792
  615POPI    C3 9815  15.112   1.124  10.985 -0.0563  0.0088  0.1026
  615POPI   PO4 9816  15.559   1.221  10.662 -0.2171  0.0922 -0.1949
  615POPI   GL1 9817  15.585   1.262  10.232 -0.1235  0.0518 -0.1266
  615POPI   GL2 9818  15.943   1.281  10.277 -0.1265 -0.1058 -0.1464
  615POPI   C1A 9819  15.364   1.377   9.885  0.0416 -0.0764 -0.4891
  615POPI   D2A 9820  15.418   1.399   9.474  0.1347 -0.1479 -0.3576
  615POPI   C3A 9821  15.335   1.374   9.037 -0.1635 -0.0009 -0.2831
  615POPI   C4A 9822  15.300   1.435   8.609 -0.2548 -0.0838  0.1250
  615POPI   C1B 9823  15.866   1.306   9.838  0.0715 -0.0578  0.4117
  615POPI   C2B 9824  15.825   1.155   9.462  0.0300  0.3855  0.2543
  615POPI   C3B 9825  15.859   1.132   9.068 -0.1062 -0.2048 -0.0223
  615POPI   C4B 9826  15.785   1.284   8.690 -0.0910  0.0300 -0.2518
  616POPI    C1 9827   9.205  13.439  11.103 -0.1417 -0.0455  0.1440
  616POPI    C2 9828   8.846  13.485  11.274 -0.0790 -0.0923  0.2907
  616POPI    C3 9829   9.148  13.328  11.483 -0.0033 -0.1613  0.1317
  616POPI   PO4 9830   9.181  13.624  10.874 -0.1992  0.0658 -0.1582
  616POPI   GL1 9831   9.061  14.038  10.662 -0.1552  0.1390  0.1885
  616POPI   GL2 9832   8.965  13.756  10.397 -0.1117  0.0876 -0.0289
  616POPI   C1A 9833   8.938  14.216  10.255  0.1932  0.5623  0.1308
  616POPI   D2A 9834   8.911  14.329   9.869  0.4615 -0.4425  0.0457
  616POPI   C3A 9835   8.925  14.298   9.359 -0.0657  0.2715 -0.0992
  616POPI   C4A 9836   8.932  14.296   8.986 -0.1268 -0.3451  0.0156
  616POPI   C1B 9837   8.895  13.844   9.955 -0.0641  0.0312  0.3567
  616POPI   C2B 9838   8.846  13.822   9.547 -0.0835 -0.1058  0.0569
  616POPI   C3B 9839   9.003  13.856   9.078  0.3094 -0.0692  0.2592
  616POPI   C4B 9840   9.200  13.927   8.730  0.0556  0.2330 -0.3549
  617POPI    C1 9841  17.098  13.793  11.296 -0.1177  0.0152 -0.0221
  617POPI    C2 9842  17.222  14.172  11.271 -0.0202 -0.0063  0.1233
  617POPI    C3 9843  17.181  13.998  11.629 -0.2164 -0.0837  0.0645
  617POPI   PO4 9844  16.962  13.729  11.059  0.2004  0.0933 -0.1870
  617POPI   GL1 9845  16.989  13.541  10.779  0.3259  0.4289  0.1127
  617POPI   GL2 9846  16.983  13.262  10.696  0.0352 -0.1316  0.2049
  617POPI   C1A 9847  17.192  13.505  10.309 -0.0391 -0.1005  0.0917
  617POPI   D2A 9848  17.191  13.430   9.875  0.0253 -0.0061  0.1453
  617POPI   C3A 9849  17.234  13.416   9.434  0.0811 -0.1333  0.0427
  617POPI   C4A 9850  17.341  13.371   8.952  0.0122  0.2046 -0.2233
  617POPI   C1B 9851  16.720  13.118  10.400 -0.0969  0.0044 -0.0854
  617POPI   C2B 9852  16.804  13.141  10.002 -0.0962 -0.3258 -0.0147
  617POPI   C3B 9853  16.873  13.114   9.508  0.3211 -0.1883  0.0623
  617POPI   C4B 9854  16.928  13.057   9.068  0.0080 -0.0993 -0.1152
  618POPI    C1 9855   6.905  15.422  11.067 -0.1932  0.1848 -0.1375
  618POPI    C2 9856   7.139  15.525  11.375  0.0769  0.1287 -0.3204
  618POPI    C3 9857   6.776  15.370  11.442  0.1240  0.1384 -0.0322
  618POPI   PO4 9858   6.990  15.198  10.890  0.4087  0.3014 -0.1801
  618POPI   GL1 9859   7.068  15.126  10.488  0.3231  0.0306 -0.1382
  618POPI   GL2 9860   7.112  15.468  10.425  0.0486  0.2331 -0.1620
  618POPI   C1A 9861   6.918  15.102  10.041 -0.3673 -0.2415  0.0224
  618POPI   D2A 9862   6.802  15.037   9.636  0.0414 -0.0626  0.3554
  618POPI   C3A 9863   7.016  14.992   9.215  0.2687 -0.1196 -0.1139
  618POPI   C4A 9864   7.231  14.915   8.715 -0.0954 -0.0208  0.3152
  618POPI   C1B 9865   7.356  15.440  10.043 -0.2196  0.1494 -0.0047
  618POPI   C2B 9866   7.371  15.432   9.563 -0.5724  0.2315  0.0864
  618POPI   C3B 9867   7.434  15.336   9.148  0.2186 -0.3294  0.1114
  618POPI   C4B 9868   7.560  15.459   8.764 -0.1067 -0.1675 -0.0444
  619POPI    C1 9869  16.969   4.807  11.153 -0.0196 -0.0702 -0.0756
  619POPI    C2 9870  16.929   4.592  11.488 -0.1412  0.0352 -0.0215
  619POPI    C3 9871  17.165   4.915  11.484 -0.2310  0.1015 -0.0039
  619POPI   PO4 9872  16.669   4.822  10.914 -0.2440 -0.3737 -0.2133
  619POPI   GL1 9873  16.566   4.715  10.526  0.0403  0.0074  0.0637
  619POPI   GL2 9874  16.785   4.776  10.305 -0.1659 -0.1025 -0.0771
  619POPI   C1A 9875  16.455   4.419  10.186  0.2867  0.1062  0.0065
  619POPI   D2A 9876  16.426   4.415   9.768  0.1816 -0.0604  0.2848
  619POPI   C3A 9877  16.432   4.486   9.357 -0.2939 -0.0050 -0.2229
  619POPI   C4A 9878  16.454   4.517   8.930  0.2081 -0.1626 -0.1249
  619POPI   C1B 9879  16.820   4.752   9.832 -0.0286  0.1609  0.1686
  619POPI   C2B 9880  16.830   4.717   9.394 -0.1409  0.0763 -0.3632
  619POPI   C3B 9881  16.894   4.786   8.949 -0.0341  0.1637  0.1491
  619POPI   C4B 9882  17.248   4.669   8.633 -0.0734  0.1435 -0.1620
  620POPI    C1 9883   4.868   9.191  11.493  0.1787  0.0346 -0.1867
  620POPI    C2 9884   5.185   8.947  11.492  0.1709  0.0213  0.0597
  620POPI    C3 9885   4.941   8.957  11.809  0.0377  0.1781 -0.0462
  620POPI   PO4 9886   4.705   9.185  11.221 -0.2681 -0.0165 -0.0491
  620POPI   GL1 9887   4.909   9.338  10.836  0.0871 -0.0450  0.0917
  620POPI   GL2 9888   5.129   9.075  10.804 -0.0016 -0.2051 -0.0408
  620POPI   C1A 9889   5.151   9.391  10.416  0.1698 -0.0998  0.0816
  620POPI   D2A 9890   5.364   9.550   9.969  0.1345 -0.2083  0.0997
  620POPI   C3A 9891   5.173   9.783   9.620 -0.2010  0.0232 -0.0522
  620POPI   C4A 9892   5.193   9.998   9.196  0.0718 -0.0496  0.3391
  620POPI   C1B 9893   4.816   9.040  10.439 -0.2281  0.2625  0.3128
  620POPI   C2B 9894   4.691   8.953   9.990  0.1384 -0.2562 -0.4009
  620POPI   C3B 9895   4.830   9.076   9.610  0.2451  0.0593  0.0279
  620POPI   C4B 9896   4.869   9.133   9.226  0.4513 -0.2170 -0.0422
  621POPI    C1 9897   0.125  12.814  11.154 -0.2656 -0.0341 -0.0692
  621POPI    C2 9898  -0.057  12.665  11.478 -0.0386 -0.1030  0.0291
  621POPI    C3 9899   0.199  12.971  11.515 -0.0456 -0.0819 -0.0919
  621POPI   PO4 9900   0.005  12.806  10.973  0.1541 -0.0222 -0.1365
  621POPI   GL1 9901  -0.100  12.738  10.636  0.3275  0.0911 -0.0479
  621POPI   GL2 9902  -0.186  13.012  10.533  0.0728 -0.2432 -0.0906
  621POPI   C1A 9903  -0.052  12.428  10.333  0.0673 -0.0632 -0.1416
  621POPI   D2A 9904  -0.069  12.208   9.948  0.2825 -0.0680 -0.3106
  621POPI   C3A 9905  -0.038  12.159   9.516 -0.0007  0.3011 -0.1245
  621POPI   C4A 9906  -0.029  12.230   9.088  0.0782 -0.0291 -0.3329
  621POPI   C1B 9907  -0.201  12.838  10.126  0.1870  0.3578 -0.0849
  621POPI   C2B 9908  -0.165  12.669   9.696 -0.4705 -0.0820 -0.2293
  621POPI   C3B 9909  -0.133  12.655   9.345 -0.1762  0.2060 -0.2415
  621POPI   C4B 9910  -0.019  12.714   9.002  0.2326  0.1985 -0.1348
  622POPI    C1 9911   8.720   4.934  11.078 -0.2127  0.1333 -0.0829
  622POPI    C2 9912   8.502   5.140  10.813 -0.2174  0.2157 -0.0152
  622POPI    C3 9913   8.609   5.310  11.159 -0.2032  0.1116  0.0316
  622POPI   PO4 9914   8.863   4.768  10.851  0.1704  0.3733  0.2531
  622POPI   GL1 9915   8.870   4.751  10.439 -0.0456  0.1541 -0.1547
  622POPI   GL2 9916   8.688   4.888  10.390 -0.0131  0.1281  0.0954
  622POPI   C1A 9917   9.221   4.830  10.141  0.0327 -0.1110  0.1167
  622POPI   D2A 9918   9.275   4.599   9.825  0.1282  0.0870 -0.0570
  622POPI   C3A 9919   9.218   4.566   9.370  0.0623  0.2107 -0.2836
  622POPI   C4A 9920   9.268   4.483   8.986 -0.1765  0.0369  0.2007
  622POPI   C1B 9921   8.784   4.774   9.935  0.2614  0.0255  0.0214
  622POPI   C2B 9922   8.767   4.726   9.580 -0.0525 -0.3421  0.1923
  622POPI   C3B 9923   8.772   4.766   9.111 -0.2282 -0.1672 -0.0046
  622POPI   C4B 9924   8.825   4.718   8.695 -0.3847 -0.2051 -0.4037
  623POPI    C1 9925   5.380  15.285  11.046 -0.0124  0.1736 -0.0243
  623POPI    C2 9926   5.319  15.633  10.859  0.2892  0.2078 -0.0631
  623POPI    C3 9927   5.551  15.619  11.184  0.1936  0.0599 -0.0005
  623POPI   PO4 9928   5.470  15.153  10.721  0.3535  0.1392  0.0771
  623POPI   GL1 9929   5.218  15.202  10.381  0.3091 -0.1576 -0.2840
  623POPI   GL2 9930   5.460  15.081  10.226  0.1765  0.0809 -0.1189
  623POPI   C1A 9931   5.098  15.367  10.031  0.1779  0.0687 -0.0662
  623POPI   D2A 9932   5.082  15.413   9.607  0.1692 -0.1085 -0.0492
  623POPI   C3A 9933   5.061  15.291   9.207  0.1733 -0.0324  0.0325
  623POPI   C4A 9934   4.992  15.260   8.770  0.0022 -0.2297 -0.0679
  623POPI   C1B 9935   5.492  15.126   9.775 -0.0179 -0.3976 -0.2563
  623POPI   C2B 9936   5.474  15.154   9.404  0.0546  0.0441  0.2215
  623POPI   C3B 9937   5.489  15.049   8.947 -0.0224 -0.3297 -0.1678
  623POPI   C4B 9938   5.702  14.906   8.620  0.0609  0.1125  0.1937
  624POPI    C1 9939   9.890   0.216  11.072 -0.0665 -0.0790  0.0122
  624POPI    C2 9940  10.206   0.109  10.852 -0.2106 -0.3017 -0.0902
  624POPI    C3 9941  10.206   0.044  11.246  0.0468  0.0947 -0.0191
  624POPI   PO4 9942   9.780   0.486  10.897 -0.0135 -0.0164 -0.2074
  624POPI   GL1 9943   9.685   0.609  10.566 -0.0814  0.0428  0.0722
  624POPI   GL2 9944   9.332   0.718  10.454 -0.0867 -0.4452  0.0082
  624POPI   C1A 9945   9.879   0.484  10.155  0.1478 -0.0235 -0.0640
  624POPI   D2A 9946   9.857   0.365   9.721  0.0678  0.2252  0.0497
  624POPI   C3A 9947   9.720   0.446   9.277 -0.2226 -0.0699 -0.1487
  624POPI   C4A 9948   9.726   0.442   8.810 -0.1827  0.1326  0.0782
  624POPI   C1B 9949   9.386   0.570  10.106  0.0973  0.0329 -0.1339
  624POPI   C2B 9950   9.344   0.546   9.603  0.0841 -0.0997 -0.1182
  624POPI   C3B 9951   9.287   0.630   9.123  0.1124  0.2493 -0.0864
  624POPI   C4B 9952   9.030   0.605   8.826  0.0352 -0.2145 -0.2180
  625DPPI    C1 9953  14.646   0.981  10.819  0.0848 -0.0421 -0.2239
  625DPPI    C2 9954  14.880   0.660  10.865 -0.1186 -0.2040 -0.3000
  625DPPI    C3 9955  14.607   0.751  11.143  0.2306  0.1564 -0.0629
  625DPPI   PO4 9956  14.726   1.082  10.550 -0.2932  0.2481 -0.0674
  625DPPI   GL1 9957  14.579   1.223  10.248  0.1209  0.1909  0.2320
  625DPPI   GL2 9958  14.344   1.325  10.117  0.1898 -0.0854 -0.1163
  625DPPI   C1A 9959  14.943   1.022   9.914 -0.1830  0.0325 -0.0448
  625DPPI   C2A 9960  15.030   1.077   9.466  0.2298  0.0168 -0.1921
  625DPPI   C3A 9961  14.927   1.083   8.982  0.3151  0.0016  0.0033
  625DPPI   C4A 9962  14.977   1.058   8.532 -0.0504  0.1105 -0.2353
  625DPPI   C1B 9963  14.485   1.195   9.719 -0.1664 -0.0685 -0.1493
  625DPPI   C2B 9964  14.520   1.275   9.264 -0.1717 -0.0107 -0.1256
  625DPPI   C3B 9965  14.390   1.292   8.856 -0.1471 -0.1899  0.2559
  625DPPI   C4B 9966  14.242   1.427   8.538  0.0507 -0.0240  0.2517
  626DPPI    C1 9967  12.891   8.978  10.754 -0.1317 -0.1730 -0.1830
  626DPPI    C2 9968  12.647   9.067  11.058  0.0575 -0.3721  0.0315
  626DPPI    C3 9969  13.024   9.199  11.059  0.0158 -0.2443 -0.1947
  626DPPI   PO4 9970  12.781   9.004  10.585 -0.0165 -0.0101  0.2297
  626DPPI   GL1 9971  13.060   9.189  10.314 -0.1011  0.3962  0.1288
  626DPPI   GL2 9972  13.027   9.524  10.186  0.2317  0.0704  0.1854
  626DPPI   C1A 9973  13.278   9.218   9.900 -0.0413  0.0316  0.1009
  626DPPI   C2A 9974  13.640   9.060   9.604 -0.3458 -0.0508 -0.1543
  626DPPI   C3A 9975  13.694   9.089   9.110  0.0058 -0.0191 -0.3128
  626DPPI   C4A 9976  13.800   9.082   8.687  0.2579 -0.0652 -0.2480
  626DPPI   C1B 9977  13.070   9.636   9.732 -0.0230 -0.2495  0.2134
  626DPPI   C2B 9978  13.220   9.412   9.419  0.0959 -0.0356  0.1422
  626DPPI   C3B 9979  13.167   9.360   9.017 -0.0247  0.1062  0.0221
  626DPPI   C4B 9980  13.315   9.251   8.648 -0.0560 -0.0274  0.1071
  627DPPI    C1 9981   7.981   0.137  11.218  0.0871 -0.2619  0.0516
  627DPPI    C2 9982   8.247  -0.141  11.108  0.1828 -0.1504 -0.0009
  627DPPI    C3 9983   8.259   0.011  11.477  0.1873 -0.1502 -0.0011
  627DPPI   PO4 9984   7.969   0.295  11.090  0.0132 -0.2207 -0.1995
  627DPPI   GL1 9985   8.248   0.178  10.657 -0.0005  0.1652 -0.0355
  627DPPI   GL2 9986   8.597   0.099  10.689 -0.0831 -0.1623  0.1119
  627DPPI   C1A 9987   8.117   0.158  10.240  0.1106  0.1852 -0.1545
  627DPPI   C2A 9988   8.038   0.206   9.811  0.1233 -0.1447  0.0908
  627DPPI   C3A 9989   8.019   0.274   9.402  0.1830  0.1137 -0.3063
  627DPPI   C4A 9990   8.033   0.225   8.949  0.0717 -0.0939  0.2602
  627DPPI   C1B 9991   8.606  -0.011  10.218 -0.0871 -0.0688 -0.1317
  627DPPI   C2B 9992   8.539   0.009   9.855 -0.0483 -0.2864  0.3243
  627DPPI   C3B 9993   8.529  -0.025   9.506 -0.3325  0.0620  0.0625
  627DPPI   C4B 9994   8.456  -0.008   9.089 -0.5007 -0.2390 -0.0865
  628DPPI    C1 9995   8.627  15.723  11.410  0.2883  0.1267 -0.1074
  628DPPI    C2 9996   8.787  15.610  11.759  0.3145 -0.1015 -0.1917
  628DPPI    C3 9997   8.634  15.977  11.719 -0.0359 -0.1992  0.1786
  628DPPI   PO4 9998   8.834  15.552  11.194 -0.1726 -0.1643  0.0114
  628DPPI   GL1 9999   8.946  15.619  10.700  0.2831  0.0946  0.0513
  628DPPI   GL210000   8.918  15.950  10.558 -0.2400 -0.1255  0.2503
  628DPPI   C1A10001   9.147  15.611  10.297 -0.1150  0.0700  0.4271
  628DPPI   C2A10002   9.152  15.624   9.803  0.2625  0.1332 -0.1213
  628DPPI   C3A10003   9.166  15.589   9.340 -0.2273 -0.0388 -0.0060
  628DPPI   C4A10004   9.223  15.595   8.915  0.1037  0.0417 -0.0554
  628DPPI   C1B10005   9.103  16.153  10.235 -0.2005 -0.0938  0.3180
  628DPPI   C2B10006   9.069  16.184   9.859  0.0902 -0.3973  0.0827
  628DPPI   C3B10007   9.146  16.106   9.408 -0.2023  0.2165 -0.0907
  628DPPI   C4B10008   9.086  16.070   9.071 -0.2594 -0.1462  0.2183
  629DPPI    C110009   6.260  10.402  11.097  0.2840 -0.0588  0.1944
  629DPPI    C210010   6.313  10.742  11.302  0.3428 -0.1531  0.3370
  629DPPI    C310011   6.180  10.414  11.489 -0.2059 -0.0754  0.1012
  629DPPI   PO410012   6.157  10.461  10.887 -0.0377 -0.1268  0.0298
  629DPPI   GL110013   6.136  10.585  10.485  0.0833  0.2551  0.1073
  629DPPI   GL210014   5.926  10.865  10.449 -0.3804 -0.0157  0.4395
  629DPPI   C1A10015   6.116  10.448   9.938  0.2701 -0.1265 -0.0545
  629DPPI   C2A10016   6.044  10.522   9.495 -0.0002 -0.0037 -0.2857
  629DPPI   C3A10017   6.051  10.502   9.061 -0.0919  0.0616  0.3687
  629DPPI   C4A10018   5.860  10.340   8.726 -0.0902 -0.0733 -0.2396
  629DPPI   C1B10019   6.054  10.959  10.106 -0.1955  0.1547  0.0556
  629DPPI   C2B10020   5.962  10.982   9.702 -0.2176  0.2412  0.0064
  629DPPI   C3B10021   6.033  11.011   9.277 -0.1749  0.0466  0.2261
  629DPPI   C4B10022   6.057  11.027   8.752 -0.1278 -0.1151  0.3315
  630DPPI    C110023   1.367  12.946  11.099 -0.1419  0.0805 -0.0551
  630DPPI    C210024   1.495  12.751  11.424 -0.1892 -0.1032 -0.1452
  630DPPI    C310025   1.224  13.043  11.460  0.1444  0.1922  0.0307
  630DPPI   PO410026   1.458  12.681  10.916  0.0454 -0.4822 -0.0282
  630DPPI   GL110027   1.433  12.437  10.586  0.1015  0.1529 -0.1852
  630DPPI   GL210028   1.350  12.131  10.508 -0.0882  0.0581  0.1035
  630DPPI   C1A10029   1.750  12.441  10.306  0.3820  0.0270  0.0412
  630DPPI   C2A10030   1.828  12.461   9.875  0.2826  0.0090  0.0822
  630DPPI   C3A10031   1.906  12.388   9.447  0.1000 -0.1682 -0.2848
  630DPPI   C4A10032   1.779  12.476   9.090 -0.1150 -0.0117  0.2917
  630DPPI   C1B10033   1.327  12.229  10.116 -0.3623  0.1672  0.1045
  630DPPI   C2B10034   1.421  12.171   9.682 -0.2314 -0.0111  0.0898
  630DPPI   C3B10035   1.374  12.252   9.228 -0.1055 -0.2536 -0.0607
  630DPPI   C4B10036   1.386  12.138   8.837  0.0473 -0.3511 -0.0488
  631DPPI    C110037  13.014   7.273  10.959 -0.1432  0.0936  0.0250
  631DPPI    C210038  12.860   7.573  11.174  0.1211  0.1006  0.2095
  631DPPI    C310039  13.038   7.266  11.358 -0.0317 -0.1068  0.0160
  631DPPI   PO410040  12.930   7.288  10.756  0.0054 -0.3104 -0.3573
  631DPPI   GL110041  12.721   7.314  10.465 -0.2864  0.2734  0.0828
  631DPPI   GL210042  12.470   7.171  10.375  0.3004 -0.1291 -0.0019
  631DPPI   C1A10043  12.853   7.349  10.029 -0.1109  0.2724 -0.2863
  631DPPI   C2A10044  12.956   7.399   9.589 -0.3120  0.0563 -0.2209
  631DPPI   C3A10045  12.891   7.524   9.231 -0.1895 -0.0925 -0.3422
  631DPPI   C4A10046  12.950   7.390   8.861 -0.0553 -0.1300  0.2648
  631DPPI   C1B10047  12.415   7.128  10.013 -0.1210 -0.5689 -0.1259
  631DPPI   C2B10048  12.473   7.030   9.611 -0.0173 -0.1426 -0.2405
  631DPPI   C3B10049  12.480   7.115   9.173 -0.0430  0.1435  0.0488
  631DPPI   C4B10050  12.531   7.060   8.712 -0.1564  0.1985 -0.1280
  632DPPI    C110051  15.642  16.018  10.893  0.0869 -0.0011  0.1308
  632DPPI    C210052  15.537  16.403  10.909 -0.1697 -0.0653  0.0373
  632DPPI    C310053  15.510  16.174  11.236 -0.1864 -0.0467  0.0489
  632DPPI   PO410054  15.870  15.956  10.807 -0.1731  0.1795  0.0821
  632DPPI   GL110055  16.053  15.746  10.597 -0.0237 -0.3726 -0.1287
  632DPPI   GL210056  15.959  15.408  10.401 -0.1361  0.4106 -0.0546
  632DPPI   C1A10057  15.939  15.898  10.212  0.0179  0.0496 -0.0883
  632DPPI   C2A10058  16.029  15.950   9.776  0.0183  0.1247  0.0394
  632DPPI   C3A10059  16.117  15.897   9.396 -0.4670 -0.0798 -0.0195
  632DPPI   C4A10060  16.126  15.881   8.993  0.1562 -0.1461  0.3167
  632DPPI   C1B10061  16.021  15.449   9.950  0.2626 -0.2504  0.1389
  632DPPI   C2B10062  16.072  15.404   9.524  0.0687 -0.0855 -0.2487
  632DPPI   C3B10063  16.099  15.398   9.120  0.1024 -0.0326 -0.0309
  632DPPI   C4B10064  16.101  15.335   8.766  0.1369  0.0444 -0.2750
  633DPPI    C110065   4.770   6.140  11.238  0.0644  0.1905 -0.0125
  633DPPI    C210066   5.028   6.344  11.466 -0.1215  0.2385  0.1584
  633DPPI    C310067   4.800   6.058  11.628 -0.0695  0.0921 -0.0221
  633DPPI   PO410068   4.792   6.377  10.996  0.3772  0.0616  0.4137
  633DPPI   GL110069   5.026   6.437  10.653  0.0815  0.2166 -0.1716
  633DPPI   GL210070   5.354   6.439  10.595 -0.1980 -0.0201  0.0644
  633DPPI   C1A10071   5.062   6.522  10.161  0.1064 -0.1644 -0.0722
  633DPPI   C2A10072   5.096   6.569   9.834 -0.3786 -0.0079  0.1432
  633DPPI   C3A10073   4.981   6.494   9.446  0.2796  0.0833 -0.2022
  633DPPI   C4A10074   5.047   6.434   9.023  0.2723  0.3273 -0.1267
  633DPPI   C1B10075   5.519   6.311  10.141  0.1922 -0.0058 -0.1866
  633DPPI   C2B10076   5.577   6.256   9.804  0.0714 -0.1511  0.0554
  633DPPI   C3B10077   5.517   6.318   9.324  0.0128 -0.0057 -0.1968
  633DPPI   C4B10078   5.464   6.233   8.871 -0.0580  0.0362 -0.2530
  634DPPI    C110079   0.664  17.689  11.004 -0.1022  0.0084  0.2421
  634DPPI    C210080   0.546  17.319  11.097  0.0523 -0.0941  0.0384
  634DPPI    C310081   0.570  17.598  11.382  0.1386 -0.2960  0.2323
  634DPPI   PO410082   0.624  17.660  10.713 -0.1694  0.1784  0.0686
  634DPPI   GL110083   0.457  17.655  10.364 -0.2249  0.0472 -0.0355
  634DPPI   GL210084   0.667  17.515  10.236 -0.1315  0.2181 -0.2356
  634DPPI   C1A10085   0.313  17.900  10.110  0.2806 -0.1294  0.0500
  634DPPI   C2A10086   0.329  18.057   9.731 -0.3080  0.2738 -0.2633
  634DPPI   C3A10087   0.323  17.990   9.265  0.0721 -0.0822  0.1643
  634DPPI   C4A10088   0.283  18.002   8.791 -0.1505 -0.2048 -0.0072
  634DPPI   C1B10089   0.732  17.362   9.860  0.3354 -0.0936 -0.0986
  634DPPI   C2B10090   0.890  17.242   9.431  0.0949 -0.1139  0.0610
  634DPPI   C3B10091   0.862  17.242   9.032 -0.0377  0.0606  0.0240
  634DPPI   C4B10092   0.790  17.185   8.506  0.0005 -0.1834 -0.2997
  635PYPI    C110093   7.402  14.057  11.020 -0.0473  0.1288 -0.3272
  635PYPI    C210094   7.459  14.434  11.141 -0.0796  0.0155  0.0559
  635PYPI    C310095   7.457  14.137  11.408 -0.2415 -0.2368 -0.2195
  635PYPI   PO410096   7.572  13.936  10.805  0.0254 -0.3324  0.0594
  635PYPI   GL110097   7.724  13.774  10.373  0.2062  0.3126 -0.2671
  635PYPI   GL210098   7.874  14.037  10.330 -0.3392  0.1031  0.1064
  635PYPI   C1A10099   7.586  13.679   9.932  0.2619 -0.1872  0.0283
  635PYPI   C2A10100   7.189  13.826   9.737  0.0207  0.2550 -0.0012
  635PYPI   D3A10101   7.014  14.058   9.515  0.1270 -0.2057  0.2038
  635PYPI   C4A10102   6.576  14.161   9.582 -0.0988  0.1477 -0.1287
  635PYPI   C1B10103   7.905  14.005   9.916  0.2418 -0.2670 -0.2407
  635PYPI   C2B10104   7.683  13.882   9.427 -0.1950 -0.2609 -0.1988
  635PYPI   C3B10105   7.512  13.966   9.026  0.0796  0.1332 -0.0425
  635PYPI   C4B10106   7.194  14.166   8.981 -0.0228  0.1257 -0.2428
  636PYPI    C110107   2.891   9.524  11.775 -0.0892 -0.1631 -0.1225
  636PYPI    C210108   3.059   9.174  11.870 -0.0363 -0.1019  0.0124
  636PYPI    C310109   3.149   9.502  12.079  0.0270  0.0225 -0.2065
  636PYPI   PO410110   2.735   9.363  11.559 -0.0642 -0.1190  0.1870
  636PYPI   GL110111   2.848   9.510  11.097 -0.3562  0.1422  0.0940
  636PYPI   GL210112   2.640   9.268  11.079 -0.2576  0.2516  0.4140
  636PYPI   C1A10113   2.947   9.381  10.614 -0.2009 -0.2092  0.1139
  636PYPI   C2A10114   3.019   9.433  10.211 -0.3053  0.1809  0.0195
  636PYPI   D3A10115   2.959   9.399   9.741  0.0717 -0.1723  0.1924
  636PYPI   C4A10116   2.736   9.505   9.483 -0.0791 -0.2794  0.3011
  636PYPI   C1B10117   2.521   9.120  10.596 -0.0486  0.2164 -0.0055
  636PYPI   C2B10118   2.402   9.199  10.155 -0.0618 -0.0178  0.0568
  636PYPI   C3B10119   2.442   9.031   9.797  0.1176 -0.5551 -0.1276
  636PYPI   C4B10120   2.556   9.094   9.403 -0.2902 -0.0933  0.1413
  637PYPI    C110121   8.416  16.914  11.082 -0.1679  0.0848 -0.0173
  637PYPI    C210122   8.189  16.842  11.404 -0.1886 -0.3306 -0.1191
  637PYPI    C310123   8.588  16.846  11.437 -0.1964 -0.0647 -0.0317
  637PYPI   PO410124   8.300  17.103  10.973  0.1017 -0.1079  0.2723
  637PYPI   GL110125   8.235  17.015  10.582 -0.0488 -0.2573  0.4239
  637PYPI   GL210126   8.135  16.792  10.585 -0.1291  0.3880  0.2008
  637PYPI   C1A10127   8.187  17.028  10.016 -0.1202  0.0783 -0.0077
  637PYPI   C2A10128   8.167  17.059   9.535  0.2192  0.2325 -0.1209
  637PYPI   D3A10129   8.162  17.019   9.152 -0.2291  0.0399 -0.0953
  637PYPI   C4A10130   8.155  17.043   8.796  0.2031 -0.0560  0.5118
  637PYPI   C1B10131   8.193  16.502  10.201 -0.3792 -0.3077 -0.1288
  637PYPI   C2B10132   8.196  16.511   9.762  0.0917 -0.0237  0.0517
  637PYPI   C3B10133   8.158  16.512   9.322 -0.2005 -0.0798 -0.0554
  637PYPI   C4B10134   8.244  16.518   8.842  0.0682  0.0980 -0.1584
  638PYPI    C110135  14.582   1.408  11.035  0.1247 -0.0588  0.0934
  638PYPI    C210136  14.431   1.569  11.369 -0.1581 -0.0943 -0.0144
  638PYPI    C310137  14.360   1.185  11.282  0.2931 -0.2117  0.1086
  638PYPI   PO410138  14.719   1.519  10.793 -0.1205 -0.0303  0.2273
  638PYPI   GL110139  14.674   1.663  10.420  0.0448 -0.1510  0.1671
  638PYPI   GL210140  14.365   1.723  10.482 -0.1782  0.1923  0.0721
  638PYPI   C1A10141  14.820   1.571   9.973 -0.1078  0.0445 -0.2527
  638PYPI   C2A10142  14.888   1.600   9.531 -0.1637  0.2265 -0.1079
  638PYPI   D3A10143  14.864   1.562   9.123  0.1402 -0.1046 -0.0126
  638PYPI   C4A10144  14.837   1.528   8.708  0.4979 -0.2523  0.2229
  638PYPI   C1B10145  14.384   1.816  10.036  0.3416 -0.1031  0.0414
  638PYPI   C2B10146  14.477   1.785   9.624 -0.1518 -0.0927 -0.2871
  638PYPI   C3B10147  14.435   1.866   9.123 -0.1007  0.1858  0.1008
  638PYPI   C4B10148  14.413   1.851   8.669  0.3813  0.0309 -0.0944
  639PYPI    C110149   1.302  16.908  11.048 -0.0863 -0.1387 -0.1358
  639PYPI    C210150   1.340  16.562  11.245  0.0019 -0.0080  0.0799
  639PYPI    C310151   0.999  16.770  11.268 -0.0181 -0.0343  0.0253
  639PYPI   PO410152   1.321  16.850  10.820  0.2156 -0.0443  0.0843
  639PYPI   GL110153   1.351  16.553  10.388  0.0620 -0.2999  0.0493
  639PYPI   GL210154   1.670  16.856  10.479  0.0884  0.0166 -0.2514
  639PYPI   C1A10155   1.309  16.534   9.898 -0.0013  0.0140 -0.1086
  639PYPI   C2A10156   1.414  16.569   9.484 -0.1597  0.0580 -0.0214
  639PYPI   D3A10157   1.506  16.552   9.093 -0.3052  0.1626 -0.1736
  639PYPI   C4A10158   1.417  16.556   8.632  0.0804  0.0466  0.0825
  639PYPI   C1B10159   1.766  16.926  10.103 -0.0718  0.0679 -0.5932
  639PYPI   C2B10160   1.822  16.809   9.671 -0.2094  0.0327  0.2229
  639PYPI   C3B10161   1.839  16.866   9.253 -0.0057 -0.1554  0.3339
  639PYPI   C4B10162   1.907  16.812   8.802 -0.2982 -0.0790  0.0672
  640PYPI    C110163  14.485   8.046  11.410 -0.0345 -0.0284 -0.0328
  640PYPI    C210164  14.297   7.694  11.430  0.1960 -0.1503  0.0174
  640PYPI    C310165  14.203   7.986  11.686 -0.0053 -0.1698 -0.0332
  640PYPI   PO410166  14.569   8.117  11.125 -0.0711  0.1833  0.1583
  640PYPI   GL110167  14.489   8.206  10.778  0.0202 -0.1021  0.0514
  640PYPI   GL210168  14.852   8.168  10.664 -0.2395 -0.2204 -0.0417
  640PYPI   C1A10169  14.539   8.276  10.307 -0.2475 -0.2205  0.3142
  640PYPI   C2A10170  14.626   8.246   9.896  0.0261  0.1430 -0.2335
  640PYPI   D3A10171  14.642   8.204   9.451 -0.2584  0.0372  0.1611
  640PYPI   C4A10172  14.611   8.611   9.242 -0.1699  0.1826  0.1514
  640PYPI   C1B10173  15.067   7.966  10.292  0.0511 -0.1283  0.0893
  640PYPI   C2B10174  15.110   7.925   9.887  0.2915 -0.1781 -0.0835
  640PYPI   C3B10175  15.136   8.010   9.498  0.0804  0.0915 -0.2813
  640PYPI   C4B10176  15.176   7.951   9.067  0.1451 -0.1262 -0.2240
  641ERGO   ROH10177   8.232  17.548  10.587  0.0838  0.0890 -0.0749
  641ERGO    R110178   8.190  17.446  10.326  0.1218 -0.0399 -0.0345
  641ERGO    R210179   7.972  17.518  10.171 -0.0248 -0.3366 -0.0006
  641ERGO    R310180   8.164  17.583   9.990 -0.1424 -0.1584 -0.0594
  641ERGO    R410181   7.920  17.552   9.832 -0.1629 -0.2205  0.0332
  641ERGO    R510182   8.110  17.453   9.797 -0.1374 -0.0942 -0.0886
  641ERGO    C110183   8.069  17.633   9.463 -0.3536  0.0141 -0.0023
  641ERGO    C210184   8.067  17.529   9.160  0.1356 -0.0006 -0.1321
  642ERGO   ROH10185  11.734   0.229  10.075  0.0535 -0.2050  0.0555
  642ERGO    R110186  11.796   0.152   9.810 -0.0633 -0.1284  0.0043
  642ERGO    R210187  11.602   0.109   9.618 -0.1517 -0.1090  0.0853
  642ERGO    R310188  11.748   0.289   9.476 -0.2476 -0.0495  0.0626
  642ERGO    R410189  11.573   0.161   9.278 -0.1611 -0.1812  0.0752
  642ERGO    R510190  11.790   0.179   9.267 -0.1725 -0.0584  0.0841
  642ERGO    C110191  11.692   0.361   8.946 -0.2565 -0.1674  0.0481
  642ERGO    C210192  11.866   0.374   8.632 -0.0757  0.0826  0.2009
  643ERGO   ROH10193   1.335  11.717  10.149 -0.0147 -0.1213 -0.0048
  643ERGO    R110194   1.411  11.580   9.914 -0.0836 -0.0902 -0.0462
  643ERGO    R210195   1.228  11.493   9.726 -0.1343  0.0013 -0.0437
  643ERGO    R310196   1.384  11.636   9.555 -0.1173 -0.0010 -0.0293
  643ERGO    R410197   1.232  11.454   9.383 -0.0039 -0.0876 -0.0323
  643ERGO    R510198   1.449  11.478   9.387 -0.0145 -0.0250  0.0349
  643ERGO    C110199   1.381  11.565   9.022  0.0879 -0.1416 -0.0120
  643ERGO    C210200   1.474  11.646   8.666 -0.1952 -0.2478 -0.0473
  644ERGO   ROH10201  11.060  10.402  10.260 -0.1520 -0.2760 -0.0470
  644ERGO    R110202  11.003  10.354   9.986 -0.0266 -0.2209 -0.0844
  644ERGO    R210203  10.749  10.378   9.881  0.0077 -0.2522 -0.1880
  644ERGO    R310204  10.872  10.546   9.707  0.0473 -0.1789 -0.0888
  644ERGO    R410205  10.650  10.431   9.554 -0.0062  0.0111 -0.1426
  644ERGO    R510206  10.860  10.433   9.496 -0.0172 -0.0264 -0.1645
  644ERGO    C110207  10.708  10.619   9.200  0.0228  0.2331 -0.0231
  644ERGO    C210208  10.679  10.705   8.912 -0.1178 -0.0539 -0.0230
  645ERGO   ROH10209  15.327  10.151  10.373 -0.2053  0.1309  0.1272
  645ERGO    R110210  15.248  10.219  10.110 -0.0929  0.2235  0.1164
  645ERGO    R210211  15.376  10.413   9.961  0.2414 -0.0164  0.0811
  645ERGO    R310212  15.397  10.213   9.778 -0.1015 -0.0900  0.1153
  645ERGO    R410213  15.318  10.448   9.622  0.4403  0.0659  0.0543
  645ERGO    R510214  15.219  10.254   9.624  0.0345  0.2629  0.0423
  645ERGO    C110215  15.305  10.280   9.253  0.2343  0.0447  0.0708
  645ERGO    C210216  15.372  10.383   8.931  0.1023  0.3964 -0.2084
  646ERGO   ROH10217   7.764  11.116  10.336 -0.0718  0.0291  0.0966
  646ERGO    R110218   7.762  11.247  10.085 -0.2005 -0.0309  0.0664
  646ERGO    R210219   7.961  11.211   9.897 -0.1209  0.1854  0.1128
  646ERGO    R310220   7.753  11.147   9.735 -0.0110 -0.1254  0.0858
  646ERGO    R410221   7.966  11.235   9.552 -0.1173  0.2353  0.1156
  646ERGO    R510222   7.761  11.311   9.560 -0.2477 -0.0829  0.1058
  646ERGO    C110223   7.773  11.188   9.199 -0.0121 -0.0275  0.0918
  646ERGO    C210224   7.908  11.222   8.943  0.2481 -0.0109  0.2127
  647ERGO   ROH10225   8.925  11.226  10.454 -0.1307  0.0135  0.0691
  647ERGO    R110226   8.988  11.325  10.196 -0.2111  0.0682  0.0708
  647ERGO    R210227   9.081  11.163   9.993 -0.1563  0.1331  0.0467
  647ERGO    R310228   8.872  11.270   9.856 -0.2252  0.0429  0.0791
  647ERGO    R410229   9.038  11.142   9.650 -0.1430  0.2029  0.0401
  647ERGO    R510230   8.969  11.349   9.651 -0.2728  0.1626  0.1000
  647ERGO    C110231   8.816  11.230   9.323 -0.1999  0.1588  0.0665
  647ERGO    C210232   8.816  11.297   8.963  0.1342  0.2646  0.0814
  648ERGO   ROH10233   1.346  14.784  10.320  0.1264  0.0762 -0.0879
  648ERGO    R110234   1.355  14.920  10.072  0.1910  0.1188 -0.0627
  648ERGO    R210235   1.592  14.974   9.940  0.2027 -0.2089 -0.1831
  648ERGO    R310236   1.468  14.846   9.734 -0.1079  0.0186 -0.1443
  648ERGO    R410237   1.613  15.067   9.608  0.2142 -0.2048 -0.1810
  648ERGO    R510238   1.401  15.022   9.586  0.1219  0.1542 -0.0933
  648ERGO    C110239   1.509  15.001   9.221 -0.0707  0.0111 -0.1436
  648ERGO    C210240   1.520  14.933   8.923  0.0166  0.4202  0.1218
  649ERGO   ROH10241   1.403   2.775  10.298 -0.1193 -0.0220  0.0391
  649ERGO    R110242   1.467   2.722  10.028 -0.0204  0.1333  0.0311
  649ERGO    R210243   1.299   2.579   9.861  0.1909 -0.0624 -0.0173
  649ERGO    R310244   1.323   2.799   9.702 -0.1025  0.0145  0.0385
  649ERGO    R410245   1.331   2.572   9.517 -0.0084  0.0822 -0.0406
  649ERGO    R510246   1.478   2.732   9.531 -0.1429  0.2108 -0.0775
  649ERGO    C110247   1.371   2.773   9.167 -0.3997  0.2386 -0.0018
  649ERGO    C210248   1.374   2.696   8.866  0.0221  0.2687 -0.1631
  650ERGO   ROH10249   3.585  11.722  10.630 -0.1408 -0.0701  0.0312
  650ERGO    R110250   3.708  11.679  10.379 -0.1182 -0.0678  0.0420
  650ERGO    R210251   3.680  11.443  10.238 -0.2535 -0.0007 -0.0459
  650ERGO    R310252   3.598  11.609  10.039 -0.0975  0.1269 -0.0061
  650ERGO    R410253   3.745  11.397   9.901 -0.2673  0.0406 -0.0544
  650ERGO    R510254   3.779  11.611   9.884 -0.0835  0.0172  0.0087
  650ERGO    C110255   3.705  11.527   9.519 -0.1289  0.1845 -0.0219
  650ERGO    C210256   3.700  11.501   9.249 -0.0854 -0.2297  0.2656
  651ERGO   ROH10257   3.147   2.662  10.369  0.0293  0.1930 -0.0665
  651ERGO    R110258   3.132   2.839  10.148 -0.1698  0.0601 -0.1631
  651ERGO    R210259   3.305   2.824   9.933 -0.1193  0.1672 -0.1333
  651ERGO    R310260   3.074   2.811   9.790 -0.0884 -0.2061 -0.1568
  651ERGO    R410261   3.286   2.818   9.588 -0.0756  0.0855 -0.1338
  651ERGO    R510262   3.114   2.951   9.600 -0.2813 -0.1731 -0.1731
  651ERGO    C110263   3.059   2.802   9.253 -0.0211 -0.3124 -0.1563
  651ERGO    C210264   3.007   2.704   8.962 -0.2598  0.0691 -0.1809
  652ERGO   ROH10265  13.934   6.535  10.270  0.1321  0.2147  0.0521
  652ERGO    R110266  13.881   6.444  10.007  0.1949  0.1972  0.0443
  652ERGO    R210267  13.763   6.604   9.814 -0.0076  0.1042  0.0803
  652ERGO    R310268  13.983   6.536   9.670  0.0529  0.3640  0.0478
  652ERGO    R410269  13.775   6.587   9.470 -0.1617 -0.3121  0.0904
  652ERGO    R510270  13.897   6.407   9.488  0.2124 -0.0464  0.2571
  652ERGO    C110271  13.989   6.513   9.133 -0.1947 -0.3106  0.0658
  652ERGO    C210272  13.928   6.544   8.817  0.0691  0.4273 -0.1861
  653ERGO   ROH10273  11.493   5.225  10.007  0.0886 -0.0961 -0.0493
  653ERGO    R110274  11.351   5.161   9.771  0.1233 -0.2681 -0.0247
  653ERGO    R210275  11.322   5.341   9.562 -0.2568 -0.2460  0.0446
  653ERGO    R310276  11.428   5.138   9.416  0.0572 -0.0177 -0.0583
  653ERGO    R410277  11.353   5.340   9.218 -0.3375 -0.0587  0.0350
  653ERGO    R510278  11.293   5.130   9.218  0.0156 -0.1682 -0.0285
  653ERGO    C110279  11.470   5.148   8.880 -0.0897  0.2648 -0.0673
  653ERGO    C210280  11.480   5.082   8.498 -0.1679 -0.3124  0.1383
  654ERGO   ROH10281  10.888  14.544  10.662  0.2823  0.0541 -0.0373
  654ERGO    R110282  10.777  14.444  10.422  0.2309  0.0487 -0.0096
  654ERGO    R210283  10.636  14.603  10.245  0.2143  0.0455  0.0122
  654ERGO    R310284  10.816  14.507  10.066  0.1677  0.0203 -0.0240
  654ERGO    R410285  10.596  14.608   9.902  0.0352 -0.1462  0.0267
  654ERGO    R510286  10.683  14.409   9.893  0.1117 -0.1250  0.0914
  654ERGO    C110287  10.742  14.522   9.534 -0.1129 -0.2814  0.0010
  654ERGO    C210288  10.719  14.622   9.165 -0.3241  0.1005 -0.1611
  655ERGO   ROH10289  15.732   7.610  10.535  0.0304 -0.1190  0.0189
  655ERGO    R110290  15.588   7.645  10.294  0.0782  0.1462  0.0256
  655ERGO    R210291  15.659   7.834  10.104  0.3552  0.0899  0.0679
  655ERGO    R310292  15.658   7.619   9.938  0.0412  0.1223  0.0203
  655ERGO    R410293  15.598   7.847   9.764  0.1850  0.2211  0.1017
  655ERGO    R510294  15.482   7.664   9.782  0.0028  0.3381  0.1240
  655ERGO    C110295  15.563   7.653   9.410 -0.2089  0.3280  0.0767
  655ERGO    C210296  15.637   7.770   9.030 -0.0602 -0.0550  0.0031
  656ERGO   ROH10297  12.716   8.805  10.100  0.0682 -0.0157 -0.0207
  656ERGO    R110298  12.657   8.908   9.843 -0.0057 -0.0707 -0.0251
  656ERGO    R210299  12.845   9.042   9.689 -0.0732 -0.0440 -0.0744
  656ERGO    R310300  12.776   8.856   9.503 -0.0536 -0.0860 -0.0415
  656ERGO    R410301  12.893   9.075   9.349  0.1224 -0.1789 -0.0621
  656ERGO    R510302  12.699   8.983   9.316  0.0946 -0.1132 -0.1298
  656ERGO    C110303  12.858   8.920   8.976  0.2547 -0.2969 -0.0242
  656ERGO    C210304  12.832   9.050   8.676  0.1076 -0.1105 -0.1010
  657ERGO   ROH10305   2.908   6.506  10.450 -0.1344  0.0690 -0.0391
  657ERGO    R110306   2.809   6.450  10.191 -0.0340 -0.0083 -0.0611
  657ERGO    R210307   2.725   6.648  10.018  0.0054 -0.0634 -0.1401
  657ERGO    R310308   2.903   6.531   9.849  0.0791 -0.0846 -0.0494
  657ERGO    R410309   2.703   6.653   9.673  0.1499 -0.1040 -0.1510
  657ERGO    R510310   2.768   6.445   9.671  0.1521 -0.1068 -0.0970
  657ERGO    C110311   2.857   6.545   9.314  0.3032 -0.1476 -0.0722
  657ERGO    C210312   2.781   6.564   9.070 -0.4345 -0.2300  0.1755
  658ERGO   ROH10313  13.203  10.053  10.278  0.0774 -0.1146  0.0014
  658ERGO    R110314  13.206   9.974  10.007  0.0592 -0.0558 -0.0163
  658ERGO    R210315  13.175  10.153   9.799 -0.0701 -0.0252  0.0268
  658ERGO    R310316  13.409  10.045   9.713 -0.0346  0.1044 -0.0430
  658ERGO    R410317  13.288  10.162   9.472 -0.1791  0.0176 -0.0103
  658ERGO    R510318  13.357   9.956   9.496 -0.0525  0.0600 -0.0192
  658ERGO    C110319  13.574  10.064   9.202 -0.2091  0.1643 -0.0974
  658ERGO    C210320  13.670  10.095   8.935 -0.1707 -0.0601  0.1652
  659ERGO   ROH10321   4.785   5.053  10.448  0.0122 -0.0920 -0.0048
  659ERGO    R110322   4.693   5.131  10.192  0.1028  0.2338  0.0617
  659ERGO    R210323   4.859   5.250  10.004  0.3423 -0.1504  0.0432
  659ERGO    R310324   4.772   5.047   9.846 -0.2768  0.1271 -0.0082
  659ERGO    R410325   4.852   5.257   9.659  0.8641 -0.1797  0.0216
  659ERGO    R510326   4.659   5.156   9.665  0.3941  0.5795 -0.2071
  659ERGO    C110327   4.766   5.071   9.309  0.5867  0.0637 -0.0393
  659ERGO    C210328   4.785   5.049   8.975  0.1265  0.0339 -0.0507
  660ERGO   ROH10329   5.804   3.761  10.383  0.1098  0.1483  0.2467
  660ERGO    R110330   5.906   3.736  10.120  0.0984  0.0328  0.2527
  660ERGO    R210331   5.866   3.509   9.966 -0.0667  0.0363  0.2844
  660ERGO    R310332   5.768   3.688   9.786  0.0697  0.0851  0.2577
  660ERGO    R410333   5.876   3.470   9.623 -0.0499  0.0071  0.2884
  660ERGO    R510334   5.924   3.682   9.605  0.0867 -0.0264  0.2779
  660ERGO    C110335   5.790   3.615   9.254  0.0879  0.0360  0.2657
  660ERGO    C210336   5.765   3.618   8.815  0.1713  0.2304 -0.0457
  661ERGO   ROH10337  17.112  14.730  10.626 -0.2447 -0.0813  0.0970
  661ERGO    R110338  17.025  14.713  10.357 -0.0949 -0.1924  0.0544
  661ERGO    R210339  16.938  14.933  10.214 -0.3269 -0.3014  0.0207
  661ERGO    R310340  17.127  14.852  10.036 -0.1275 -0.0429  0.1088
  661ERGO    R410341  16.934  15.004   9.876 -0.1896 -0.2040  0.0387
  661ERGO    R510342  17.003  14.801   9.838  0.0531 -0.1164  0.0159
  661ERGO    C110343  17.109  14.970   9.512  0.0775  0.0955  0.1319
  661ERGO    C210344  17.177  15.030   9.176 -0.0827  0.0107 -0.0186
  662ERGO   ROH10345   8.279  14.929  10.450  0.4138 -0.1303 -0.0555
  662ERGO    R110346   8.315  14.820  10.191  0.2946 -0.1187 -0.0780
  662ERGO    R210347   8.138  14.866   9.984  0.1651 -0.1594  0.0207
  662ERGO    R310348   8.362  14.950   9.854  0.0731 -0.1027 -0.1031
  662ERGO    R410349   8.159  14.924   9.644 -0.0381 -0.1311  0.0118
  662ERGO    R510350   8.357  14.832   9.645 -0.0186 -0.0877 -0.1079
  662ERGO    C110351   8.381  15.036   9.324 -0.2426 -0.0612 -0.1096
  662ERGO    C210352   8.448  15.029   9.002  0.1832  0.2280  0.0267
  663ERGO   ROH10353   7.325  12.436  10.586  0.0636 -0.0001 -0.0495
  663ERGO    R110354   7.382  12.368  10.317  0.0997 -0.1268 -0.0119
  663ERGO    R210355   7.213  12.211  10.165  0.0704 -0.1243  0.0068
  663ERGO    R310356   7.225  12.421   9.993  0.1914 -0.1906 -0.0650
  663ERGO    R410357   7.198  12.185   9.821  0.1567 -0.2307  0.0111
  663ERGO    R510358   7.352  12.339   9.807  0.2099 -0.2941 -0.0012
  663ERGO    C110359   7.200  12.368   9.459  0.3205 -0.3549 -0.0536
  663ERGO    C210360   7.279  12.435   9.065 -0.0627 -0.2220  0.2970
  664ERGO   ROH10361   1.350  12.793  10.303  0.2587 -0.2434 -0.0621
  664ERGO    R110362   1.385  12.685  10.044  0.0445 -0.1308 -0.1391
  664ERGO    R210363   1.184  12.685   9.854 -0.0261  0.1944 -0.0599
  664ERGO    R310364   1.372  12.808   9.702  0.0464  0.0800 -0.0670
  664ERGO    R410365   1.208  12.657   9.511 -0.2044  0.3441 -0.0872
  664ERGO    R510366   1.425  12.648   9.532 -0.1947  0.1024 -0.1763
  664ERGO    C110367   1.399  12.757   9.167 -0.2402  0.3239 -0.1098
  664ERGO    C210368   1.331  12.719   8.761  0.0036 -0.0622 -0.1889
  665ERGO   ROH10369   9.623   9.515   9.906  0.1334 -0.1561  0.0017
  665ERGO    R110370   9.496   9.441   9.664  0.0090 -0.2340  0.0878
  665ERGO    R210371   9.543   9.573   9.425 -0.4447 -0.0184  0.1003
  665ERGO    R310372   9.600   9.323   9.336 -0.1128  0.1181 -0.0809
  665ERGO    R410373   9.433   9.440   9.126 -0.2927  0.0303  0.0235
  665ERGO    R510374   9.399   9.251   9.228 -0.0227 -0.0858 -0.1060
  665ERGO    C110375   9.423   9.127   8.868  0.1073  0.1866 -0.1913
  665ERGO    C210376   9.543   9.042   8.616 -0.2788  0.1066 -0.2692
  666ERGO   ROH10377  16.612   6.610  10.282  0.2060 -0.0106  0.1348
  666ERGO    R110378  16.540   6.739  10.040  0.0860 -0.0170  0.1669
  666ERGO    R210379  16.728   6.843   9.866 -0.0092  0.1498  0.1671
  666ERGO    R310380  16.600   6.686   9.685  0.0836  0.0928  0.1490
  666ERGO    R410381  16.706   6.911   9.528 -0.1198  0.2253  0.1884
  666ERGO    R510382  16.499   6.842   9.533 -0.0682  0.0567  0.2073
  666ERGO    C110383  16.573   6.804   9.161 -0.0967  0.2158  0.1838
  666ERGO    C210384  16.666   6.803   8.845  0.2403  0.2547  0.0880
  667ERGO   ROH10385   4.475   0.179  10.341  0.1522  0.0752  0.0487
  667ERGO    R110386   4.682   0.196  10.148  0.1170 -0.0232  0.0019
  667ERGO    R210387   4.757  -0.019   9.992 -0.0042 -0.0660  0.0012
  667ERGO    R310388   4.711   0.154   9.787  0.0210 -0.0625 -0.0016
  667ERGO    R410389   4.877  -0.058   9.670  0.1033 -0.0185  0.0350
  667ERGO    R510390   4.916   0.157   9.664  0.0585 -0.0095  0.0617
  667ERGO    C110391   4.903   0.082   9.291  0.1896  0.0124  0.0519
  667ERGO    C210392   4.950   0.023   8.969  0.0259 -0.2191  0.0348
  668ERGO   ROH10393   6.009  15.088  10.610  0.0834  0.0308  0.1057
  668ERGO    R110394   6.051  15.114  10.331  0.1318  0.0107  0.1109
  668ERGO    R210395   6.143  14.905  10.174  0.0415 -0.0389  0.1205
  668ERGO    R310396   5.921  14.959  10.029  0.0863  0.0812  0.0951
  668ERGO    R410397   6.110  14.849   9.835  0.0659  0.0434  0.1041
  668ERGO    R510398   6.004  15.038   9.819  0.1474  0.0882  0.1241
  668ERGO    C110399   5.882  14.866   9.501  0.1221  0.2041  0.0706
  668ERGO    C210400   5.967  14.810   9.097 -0.2482  0.0936 -0.2951
  669ERGO   ROH10401  14.680  15.890  10.424  0.1798 -0.0101 -0.1137
  669ERGO    R110402  14.572  15.889  10.162  0.0052  0.0008 -0.0425
  669ERGO    R210403  14.586  16.108   9.994  0.0811 -0.0639 -0.1170
  669ERGO    R310404  14.698  15.929   9.823 -0.1849 -0.2120 -0.1422
  669ERGO    R410405  14.607  16.149   9.652  0.2964  0.0493 -0.0920
  669ERGO    R510406  14.559  15.938   9.629 -0.0990  0.1389 -0.1984
  669ERGO    C110407  14.724  16.006   9.292  0.1720 -0.0240 -0.1011
  669ERGO    C210408  14.788  15.965   8.993 -0.0026  0.2605  0.3153
  670ERGO   ROH10409   5.181   5.208   6.743  0.1178 -0.1741 -0.1414
  670ERGO    R110410   5.173   5.062   6.986  0.1331 -0.0630 -0.0744
  670ERGO    R210411   5.265   5.166   7.225  0.0502  0.0858 -0.1095
  670ERGO    R310412   5.016   5.101   7.312  0.0613  0.0274 -0.1184
  670ERGO    R410413   5.177   5.116   7.556  0.0361  0.1368 -0.1046
  670ERGO    R510414   5.054   4.949   7.493  0.0939  0.0807 -0.0778
  670ERGO    C110415   4.892   5.026   7.830  0.0383  0.1117 -0.1101
  670ERGO    C210416   4.736   5.204   8.042  0.1788  0.3145  0.0425
  671ERGO   ROH10417   6.124  17.021  10.673 -0.0359 -0.2215  0.1618
  671ERGO    R110418   6.232  17.043  10.412  0.0261 -0.2066  0.1906
  671ERGO    R210419   6.377  16.840  10.293 -0.2189 -0.3195  0.1000
  671ERGO    R310420   6.194  16.869  10.094 -0.1521  0.0251  0.0783
  671ERGO    R410421   6.450  16.841   9.955 -0.1574 -0.4312  0.1105
  671ERGO    R510422   6.305  17.002   9.929  0.1233 -0.1546  0.1006
  671ERGO    C110423   6.319  16.869   9.572 -0.0589 -0.1726  0.0963
  671ERGO    C210424   6.400  16.844   9.154  0.0362 -0.1092 -0.0594
  672ERGO   ROH10425   1.610   9.374  10.731 -0.1174 -0.1486  0.1517
  672ERGO    R110426   1.679   9.477  10.477  0.0364 -0.2206  0.1634
  672ERGO    R210427   1.814   9.327  10.287 -0.1192 -0.3762  0.1759
  672ERGO    R310428   1.603   9.397  10.130 -0.0194 -0.1174  0.1506
  672ERGO    R410429   1.835   9.405   9.951  0.0477 -0.1944  0.2263
  672ERGO    R510430   1.691   9.565   9.984  0.1611 -0.0968  0.2759
  672ERGO    C110431   1.650   9.515   9.608  0.2386  0.1544  0.2320
  672ERGO    C210432   1.522   9.557   9.196  0.0226  0.4349  0.3933
  673ERGO   ROH10433   5.638  10.416  10.674 -0.1503  0.1394 -0.0759
  673ERGO    R110434   5.719  10.238  10.470  0.0658  0.1666 -0.0164
  673ERGO    R210435   5.542  10.133  10.285  0.1871 -0.1169  0.0239
  673ERGO    R310436   5.719  10.234  10.106  0.0587  0.0419 -0.0160
  673ERGO    R410437   5.504  10.121   9.942  0.1496 -0.2044  0.0305
  673ERGO    R510438   5.717  10.078   9.925  0.1945  0.0123  0.0067
  673ERGO    C110439   5.649  10.210   9.573  0.0071 -0.1064 -0.0032
  673ERGO    C210440   5.611  10.255   9.278  0.0012 -0.1310 -0.0666
  674PSPI    C110441  16.912   6.840   5.658 -0.1922  0.2969 -0.3572
  674PSPI    C210442  16.687   6.526   5.557  0.0477  0.0063 -0.0160
  674PSPI    C310443  17.060   6.557   5.417  0.1200 -0.0058  0.1721
  674PSPI   PO410444  16.874   6.852   5.901  0.2971 -0.1797  0.0833
  674PSPI   GL110445  16.879   7.002   6.280  0.3553 -0.0342 -0.1378
  674PSPI   GL210446  16.623   6.639   6.448  0.1074 -0.2456 -0.2984
  674PSPI   C1A10447  16.917   6.855   6.718 -0.0130  0.0027 -0.0988
  674PSPI   C2A10448  17.013   6.902   7.129 -0.1380  0.0316  0.2354
  674PSPI   C3A10449  16.894   7.212   7.362  0.0262  0.0008 -0.0172
  674PSPI   C4A10450  16.917   7.418   7.680  0.2487  0.2156  0.1273
  674PSPI   C1B10451  16.364   6.424   6.767  0.2363 -0.5540 -0.1043
  674PSPI   C2B10452  16.279   6.445   7.224 -0.4167 -0.2038 -0.1894
  674PSPI   C3B10453  16.423   6.470   7.668 -0.2054  0.0174 -0.2776
  674PSPI   C4B10454  16.614   6.674   8.046  0.0581 -0.1566  0.4599
  675PSPI    C110455   5.123   7.922   6.117  0.0828 -0.0217 -0.2654
  675PSPI    C210456   4.785   7.846   5.917 -0.0967 -0.2429  0.1111
  675PSPI    C310457   4.810   8.169   6.152 -0.0090 -0.1737  0.0081
  675PSPI   PO410458   5.106   7.652   6.234 -0.2388  0.1345 -0.0121
  675PSPI   GL110459   5.040   7.462   6.636  0.2620 -0.1964 -0.0779
  675PSPI   GL210460   4.889   7.194   6.697  0.1477 -0.0625 -0.2344
  675PSPI   C1A10461   5.173   7.690   6.937  0.1406  0.0532 -0.1886
  675PSPI   C2A10462   5.221   7.657   7.401  0.1198 -0.0141 -0.0780
  675PSPI   C3A10463   5.348   7.703   7.825 -0.1612  0.0008 -0.1478
  675PSPI   C4A10464   5.284   8.112   8.132  0.0525  0.1694  0.0742
  675PSPI   C1B10465   4.850   7.349   7.165 -0.1523 -0.1544 -0.0863
  675PSPI   C2B10466   4.819   7.308   7.706 -0.3621 -0.0607  0.1945
  675PSPI   C3B10467   5.073   7.374   8.110 -0.2161  0.0568  0.0523
  675PSPI   C4B10468   4.809   7.360   8.371  0.1917  0.0568 -0.0086
  676PSPI    C110469  15.014   4.779   5.747 -0.1318  0.0632  0.1774
  676PSPI    C210470  15.180   4.433   5.861 -0.0710  0.1053  0.2170
  676PSPI    C310471  15.203   4.550   5.479 -0.1388  0.0396  0.1925
  676PSPI   PO410472  14.908   4.881   5.962 -0.1169 -0.0257 -0.0252
  676PSPI   GL110473  14.883   4.766   6.392 -0.1155  0.2839  0.2906
  676PSPI   GL210474  15.106   4.966   6.635  0.1885  0.1313 -0.1583
  676PSPI   C1A10475  14.609   4.927   6.614  0.2552 -0.0487  0.2596
  676PSPI   C2A10476  14.491   4.909   7.058  0.2112 -0.2616  0.2406
  676PSPI   C3A10477  14.195   5.080   7.346 -0.1113 -0.1273 -0.1288
  676PSPI   C4A10478  13.774   5.062   7.547 -0.3440 -0.1049  0.0407
  676PSPI   C1B10479  14.971   5.092   7.001  0.0190  0.1428  0.0412
  676PSPI   C2B10480  14.817   5.202   7.371 -0.0435 -0.2872 -0.1085
  676PSPI   C3B10481  14.468   5.184   7.758 -0.0090  0.1118 -0.1212
  676PSPI   C4B10482  14.125   5.420   7.781 -0.0029  0.2011 -0.0879
  677PSPI    C110483  10.213  12.470   6.073 -0.0906 -0.0283 -0.2047
  677PSPI    C210484   9.979  12.629   6.356 -0.0916 -0.2676 -0.0682
  677PSPI    C310485   9.851  12.315   6.143 -0.0331 -0.1791 -0.2361
  677PSPI   PO410486  10.455  12.461   6.247 -0.2890 -0.0155  0.1114
  677PSPI   GL110487  10.598  12.430   6.646 -0.1972  0.2336  0.0923
  677PSPI   GL210488  10.624  12.357   6.952 -0.1396 -0.0236 -0.0816
  677PSPI   C1A10489  10.686  12.818   6.923  0.0241 -0.0725  0.2655
  677PSPI   C2A10490  10.696  12.754   7.347 -0.1233  0.0998 -0.1358
  677PSPI   C3A10491  10.445  12.684   7.677  0.0693  0.0338  0.0470
  677PSPI   C4A10492  10.480  12.619   8.075  0.0635  0.2914 -0.0717
  677PSPI   C1B10493  10.419  12.271   7.335  0.0648 -0.0199  0.1666
  677PSPI   C2B10494  10.239  12.175   7.748  0.0235 -0.0959  0.0966
  677PSPI   C3B10495  10.123  12.301   8.154  0.1358  0.0465  0.1198
  677PSPI   C4B10496  10.196  12.167   8.612 -0.3102 -0.0244 -0.0056
  678PSPI    C110497   2.258   4.976   5.972  0.0907 -0.0532  0.0358
  678PSPI    C210498   1.935   5.076   5.758  0.0050 -0.0555  0.1633
  678PSPI    C310499   2.057   4.695   5.770  0.2347  0.0027 -0.1891
  678PSPI   PO410500   2.280   5.248   6.107 -0.2464  0.1148  0.1466
  678PSPI   GL110501   2.318   5.435   6.493  0.0348 -0.0803 -0.2487
  678PSPI   GL210502   2.030   5.422   6.585 -0.2090  0.1220  0.2493
  678PSPI   C1A10503   2.389   5.727   6.818  0.0692  0.0989  0.0063
  678PSPI   C2A10504   2.281   5.685   7.219  0.1353 -0.2408  0.2721
  678PSPI   C3A10505   2.023   5.740   7.540  0.3425 -0.1248 -0.0656
  678PSPI   C4A10506   1.986   5.369   7.779  0.2068 -0.0978  0.1551
  678PSPI   C1B10507   1.870   5.529   6.940 -0.1342  0.2344 -0.0517
  678PSPI   C2B10508   1.766   5.279   7.219  0.2457 -0.1278  0.0252
  678PSPI   C3B10509   1.543   5.245   7.593  0.0086  0.1020  0.0956
  678PSPI   C4B10510   1.200   5.206   7.866 -0.0657  0.2750  0.1903
  679PSPI    C110511   8.728  14.583   6.052  0.1301 -0.0487  0.2005
  679PSPI    C210512   8.936  14.242   6.059 -0.1511 -0.2253  0.1186
  679PSPI    C310513   8.704  14.328   5.745 -0.1903 -0.0231  0.2014
  679PSPI   PO410514   8.631  14.618   6.311 -0.0123 -0.2052  0.2918
  679PSPI   GL110515   8.801  14.693   6.705 -0.1081 -0.2147 -0.2095
  679PSPI   GL210516   8.498  14.547   6.798 -0.3098 -0.0392 -0.0882
  679PSPI   C1A10517   8.842  15.052   6.948  0.0860 -0.0055 -0.1178
  679PSPI   C2A10518   8.703  15.188   7.281  0.1061  0.0594 -0.1854
  679PSPI   C3A10519   8.599  15.319   7.745 -0.1015 -0.2079  0.0677
  679PSPI   C4A10520   8.485  15.302   8.153  0.2444  0.2599 -0.0294
  679PSPI   C1B10521   8.646  14.611   7.156  0.2343 -0.2940 -0.3430
  679PSPI   C2B10522   8.636  14.778   7.471  0.2450  0.2336 -0.0035
  679PSPI   C3B10523   8.397  14.721   7.765 -0.0624 -0.0413  0.1006
  679PSPI   C4B10524   8.202  14.885   8.192  0.0427 -0.2355 -0.0061
  680PSPI    C110525   0.039   2.747   6.066 -0.1372 -0.0088 -0.1201
  680PSPI    C210526  -0.292   2.656   5.861  0.1851 -0.1721 -0.5847
  680PSPI    C310527  -0.073   2.975   5.757  0.0931  0.0298 -0.1772
  680PSPI   PO410528  -0.079   2.712   6.309  0.0366 -0.0085 -0.0793
  680PSPI   GL110529  -0.473   2.627   6.594  0.2397 -0.0693 -0.0626
  680PSPI   GL210530  -0.670   2.381   6.649  0.1415 -0.0601  0.1541
  680PSPI   C1A10531  -0.465   2.695   7.043 -0.2582  0.0861  0.0498
  680PSPI   C2A10532  -0.457   2.637   7.426 -0.0704  0.0362  0.0998
  680PSPI   C3A10533  -0.391   2.577   7.867 -0.2518 -0.0757 -0.0249
  680PSPI   C4A10534  -0.389   2.305   8.224  0.0069  0.0724 -0.0068
  680PSPI   C1B10535  -0.559   2.080   7.009  0.1261 -0.1633 -0.0983
  680PSPI   C2B10536  -0.558   1.998   7.384 -0.1261  0.2303  0.1308
  680PSPI   C3B10537  -0.497   2.089   7.805  0.0482  0.2274 -0.0626
  680PSPI   C4B10538  -0.512   1.748   8.104  0.1514 -0.1468 -0.0201
  681PSPI    C110539   6.436   4.886   5.941 -0.0014  0.0564 -0.1312
  681PSPI    C210540   6.390   5.060   5.584 -0.0819 -0.1681 -0.2327
  681PSPI    C310541   6.379   4.662   5.614  0.1562 -0.1607 -0.0124
  681PSPI   PO410542   6.621   5.080   6.108  0.0446  0.1755  0.4672
  681PSPI   GL110543   6.768   5.006   6.497 -0.1530  0.1968 -0.0536
  681PSPI   GL210544   6.984   4.896   6.580 -0.1824  0.0058  0.2056
  681PSPI   C1A10545   6.837   5.204   6.966 -0.3074  0.0448  0.1121
  681PSPI   C2A10546   6.784   5.270   7.309 -0.1206  0.2511  0.1901
  681PSPI   C3A10547   6.797   5.399   7.763 -0.1549  0.0186  0.0144
  681PSPI   C4A10548   6.704   5.762   8.127 -0.0526  0.2692  0.2727
  681PSPI   C1B10549   7.057   4.707   7.015  0.0569 -0.0857 -0.1401
  681PSPI   C2B10550   6.794   4.578   7.329 -0.2855 -0.1562 -0.5410
  681PSPI   C3B10551   6.777   4.463   7.693  0.2085 -0.2454 -0.1524
  681PSPI   C4B10552   6.684   4.366   8.117 -0.0206  0.2070  0.2317
  682PSPI    C110553  11.246   0.510   6.088  0.0710  0.0359 -0.1119
  682PSPI    C210554  11.098   0.140   6.114 -0.0788  0.0856 -0.2440
  682PSPI    C310555  10.937   0.435   6.330 -0.1098  0.1194 -0.3126
  682PSPI   PO410556  11.540   0.469   6.100  0.2036  0.1325  0.2136
  682PSPI   GL110557  11.776   0.582   6.476 -0.1123 -0.0685  0.3107
  682PSPI   GL210558  11.847   0.345   6.695 -0.1038  0.1590 -0.0024
  682PSPI   C1A10559  11.753   0.926   6.735 -0.0773  0.1473 -0.0625
  682PSPI   C2A10560  11.778   1.028   7.116 -0.1927 -0.4191 -0.0521
  682PSPI   C3A10561  11.695   1.249   7.390  0.2960  0.3076  0.1654
  682PSPI   C4A10562  11.637   1.438   7.813  0.0008  0.1620  0.0585
  682PSPI   C1B10563  11.829   0.550   7.089 -0.0663 -0.2292  0.0288
  682PSPI   C2B10564  11.843   0.683   7.481 -0.1629  0.0088 -0.1301
  682PSPI   C3B10565  11.892   0.942   7.719 -0.0134 -0.0572 -0.0778
  682PSPI   C4B10566  11.827   1.207   8.209 -0.0777  0.0831 -0.2510
  683PSPI    C110567  14.587   1.397   5.836 -0.1545  0.0988  0.3888
  683PSPI    C210568  14.916   1.607   5.921 -0.1147  0.1740  0.0622
  683PSPI    C310569  14.632   1.766   5.689  0.1220 -0.2888 -0.5728
  683PSPI   PO410570  14.477   1.318   5.997  0.1458  0.2350  0.0039
  683PSPI   GL110571  14.578   1.341   6.388 -0.1252  0.2652 -0.2287
  683PSPI   GL210572  14.446   1.125   6.509 -0.3408 -0.1374  0.1073
  683PSPI   C1A10573  14.813   1.540   6.698  0.1581 -0.1361 -0.1036
  683PSPI   C2A10574  14.831   1.638   7.171  0.2208 -0.1543  0.2459
  683PSPI   C3A10575  14.849   1.674   7.573  0.1349  0.0877  0.1700
  683PSPI   C4A10576  14.687   1.608   8.049  0.0001 -0.1642 -0.2872
  683PSPI   C1B10577  14.520   1.160   6.949 -0.0341 -0.1406 -0.0352
  683PSPI   C2B10578  14.635   1.226   7.406  0.1290  0.1005  0.3274
  683PSPI   C3B10579  14.805   1.195   7.848 -0.1023  0.0761  0.1981
  683PSPI   C4B10580  15.179   1.247   8.124 -0.1650 -0.0133  0.1623
  684PSPI    C110581  14.250   0.987   5.735 -0.0500 -0.0763 -0.0571
  684PSPI    C210582  13.881   1.102   5.634 -0.0481  0.0144  0.0372
  684PSPI    C310583  14.190   1.349   5.575 -0.0277  0.0109  0.1284
  684PSPI   PO410584  14.219   0.898   6.048 -0.1787  0.2474 -0.1270
  684PSPI   GL110585  14.095   0.673   6.498 -0.1945 -0.2811 -0.1873
  684PSPI   GL210586  13.972   0.953   6.694 -0.1460  0.2293 -0.3485
  684PSPI   C1A10587  13.877   0.515   6.934 -0.0916  0.0537  0.0335
  684PSPI   C2A10588  13.910   0.576   7.317  0.1806  0.2694 -0.2506
  684PSPI   C3A10589  14.069   0.620   7.740 -0.2386  0.0832 -0.5504
  684PSPI   C4A10590  14.185   0.711   8.115  0.0185 -0.0700 -0.1980
  684PSPI   C1B10591  14.055   1.031   7.053 -0.1813 -0.1123  0.0158
  684PSPI   C2B10592  14.117   1.183   7.511 -0.0923  0.2298  0.0639
  684PSPI   C3B10593  14.362   1.318   7.797 -0.1450  0.1421 -0.1152
  684PSPI   C4B10594  14.563   1.123   8.220 -0.1299 -0.1818 -0.0025
  685PSPI    C110595  10.912  10.178   6.157 -0.0866 -0.0022  0.0186
  685PSPI    C210596  10.877  10.571   6.089 -0.0187 -0.0254 -0.1558
  685PSPI    C310597  10.794  10.309   5.798 -0.0814 -0.1416 -0.0348
  685PSPI   PO410598  10.997  10.181   6.445  0.2616 -0.0362 -0.2551
  685PSPI   GL110599  10.948  10.440   6.782  0.2364 -0.0884 -0.1724
  685PSPI   GL210600  10.760  10.093   6.954 -0.2322 -0.1038  0.0304
  685PSPI   C1A10601  11.063  10.395   7.294  0.1347  0.1597  0.0798
  685PSPI   C2A10602  11.033  10.455   7.766 -0.2095  0.0964  0.0919
  685PSPI   C3A10603  10.952  10.434   8.200 -0.2884  0.1756 -0.2556
  685PSPI   C4A10604  10.717  10.423   8.473  0.1016 -0.2838 -0.1776
  685PSPI   C1B10605  10.695   9.989   7.413  0.0092 -0.3181  0.0251
  685PSPI   C2B10606  10.691  10.139   7.786 -0.0062  0.2006  0.1633
  685PSPI   C3B10607  10.693   9.960   8.231 -0.3130  0.3798  0.2652
  685PSPI   C4B10608  10.650   9.950   8.663  0.2169  0.0650  0.0653
  686PSPI    C110609   9.351  12.138   6.230  0.0262 -0.0683  0.2014
  686PSPI    C210610   9.168  11.894   5.971 -0.0589 -0.0101  0.2067
  686PSPI    C310611   9.565  11.878   6.013 -0.0204  0.1268 -0.0844
  686PSPI   PO410612   9.189  12.104   6.412 -0.3084  0.0913 -0.0916
  686PSPI   GL110613   9.328  11.995   6.919  0.1634  0.0304  0.2857
  686PSPI   GL210614   9.009  12.082   6.899  0.3987  0.2433  0.2798
  686PSPI   C1A10615   9.388  11.784   7.171  0.0179 -0.1890  0.0664
  686PSPI   C2A10616   9.405  11.717   7.537  0.1952  0.2183 -0.0068
  686PSPI   C3A10617   9.176  11.594   7.922 -0.2903 -0.1055  0.1822
  686PSPI   C4A10618   9.161  11.211   8.284 -0.0050  0.2117 -0.0010
  686PSPI   C1B10619   8.876  11.865   7.242  0.1856 -0.0049  0.2844
  686PSPI   C2B10620   8.795  11.746   7.669  0.1254 -0.3606  0.4518
  686PSPI   C3B10621   8.673  11.686   7.924 -0.1248 -0.1399 -0.2564
  686PSPI   C4B10622   8.687  11.451   8.262  0.0933 -0.4420  0.2287
  687PSPI    C110623   5.863   4.499   5.886  0.0389 -0.1145  0.0106
  687PSPI    C210624   6.061   4.188   5.730  0.0157 -0.0081 -0.2366
  687PSPI    C310625   5.894   4.459   5.489 -0.3417 -0.0382 -0.0298
  687PSPI   PO410626   6.036   4.636   6.063  0.0215 -0.1433 -0.2778
  687PSPI   GL110627   6.132   4.758   6.437 -0.2608  0.0994 -0.1063
  687PSPI   GL210628   6.420   4.664   6.400 -0.0065 -0.0628 -0.3476
  687PSPI   C1A10629   6.091   4.616   6.862  0.0817 -0.0821 -0.0177
  687PSPI   C2A10630   6.024   4.820   7.246  0.1189 -0.1038 -0.0345
  687PSPI   C3A10631   6.022   4.772   7.668 -0.1641 -0.0308  0.3681
  687PSPI   C4A10632   6.154   4.670   8.160  0.0702 -0.1022  0.2424
  687PSPI   C1B10633   6.588   4.698   6.821  0.0035 -0.3536  0.2230
  687PSPI   C2B10634   6.490   4.875   7.120  0.0956 -0.2188  0.0774
  687PSPI   C3B10635   6.452   4.995   7.540  0.1849  0.1091 -0.0478
  687PSPI   C4B10636   6.489   4.964   7.881  0.0184 -0.0873 -0.2340
  688PSPI    C110637   0.240   3.431   5.914  0.0412 -0.0280  0.0680
  688PSPI    C210638  -0.050   3.508   5.650  0.1614 -0.0773 -0.0801
  688PSPI    C310639   0.311   3.395   5.522  0.1973 -0.1809  0.1092
  688PSPI   PO410640   0.225   3.637   6.091 -0.0723  0.0607  0.0004
  688PSPI   GL110641   0.353   3.744   6.408  0.0038  0.1018 -0.1132
  688PSPI   GL210642  -0.007   3.956   6.459 -0.0147 -0.1449  0.4364
  688PSPI   C1A10643   0.328   3.713   6.761 -0.0195  0.2818  0.1473
  688PSPI   C2A10644   0.350   3.866   7.218  0.1186 -0.1350 -0.4454
  688PSPI   C3A10645   0.197   3.850   7.637 -0.1551  0.0492 -0.0932
  688PSPI   C4A10646   0.086   3.655   8.030  0.1787  0.3906 -0.1461
  688PSPI   C1B10647  -0.175   3.909   6.853  0.0356 -0.3337  0.1514
  688PSPI   C2B10648  -0.114   4.073   7.246  0.0947  0.1379 -0.0806
  688PSPI   C3B10649  -0.235   4.084   7.737  0.1314 -0.1865  0.1253
  688PSPI   C4B10650  -0.206   4.078   8.225  0.1350 -0.4577 -0.3610
  689PSPI    C110651   5.748   0.897   6.203 -0.0068  0.2389  0.1003
  689PSPI    C210652   5.691   0.936   5.809  0.1044  0.1090  0.0704
  689PSPI    C310653   5.889   1.218   6.012  0.1770  0.1041  0.0064
  689PSPI   PO410654   5.850   0.541   6.278 -0.1498  0.2530  0.0640
  689PSPI   GL110655   5.978   0.531   6.710 -0.2575 -0.2795 -0.2907
  689PSPI   GL210656   5.817   0.782   6.782  0.0400 -0.0435  0.2822
  689PSPI   C1A10657   5.940   0.414   7.167 -0.2429 -0.0251  0.0279
  689PSPI   C2A10658   5.821   0.207   7.516 -0.4502 -0.0654 -0.3344
  689PSPI   C3A10659   5.556   0.131   7.926 -0.0863 -0.1692  0.2368
  689PSPI   C4A10660   5.434   0.425   8.205  0.1298 -0.1868  0.1981
  689PSPI   C1B10661   6.005   1.108   6.965  0.0030 -0.0654  0.2509
  689PSPI   C2B10662   6.204   1.330   7.287  0.1092 -0.1747  0.0154
  689PSPI   C3B10663   6.015   1.549   7.627 -0.0800  0.1715 -0.0490
  689PSPI   C4B10664   5.951   1.902   7.909 -0.0244 -0.3123 -0.2513
  690PSPI    C110665   4.773   3.712   6.007  0.3084  0.1908 -0.0368
  690PSPI    C210666   4.953   4.013   5.814 -0.0105  0.1606 -0.3920
  690PSPI    C310667   4.554   3.978   5.804 -0.0078 -0.0355  0.0001
  690PSPI   PO410668   4.879   3.681   6.257 -0.1780 -0.0299 -0.1259
  690PSPI   GL110669   5.010   3.288   6.422 -0.0229 -0.1287 -0.0425
  690PSPI   GL210670   4.887   3.418   6.711  0.4042 -0.1760 -0.0425
  690PSPI   C1A10671   5.319   3.017   6.325 -0.3808 -0.1885 -0.0209
  690PSPI   C2A10672   5.686   2.750   6.556  0.0159 -0.1790  0.0760
  690PSPI   C3A10673   5.924   2.663   6.897 -0.0616  0.0402 -0.1084
  690PSPI   C4A10674   6.112   2.535   7.282  0.0536  0.0571  0.2443
  690PSPI   C1B10675   5.050   3.479   7.059 -0.0572 -0.1809  0.0733
  690PSPI   C2B10676   5.154   3.486   7.506 -0.2902  0.1618  0.2298
  690PSPI   C3B10677   5.109   3.269   7.934 -0.0811 -0.1207  0.1744
  690PSPI   C4B10678   5.297   2.960   8.316 -0.0227  0.0033  0.2496
  691PSPI    C110679  10.906   4.327   5.493 -0.1946  0.4406 -0.0334
  691PSPI    C210680  10.738   4.199   5.154 -0.0434  0.0010  0.0516
  691PSPI    C310681  10.904   4.563   5.170 -0.0829  0.0398 -0.3339
  691PSPI   PO410682  10.660   4.130   5.676 -0.2866 -0.1047  0.2622
  691PSPI   GL110683  10.756   4.174   6.108  0.0259 -0.0331  0.2330
  691PSPI   GL210684  10.877   4.448   5.993 -0.0267 -0.3596 -0.3361
  691PSPI   C1A10685  10.913   4.106   6.478 -0.1120  0.0215  0.2058
  691PSPI   C2A10686  10.896   3.880   6.913  0.0585 -0.1287 -0.1570
  691PSPI   C3A10687  11.085   3.862   7.407  0.1036 -0.2625  0.0583
  691PSPI   C4A10688  11.037   3.721   7.832 -0.1645 -0.0961 -0.0768
  691PSPI   C1B10689  11.106   4.562   6.398 -0.0991 -0.1724 -0.3897
  691PSPI   C2B10690  11.095   4.740   6.815  0.1499  0.0192  0.2441
  691PSPI   C3B10691  11.130   4.880   7.209 -0.1290  0.0917  0.0184
  691PSPI   C4B10692  10.891   4.690   7.621 -0.0751  0.0916  0.3940
  692PSPI    C110693   9.183  15.781   5.590  0.0749 -0.1140  0.0366
  692PSPI    C210694   8.844  15.907   5.419  0.0365  0.0153  0.2059
  692PSPI    C310695   9.057  15.615   5.249 -0.0646  0.0585  0.0026
  692PSPI   PO410696   9.148  15.779   5.846 -0.3132  0.1302 -0.0843
  692PSPI   GL110697   8.921  15.861   6.259  0.0376  0.0478  0.0212
  692PSPI   GL210698   9.154  15.900   6.368 -0.0840 -0.0365 -0.1185
  692PSPI   C1A10699   8.661  15.978   6.665  0.0080  0.3015 -0.0928
  692PSPI   C2A10700   8.435  16.068   7.012  0.0378  0.1751 -0.0661
  692PSPI   C3A10701   8.622  16.256   7.332  0.0996  0.1239 -0.1747
  692PSPI   C4A10702   8.236  16.129   7.534  0.1571  0.1471  0.3294
  692PSPI   C1B10703   9.225  16.057   6.682 -0.0125  0.0119  0.1634
  692PSPI   C2B10704   9.067  16.147   7.107  0.1427 -0.0448 -0.0739
  692PSPI   C3B10705   9.290  16.212   7.487 -0.0905 -0.3340 -0.1537
  692PSPI   C4B10706   9.508  16.569   7.708  0.1204  0.1426 -0.0645
  693POPI    C110707  16.470   9.214   6.003  0.1709 -0.1220 -0.2747
  693POPI    C210708  16.586   9.210   5.620  0.1520  0.1017 -0.2844
  693POPI    C310709  16.229   9.362   5.719  0.0840 -0.1112 -0.1959
  693POPI   PO410710  16.708   9.337   6.268 -0.2759  0.0507 -0.2969
  693POPI   GL110711  16.839   9.235   6.669  0.2956  0.1631  0.1297
  693POPI   GL210712  16.734   8.829   6.718  0.0170  0.0895 -0.1680
  693POPI   C1A10713  17.069   9.339   6.961  0.0292  0.0837 -0.1837
  693POPI   D2A10714  17.480   9.516   7.038 -0.1745  0.1088  0.0125
  693POPI   C3A10715  17.607   9.446   7.502 -0.0880  0.0314  0.1773
  693POPI   C4A10716  17.382   9.283   7.807 -0.0243 -0.0160 -0.5277
  693POPI   C1B10717  16.939   8.862   7.152  0.2187 -0.0812 -0.2319
  693POPI   C2B10718  17.151   8.864   7.599 -0.0663  0.2934 -0.0672
  693POPI   C3B10719  17.111   8.744   8.080  0.2147  0.3188  0.1047
  693POPI   C4B10720  17.361   8.686   8.383  0.0119  0.0886 -0.2575
  694POPI    C110721  10.286  11.405   6.095 -0.0162  0.1406  0.0213
  694POPI    C210722  10.532  11.666   5.919  0.0517  0.0311 -0.0472
  694POPI    C310723  10.440  11.323   5.735  0.1703 -0.1112  0.1556
  694POPI   PO410724  10.330  11.388   6.347 -0.2924  0.2328  0.0543
  694POPI   GL110725  10.127  11.674   6.674 -0.1125 -0.3969  0.4229
  694POPI   GL210726  10.369  11.786   6.921  0.2862 -0.0403 -0.7128
  694POPI   C1A10727   9.793  11.524   7.025  0.2324 -0.2641  0.0158
  694POPI   D2A10728   9.847  11.386   7.397  0.1117  0.0928 -0.1176
  694POPI   C3A10729  10.251  11.177   7.322  0.5254 -0.1144  0.1759
  694POPI   C4A10730  10.620  10.991   7.120  0.1252 -0.3209 -0.3971
  694POPI   C1B10731  10.189  11.684   7.276 -0.3045 -0.1074  0.2306
  694POPI   C2B10732  10.204  11.586   7.700 -0.3936  0.2075 -0.1683
  694POPI   C3B10733  10.211  11.285   7.868 -0.0310  0.1942 -0.3648
  694POPI   C4B10734  10.094  11.243   8.264 -0.0858 -0.0384  0.0675
  695POPI    C110735   4.225   4.740   5.822  0.1602 -0.4551  0.0586
  695POPI    C210736   4.066   4.922   5.503  0.0675 -0.2208  0.2356
  695POPI    C310737   3.982   4.538   5.577 -0.1053 -0.2077  0.1122
  695POPI   PO410738   4.388   4.891   5.966  0.0070  0.1037  0.1850
  695POPI   GL110739   4.685   5.010   6.303  0.4112  0.0038 -0.0078
  695POPI   GL210740   4.513   5.236   6.513  0.2550  0.0496  0.2545
  695POPI   C1A10741   4.600   4.783   6.771  0.1416  0.2989  0.3645
  695POPI   D2A10742   4.779   4.797   7.034 -0.1385  0.3271 -0.0031
  695POPI   C3A10743   4.599   4.727   7.454  0.0047  0.2545 -0.1427
  695POPI   C4A10744   4.478   4.706   7.864 -0.0722 -0.2218  0.6278
  695POPI   C1B10745   4.488   5.243   6.943 -0.0095  0.1722 -0.0330
  695POPI   C2B10746   4.498   5.188   7.312  0.0777 -0.0527 -0.0265
  695POPI   C3B10747   4.209   5.073   7.554 -0.0855 -0.3181 -0.0097
  695POPI   C4B10748   3.943   4.795   7.808  0.3170 -0.0988  0.1103
  696POPI    C110749  10.800   5.382   5.435 -0.1386  0.0736  0.0935
  696POPI    C210750  10.932   5.032   5.293  0.3127  0.2945 -0.0507
  696POPI    C310751  10.667   5.246   5.083 -0.3129 -0.1574  0.2456
  696POPI   PO410752  10.686   5.310   5.701 -0.0095 -0.1339  0.4014
  696POPI   GL110753  10.611   5.043   6.086 -0.0602 -0.2742  0.0618
  696POPI   GL210754  10.947   4.940   6.068 -0.1563 -0.1265 -0.1379
  696POPI   C1A10755  10.435   4.976   6.450 -0.0857  0.0028 -0.1515
  696POPI   D2A10756  10.256   5.030   6.821 -0.1532  0.1254 -0.2437
  696POPI   C3A10757  10.424   4.954   7.269 -0.2114  0.1113 -0.1471
  696POPI   C4A10758  10.662   5.112   7.600  0.1761  0.0266  0.2878
  696POPI   C1B10759  10.898   5.091   6.479 -0.1350  0.1053 -0.0262
  696POPI   C2B10760  10.746   5.089   6.919 -0.0439  0.1723 -0.0656
  696POPI   C3B10761  10.877   5.335   7.177  0.5528  0.0219  0.0963
  696POPI   C4B10762  11.059   5.480   7.626 -0.2335  0.2492  0.0501
  697POPI    C110763   0.760   7.847   6.113 -0.0423  0.2153 -0.1023
  697POPI    C210764   0.732   7.994   6.483  0.0184  0.2597 -0.1152
  697POPI    C310765   0.461   8.096   6.207 -0.3426 -0.1946  0.0584
  697POPI   PO410766   0.967   7.743   6.145  0.2385  0.0928  0.2541
  697POPI   GL110767   1.175   7.783   6.564  0.2116  0.0793 -0.1416
  697POPI   GL210768   0.947   7.521   6.699 -0.2451  0.0181 -0.0277
  697POPI   C1A10769   1.010   7.928   6.932  0.0206  0.1183  0.1483
  697POPI   D2A10770   0.684   8.208   7.045 -0.0211  0.2096  0.2591
  697POPI   C3A10771   0.762   8.206   7.426  0.0140 -0.2408  0.1499
  697POPI   C4A10772   0.928   8.020   7.740  0.1675  0.1998 -0.2270
  697POPI   C1B10773   0.898   7.342   7.114 -0.2596  0.0211 -0.2904
  697POPI   C2B10774   0.859   7.331   7.562 -0.1240  0.0191  0.0187
  697POPI   C3B10775   0.913   7.503   7.972  0.1342 -0.3202  0.0753
  697POPI   C4B10776   0.873   7.932   8.204 -0.1075  0.0549 -0.1057
  698POPI    C110777  10.548   6.683   6.134 -0.0568 -0.0228  0.3003
  698POPI    C210778  10.467   6.812   5.764  0.2853 -0.1789  0.1669
  698POPI    C310779  10.299   6.992   6.080 -0.0497 -0.0770 -0.0637
  698POPI   PO410780  10.800   6.567   6.057  0.1408 -0.1889 -0.2071
  698POPI   GL110781  11.038   6.743   6.367  0.1582 -0.1288 -0.1888
  698POPI   GL210782  10.877   6.396   6.526  0.2203 -0.2067  0.0040
  698POPI   C1A10783  10.885   6.795   6.814 -0.0702  0.0339  0.0434
  698POPI   D2A10784  10.841   6.776   7.140 -0.0530 -0.0213 -0.1797
  698POPI   C3A10785  11.247   6.980   7.167  0.1941  0.2818 -0.2390
  698POPI   C4A10786  11.693   7.001   7.221 -0.1762  0.0057 -0.0027
  698POPI   C1B10787  10.773   6.280   6.920 -0.1543 -0.0345 -0.2464
  698POPI   C2B10788  10.754   6.279   7.379 -0.2674  0.4399  0.0086
  698POPI   C3B10789  10.527   6.297   7.768 -0.0144 -0.0815 -0.1949
  698POPI   C4B10790  10.130   6.147   7.924  0.0087  0.1518 -0.1602
  699POPI    C110791  15.429   6.082   5.667  0.3057  0.0931  0.0190
  699POPI    C210792  15.095   6.077   5.447  0.1790  0.1857  0.2070
  699POPI    C310793  15.450   6.127   5.270  0.0950  0.0786  0.0051
  699POPI   PO410794  15.394   6.197   5.840  0.4605 -0.1880 -0.1877
  699POPI   GL110795  15.239   6.135   6.218 -0.1635  0.2395 -0.3423
  699POPI   GL210796  15.523   6.389   6.373  0.0097  0.1315  0.0678
  699POPI   C1A10797  15.088   5.919   6.554 -0.0151  0.1113 -0.0138
  699POPI   D2A10798  14.758   5.939   6.902 -0.3766  0.2510 -0.1041
  699POPI   C3A10799  14.403   6.044   7.209  0.1291 -0.2907 -0.4017
  699POPI   C4A10800  14.136   6.273   7.556 -0.0142  0.1263 -0.5790
  699POPI   C1B10801  15.408   6.273   6.728 -0.1310  0.0974  0.1236
  699POPI   C2B10802  15.229   6.098   7.012 -0.2970  0.1979  0.0267
  699POPI   C3B10803  15.280   6.082   7.358  0.2722 -0.1292  0.1810
  699POPI   C4B10804  15.250   5.835   7.824 -0.1396 -0.0552  0.0159
  700POPI    C110805  12.857   9.185   6.078  0.1768 -0.0422 -0.0534
  700POPI    C210806  12.530   9.095   5.865  0.1359  0.0979 -0.0509
  700POPI    C310807  12.721   9.441   5.802  0.1921  0.0870  0.0582
  700POPI   PO410808  12.785   9.164   6.283 -0.0230 -0.1856 -0.0845
  700POPI   GL110809  12.972   9.293   6.678 -0.1102 -0.1030  0.2061
  700POPI   GL210810  13.200   9.469   6.616 -0.0273  0.1986 -0.1796
  700POPI   C1A10811  12.860   9.190   7.078 -0.1004 -0.1823 -0.0269
  700POPI   D2A10812  12.527   9.011   7.297 -0.0595  0.0918 -0.0960
  700POPI   C3A10813  12.588   8.958   7.739  0.0267 -0.2844 -0.0072
  700POPI   C4A10814  12.801   9.004   8.100 -0.1428  0.0094  0.0883
  700POPI   C1B10815  13.374   9.376   7.002  0.0268  0.1286  0.0695
  700POPI   C2B10816  13.499   9.325   7.475 -0.0270 -0.0118  0.1250
  700POPI   C3B10817  13.455   9.372   7.898  0.1264  0.0739 -0.1002
  700POPI   C4B10818  13.697   9.235   8.244 -0.2509 -0.2424 -0.0531
  701POPI    C110819  16.524  17.674   5.955  0.1475  0.1801  0.0717
  701POPI    C210820  16.569  17.812   5.582  0.1638  0.1315  0.0558
  701POPI    C310821  16.203  17.737   5.725  0.1663  0.0007 -0.0051
  701POPI   PO410822  16.632  17.878   6.158 -0.0309 -0.0628 -0.0096
  701POPI   GL110823  16.653  17.908   6.549  0.0248 -0.1008 -0.1260
  701POPI   GL210824  16.828  17.681   6.642  0.2686  0.1926 -0.1284
  701POPI   C1A10825  16.523  17.971   6.949  0.2211  0.0308  0.0382
  701POPI   D2A10826  16.576  17.954   7.427  0.2529  0.0625 -0.0807
  701POPI   C3A10827  16.364  17.739   7.748  0.1248  0.1517  0.0371
  701POPI   C4A10828  16.259  17.909   8.038 -0.1550 -0.0791  0.3293
  701POPI   C1B10829  16.939  17.757   7.058 -0.2395  0.1816 -0.2605
  701POPI   C2B10830  17.066  17.806   7.536  0.0916  0.1936 -0.0658
  701POPI   C3B10831  16.949  17.758   7.912  0.0923 -0.2397 -0.3748
  701POPI   C4B10832  17.232  17.473   8.104 -0.2160 -0.0942  0.0930
  702POPI    C110833   0.079  12.560   5.827  0.0069  0.1548  0.1827
  702POPI    C210834   0.088  12.266   6.097 -0.1098  0.1099  0.1383
  702POPI    C310835   0.427  12.444   5.984 -0.0082 -0.1764 -0.0189
  702POPI   PO410836  -0.216  12.641   5.858  0.0416 -0.2928  0.1427
  702POPI   GL110837  -0.389  12.703   6.190 -0.1362 -0.2774 -0.2201
  702POPI   GL210838  -0.529  12.908   6.348 -0.0388 -0.3069 -0.2177
  702POPI   C1A10839  -0.062  12.570   6.507  0.1094 -0.0677 -0.1445
  702POPI   D2A10840   0.348  12.508   6.505 -0.0195  0.3577  0.0056
  702POPI   C3A10841   0.563  12.857   6.478  0.0907  0.1292  0.0182
  702POPI   C4A10842   0.539  13.358   6.496  0.1859 -0.0626 -0.1638
  702POPI   C1B10843  -0.649  12.943   6.768 -0.0556  0.1963 -0.1157
  702POPI   C2B10844  -0.675  12.804   7.170  0.0974 -0.1583 -0.1311
  702POPI   C3B10845  -0.576  12.423   7.377  0.0759  0.0637 -0.1079
  702POPI   C4B10846  -0.542  12.090   7.626  0.3558 -0.1835  0.0205
  703POPI    C110847  12.337   9.666   5.953  0.1332  0.0396 -0.0140
  703POPI    C210848  12.299   9.523   5.582  0.2380  0.1959 -0.0858
  703POPI    C310849  12.166   9.890   5.670 -0.0812  0.0373  0.1109
  703POPI   PO410850  12.306   9.427   6.164 -0.2989  0.1966  0.1211
  703POPI   GL110851  12.280   9.626   6.530  0.2223  0.0458 -0.0704
  703POPI   GL210852  12.532   9.518   6.757  0.1472 -0.3577 -0.0847
  703POPI   C1A10853  11.901   9.428   6.792  0.3474 -0.4653  0.0083
  703POPI   D2A10854  11.503   9.539   7.045  0.2553  0.0007 -0.2996
  703POPI   C3A10855  11.552   9.525   7.475 -0.0421  0.2547 -0.1027
  703POPI   C4A10856  11.632   9.650   7.902  0.1830 -0.0777 -0.0970
  703POPI   C1B10857  12.420   9.466   7.228 -0.1804 -0.0863  0.2739
  703POPI   C2B10858  12.466   9.506   7.574  0.0315 -0.2112 -0.0008
  703POPI   C3B10859  12.509   9.421   7.976  0.2306  0.0043  0.0643
  703POPI   C4B10860  12.500   9.718   8.295  0.1315 -0.2045 -0.0315
  704POPI    C110861  17.355   3.847   6.096  0.2535 -0.2165  0.0738
  704POPI    C210862  17.423   4.153   6.345  0.3306 -0.2011  0.0343
  704POPI    C310863  17.349   4.223   5.958  0.3582 -0.2331  0.0232
  704POPI   PO410864  17.463   3.662   6.091 -0.2057 -0.1574 -0.1201
  704POPI   GL110865  17.510   3.562   6.554 -0.1479  0.0022  0.0234
  704POPI   GL210866  17.789   3.490   6.644  0.1688 -0.2388 -0.0446
  704POPI   C1A10867  17.382   3.447   6.946  0.1078 -0.0822 -0.0910
  704POPI   D2A10868  17.389   3.157   7.359 -0.1472  0.2702  0.1064
  704POPI   C3A10869  17.530   3.262   7.792  0.1248 -0.1802 -0.2241
  704POPI   C4A10870  17.399   3.720   7.983  0.0305 -0.0199  0.1944
  704POPI   C1B10871  17.862   3.520   7.155 -0.2394 -0.2744  0.0464
  704POPI   C2B10872  17.947   3.372   7.574  0.2121  0.1917  0.4121
  704POPI   C3B10873  18.056   3.118   7.951 -0.1155  0.0556  0.1684
  704POPI   C4B10874  18.007   3.115   8.412  0.3275 -0.2809 -0.1001
  705POPI    C110875   5.354   4.742   5.984 -0.1803 -0.0190 -0.1257
  705POPI    C210876   5.486   4.677   5.612 -0.0880 -0.0226 -0.0927
  705POPI    C310877   5.372   4.369   5.840  0.0598 -0.0411 -0.0429
  705POPI   PO410878   5.556   4.916   6.054 -0.1348  0.1921  0.0528
  705POPI   GL110879   5.660   5.111   6.432 -0.1946 -0.2997  0.0153
  705POPI   GL210880   5.770   5.196   6.642 -0.1047 -0.0204 -0.1385
  705POPI   C1A10881   5.519   4.801   6.733  0.0999 -0.1599  0.1224
  705POPI   D2A10882   5.587   4.602   7.098  0.0902  0.2440 -0.2602
  705POPI   C3A10883   5.528   4.772   7.493  0.1702  0.1687 -0.0235
  705POPI   C4A10884   5.514   4.970   7.911 -0.1358 -0.0835 -0.0777
  705POPI   C1B10885   5.823   5.231   7.084 -0.0781 -0.2869 -0.1537
  705POPI   C2B10886   5.730   5.171   7.440 -0.1055 -0.0144 -0.0882
  705POPI   C3B10887   5.741   5.391   7.754 -0.4757 -0.2185  0.1637
  705POPI   C4B10888   5.745   5.739   8.012 -0.0092  0.0294  0.0558
  706POPI    C110889  15.694  10.432   5.581  0.0001 -0.1193 -0.0502
  706POPI    C210890  16.071  10.299   5.595  0.0706  0.0944  0.1522
  706POPI    C310891  15.933  10.473   5.263  0.1435 -0.0020  0.0706
  706POPI   PO410892  15.646  10.460   5.852 -0.0402 -0.1258 -0.1490
  706POPI   GL110893  15.620  10.763   6.177  0.1311  0.0247  0.2663
  706POPI   GL210894  15.669  11.048   6.453 -0.2382 -0.1220 -0.1720
  706POPI   C1A10895  15.720  10.498   6.610 -0.0667 -0.0641 -0.0006
  706POPI   D2A10896  16.093  10.331   6.766  0.1525 -0.1513 -0.2501
  706POPI   C3A10897  16.597  10.569   6.760 -0.1233  0.0453  0.2547
  706POPI   C4A10898  16.960  10.814   6.869  0.0355  0.0604  0.1677
  706POPI   C1B10899  15.867  11.223   6.677 -0.0679 -0.1525 -0.0548
  706POPI   C2B10900  15.950  11.287   7.203  0.0318  0.1949  0.0838
  706POPI   C3B10901  15.937  11.306   7.586 -0.3918 -0.2329  0.1073
  706POPI   C4B10902  15.595  11.118   7.938 -0.0759 -0.0867  0.0603
  707POPI    C110903   0.204   8.508   6.284  0.1288 -0.2255 -0.1404
  707POPI    C210904   0.132   8.777   5.997 -0.2279 -0.1505  0.0131
  707POPI    C310905   0.134   8.387   5.909 -0.0321 -0.1151 -0.1472
  707POPI   PO410906   0.147   8.645   6.484  0.2536 -0.1616 -0.1975
  707POPI   GL110907   0.222   8.758   6.858 -0.1251 -0.2812  0.0674
  707POPI   GL210908   0.007   8.734   7.066  0.2692 -0.1561 -0.1781
  707POPI   C1A10909   0.522   8.705   7.107  0.2202  0.0439 -0.1610
  707POPI   D2A10910   0.559   8.717   7.476 -0.1190  0.0014  0.4528
  707POPI   C3A10911   0.721   8.567   7.822  0.2958 -0.3750 -0.1098
  707POPI   C4A10912   0.735   8.428   8.279  0.1610 -0.3129 -0.0353
  707POPI   C1B10913   0.186   8.362   7.316 -0.3428 -0.3642 -0.2486
  707POPI   C2B10914   0.308   8.307   7.755  0.0534 -0.0864  0.0970
  707POPI   C3B10915   0.202   8.353   8.164  0.0592  0.3640  0.0646
  707POPI   C4B10916  -0.011   8.717   8.524 -0.4064  0.0719 -0.0116
  708POPI    C110917   7.328  11.378   5.798 -0.0398  0.1837 -0.1558
  708POPI    C210918   6.950  11.344   5.925  0.0740  0.2777  0.2187
  708POPI    C310919   7.026  11.492   5.562 -0.2418  0.4269  0.2107
  708POPI   PO410920   7.468  11.445   6.005  0.0094  0.0796 -0.1727
  708POPI   GL110921   7.698  11.228   6.378  0.0460  0.0098 -0.0728
  708POPI   GL210922   7.935  11.441   6.313 -0.0585 -0.3113  0.0689
  708POPI   C1A10923   7.502  11.017   6.711  0.0616  0.0853  0.3032
  708POPI   D2A10924   7.576  10.664   7.044  0.1590 -0.0042  0.0297
  708POPI   C3A10925   7.804  10.345   7.131  0.1760 -0.0831  0.1376
  708POPI   C4A10926   8.090  10.132   7.330 -0.3158 -0.0431  0.1807
  708POPI   C1B10927   7.892  11.384   6.824 -0.0409  0.1674  0.0305
  708POPI   C2B10928   7.991  11.488   7.167  0.1276  0.1019  0.2477
  708POPI   C3B10929   7.989  11.442   7.494 -0.1293  0.1324  0.0422
  708POPI   C4B10930   8.026  11.164   7.737  0.2446  0.2721  0.1483
  709POPI    C110931  12.274   2.856   5.741 -0.0500 -0.0511 -0.1555
  709POPI    C210932  11.971   3.111   5.797 -0.0332 -0.0651  0.0060
  709POPI    C310933  12.192   3.133   5.464 -0.1413  0.0167 -0.0616
  709POPI   PO410934  12.148   2.641   5.981  0.1215  0.1002 -0.2523
  709POPI   GL110935  12.100   2.455   6.436 -0.3556  0.2730  0.1019
  709POPI   GL210936  11.869   2.211   6.367  0.2218  0.2398 -0.1836
  709POPI   C1A10937  12.269   2.454   6.793  0.0845 -0.0358 -0.0256
  709POPI   D2A10938  12.536   2.495   7.083  0.0720  0.0633  0.0019
  709POPI   C3A10939  12.439   2.585   7.524  0.1279  0.0309 -0.0158
  709POPI   C4A10940  12.335   2.549   7.955  0.0790  0.0801 -0.1323
  709POPI   C1B10941  11.718   2.283   6.789 -0.0359 -0.0935 -0.0508
  709POPI   C2B10942  11.640   2.248   7.218  0.0610 -0.1010  0.2023
  709POPI   C3B10943  11.427   2.222   7.540  0.1671 -0.0843  0.0295
  709POPI   C4B10944  11.499   2.343   7.931  0.2715 -0.1559  0.2221
  710POPI    C110945   9.794  14.885   6.020 -0.0025 -0.0497  0.0866
  710POPI    C210946   9.976  14.812   6.368  0.0947 -0.0604  0.0339
  710POPI    C310947   9.996  14.545   6.071 -0.2291 -0.1821  0.1167
  710POPI   PO410948   9.516  14.949   6.118 -0.2529  0.1120 -0.0008
  710POPI   GL110949   9.456  15.129   6.518  0.1911 -0.1989  0.3468
  710POPI   GL210950   9.222  15.078   6.580 -0.3058 -0.3395 -0.1371
  710POPI   C1A10951   9.778  15.306   6.841 -0.0082 -0.0281  0.1787
  710POPI   D2A10952  10.063  15.517   7.062  0.1448  0.1649  0.0950
  710POPI   C3A10953  10.041  15.455   7.489  0.1968  0.0352 -0.0176
  710POPI   C4A10954   9.949  15.331   7.880 -0.2932  0.1994 -0.1747
  710POPI   C1B10955   9.302  15.256   6.958  0.0548 -0.1360  0.2334
  710POPI   C2B10956   9.156  15.361   7.379  0.0265  0.2975  0.2043
  710POPI   C3B10957   9.092  15.503   7.740  0.2625  0.2510 -0.2371
  710POPI   C4B10958   9.217  15.842   7.891  0.2971  0.1044  0.0154
  711POPI    C110959   6.097  15.376   5.822  0.0644  0.0161  0.0562
  711POPI    C210960   6.494  15.382   5.779  0.0340  0.0059 -0.2493
  711POPI    C310961   6.271  15.148   5.543 -0.1596  0.0678 -0.1299
  711POPI   PO410962   6.037  15.326   6.097 -0.1493 -0.1945 -0.1571
  711POPI   GL110963   5.868  15.516   6.515  0.0875 -0.3078 -0.4740
  711POPI   GL210964   6.101  15.354   6.584 -0.1290 -0.0114 -0.2967
  711POPI   C1A10965   5.712  15.250   6.883  0.0136  0.2331  0.0604
  711POPI   D2A10966   5.595  14.971   7.196 -0.0767  0.0674  0.3352
  711POPI   C3A10967   5.268  14.759   7.178  0.3290 -0.0415 -0.0145
  711POPI   C4A10968   5.062  14.487   7.011 -0.2153  0.0698 -0.0129
  711POPI   C1B10969   6.229  15.374   6.999  0.3080 -0.0424  0.1646
  711POPI   C2B10970   6.056  15.273   7.418 -0.1191 -0.0200  0.2400
  711POPI   C3B10971   6.112  15.301   7.903 -0.0390  0.1693 -0.1915
  711POPI   C4B10972   5.988  15.388   8.359 -0.1636  0.3865  0.2650
  712POPI    C110973   8.574  17.081   6.032 -0.0523 -0.0353 -0.0510
  712POPI    C210974   8.462  17.330   5.739  0.2256  0.1542 -0.0004
  712POPI    C310975   8.840  17.201   5.758  0.0784 -0.3019 -0.0434
  712POPI   PO410976   8.426  17.155   6.263  0.1005 -0.1110 -0.2696
  712POPI   GL110977   8.253  17.508   6.461 -0.0606  0.1297  0.0693
  712POPI   GL210978   7.930  17.596   6.510  0.1680 -0.1871 -0.1921
  712POPI   C1A10979   8.385  17.582   6.908  0.0286 -0.1568 -0.0716
  712POPI   D2A10980   8.330  17.605   7.342 -0.0901 -0.4152 -0.0303
  712POPI   C3A10981   8.496  17.638   7.740 -0.1075  0.1614 -0.1546
  712POPI   C4A10982   8.287  17.704   8.069  0.2004 -0.3574 -0.0884
  712POPI   C1B10983   7.897  17.679   7.006 -0.0897  0.0882 -0.1365
  712POPI   C2B10984   7.917  17.798   7.483  0.0844 -0.2019  0.0511
  712POPI   C3B10985   7.765  17.696   7.944 -0.2426 -0.0682  0.0143
  712POPI   C4B10986   7.570  17.630   8.342  0.0268  0.0239 -0.1003
  713POPI    C110987  14.086  16.158   5.874 -0.1743 -0.1304  0.0373
  713POPI    C210988  13.752  16.330   5.735 -0.1430 -0.0632  0.0455
  713POPI    C310989  13.934  16.480   6.058  0.0179  0.0343 -0.0885
  713POPI   PO410990  14.077  15.867   6.028  0.3043 -0.0980 -0.1023
  713POPI   GL110991  14.243  15.699   6.412  0.4050  0.0002 -0.0826
  713POPI   GL210992  14.073  15.655   6.681 -0.3039  0.1213  0.0843
  713POPI   C1A10993  14.419  15.336   6.692 -0.2275 -0.0039 -0.1288
  713POPI   D2A10994  14.414  14.951   6.920 -0.0904  0.2260 -0.3357
  713POPI   C3A10995  14.195  14.941   7.251 -0.1692 -0.0133 -0.0050
  713POPI   C4A10996  13.980  14.968   7.681 -0.3819 -0.0362  0.5635
  713POPI   C1B10997  14.083  15.433   7.049  0.4165 -0.0749 -0.0643
  713POPI   C2B10998  14.083  15.457   7.476 -0.2083 -0.2566 -0.2258
  713POPI   C3B10999  14.235  15.494   7.922 -0.0917 -0.2501  0.2924
  713POPI   C4B11000  14.373  15.602   8.229  0.2652 -0.0443  0.0395
  714POPI    C111001  13.161  12.816   6.048 -0.1274  0.0955  0.1067
  714POPI    C211002  12.960  12.855   5.704  0.0636 -0.0981 -0.0289
  714POPI    C311003  13.349  12.947   5.720  0.0096  0.1012  0.1867
  714POPI   PO411004  13.158  12.586   6.118 -0.4600 -0.0493  0.1237
  714POPI   GL111005  13.301  12.284   6.350  0.1814 -0.1746  0.0716
  714POPI   GL211006  12.991  12.101   6.506 -0.1116  0.5103 -0.3493
  714POPI   C1A11007  13.558  12.448   6.736 -0.4826 -0.0604 -0.1832
  714POPI   D2A11008  13.616  12.297   7.110 -0.0780 -0.1648  0.1738
  714POPI   C3A11009  13.895  12.435   7.452  0.4723  0.1296  0.0540
  714POPI   C4A11010  14.096  12.582   7.822 -0.0113 -0.3038 -0.0009
  714POPI   C1B11011  13.199  12.085   6.925  0.0507  0.0155  0.0630
  714POPI   C2B11012  13.127  12.049   7.320  0.2324  0.1040  0.1654
  714POPI   C3B11013  13.083  12.153   7.737  0.2301  0.2965 -0.2387
  714POPI   C4B11014  13.218  12.241   8.158 -0.0747  0.3133 -0.1904
  715POPI    C111015   3.107  15.344   5.951 -0.0277  0.2019 -0.0322
  715POPI    C211016   3.387  15.618   6.032 -0.0210  0.1856 -0.0003
  715POPI    C311017   3.123  15.683   5.739  0.1110  0.1345 -0.1320
  715POPI   PO411018   3.059  15.272   6.282 -0.0538 -0.0994 -0.0185
  715POPI   GL111019   2.969  15.382   6.669  0.1469 -0.0999  0.0674
  715POPI   GL211020   2.818  15.122   6.714 -0.4049 -0.0048 -0.1693
  715POPI   C1A11021   2.976  15.571   7.107  0.2118  0.1331 -0.2212
  715POPI   D2A11022   3.230  15.478   7.405  0.0215  0.0457  0.1725
  715POPI   C3A11023   3.109  15.653   7.726 -0.1507  0.1653 -0.0775
  715POPI   C4A11024   2.935  15.860   8.105  0.0079 -0.2696 -0.1675
  715POPI   C1B11025   3.113  15.083   7.115 -0.0161  0.0186  0.2246
  715POPI   C2B11026   3.362  14.979   7.475 -0.1590 -0.1714  0.0695
  715POPI   C3B11027   3.307  15.164   7.826 -0.3580 -0.0034  0.0600
  715POPI   C4B11028   3.379  15.520   8.126  0.2342  0.1014  0.1005
  716POPI    C111029   7.276  13.938   6.193  0.1088  0.3763  0.0822
  716POPI    C211030   7.247  13.718   5.860  0.1065  0.1549  0.2267
  716POPI    C311031   7.318  14.111   5.835 -0.1554  0.1881 -0.0428
  716POPI   PO411032   7.470  13.739   6.365 -0.0937  0.0823  0.1740
  716POPI   GL111033   7.425  13.685   6.755 -0.0629 -0.0388 -0.2095
  716POPI   GL211034   7.382  14.094   6.737  0.3168 -0.0278  0.1624
  716POPI   C1A11035   7.324  13.901   7.128  0.3029 -0.2101 -0.1606
  716POPI   D2A11036   7.378  13.859   7.533  0.1302  0.2141  0.3464
  716POPI   C3A11037   6.945  13.865   7.764 -0.0271  0.4455 -0.1513
  716POPI   C4A11038   6.623  14.029   8.118  0.1759 -0.0142 -0.0348
  716POPI   C1B11039   7.695  14.231   7.135  0.1635  0.1755 -0.1449
  716POPI   C2B11040   7.722  14.215   7.597  0.0607 -0.1906  0.0264
  716POPI   C3B11041   7.527  14.062   7.932  0.0347  0.0157 -0.0954
  716POPI   C4B11042   7.175  14.154   8.118  0.3661  0.2235  0.2357
  717POPI    C111043  11.119  14.821   6.174  0.2318 -0.1857  0.0109
  717POPI    C211044  10.913  14.478   6.197  0.1545 -0.1365  0.0606
  717POPI    C311045  10.776  14.779   5.973  0.1573 -0.0927  0.1173
  717POPI   PO411046  11.150  14.893   6.497 -0.1546  0.3896  0.0418
  717POPI   GL111047  11.335  15.080   6.638 -0.2687 -0.1130 -0.3342
  717POPI   GL211048  11.624  15.278   6.654  0.2882 -0.2010 -0.0907
  717POPI   C1A11049  11.371  15.216   7.085 -0.3017  0.1443  0.0140
  717POPI   D2A11050  11.604  15.234   7.488 -0.1497  0.0394  0.0820
  717POPI   C3A11051  11.595  15.113   7.960  0.0863 -0.0689 -0.2635
  717POPI   C4A11052  11.486  15.181   8.358 -0.0150 -0.0022  0.2670
  717POPI   C1B11053  11.910  15.267   6.925 -0.2480 -0.0941  0.0482
  717POPI   C2B11054  12.076  15.338   7.337 -0.2456  0.0825 -0.0243
  717POPI   C3B11055  12.091  15.182   7.843  0.0235  0.0800 -0.1381
  717POPI   C4B11056  12.021  14.882   8.181  0.0660 -0.0921 -0.1472
  718POPI    C111057   0.777  14.207   5.629  0.0493 -0.0799  0.1921
  718POPI    C211058   0.543  13.883   5.624  0.0783 -0.1009 -0.2708
  718POPI    C311059   0.579  14.108   5.296  0.1489  0.3106  0.0111
  718POPI   PO411060   0.652  14.357   5.828  0.0412 -0.1418  0.0905
  718POPI   GL111061   0.349  14.101   6.137 -0.0514 -0.0431  0.1137
  718POPI   GL211062   0.536  14.274   6.423  0.0041 -0.0837  0.3854
  718POPI   C1A11063   0.276  13.801   6.559  0.0834 -0.0044  0.0914
  718POPI   D2A11064   0.248  13.674   6.962  0.1199  0.1316  0.0050
  718POPI   C3A11065   0.265  13.288   6.968 -0.1643  0.1731 -0.2661
  718POPI   C4A11066   0.175  12.824   6.830  0.0046  0.0838 -0.0610
  718POPI   C1B11067   0.342  14.222   6.849  0.0307 -0.3409  0.2947
  718POPI   C2B11068   0.273  14.045   7.311 -0.1076  0.2662 -0.3729
  718POPI   C3B11069   0.210  13.662   7.478  0.1968  0.2792 -0.2729
  718POPI   C4B11070   0.426  13.397   7.786  0.1876 -0.0576 -0.1493
  719POPI    C111071  13.832   9.300   5.823  0.2316 -0.0771 -0.1342
  719POPI    C211072  13.926   9.688   5.844  0.0948 -0.0495 -0.0213
  719POPI    C311073  13.845   9.521   5.490 -0.2121  0.1140 -0.0313
  719POPI   PO411074  13.714   9.347   6.130  0.1724 -0.0597 -0.0636
  719POPI   GL111075  13.697   9.384   6.531  0.1101 -0.0397 -0.3382
  719POPI   GL211076  13.706   9.056   6.619 -0.0343 -0.2132 -0.0019
  719POPI   C1A11077  13.633   9.745   6.762 -0.0299 -0.1071  0.1106
  719POPI   D2A11078  13.486   9.808   7.238 -0.1320  0.1734 -0.0123
  719POPI   C3A11079  13.664  10.113   7.586  0.0701  0.0571  0.2771
  719POPI   C4A11080  14.018  10.029   7.704  0.2484  0.0947 -0.2885
  719POPI   C1B11081  13.734   9.002   6.954  0.0289  0.3333 -0.2534
  719POPI   C2B11082  13.659   8.821   7.373 -0.4694 -0.0497 -0.1797
  719POPI   C3B11083  13.788   9.036   7.727 -0.0798 -0.0095  0.1274
  719POPI   C4B11084  13.787   8.707   8.129 -0.0445 -0.0457  0.1342
  720POPI    C111085   1.399  11.031   6.053 -0.3306  0.1998  0.0323
  720POPI    C211086   1.146  10.830   5.818 -0.1193  0.0737 -0.0899
  720POPI    C311087   1.528  10.878   5.707 -0.0587  0.1583  0.1486
  720POPI   PO411088   1.418  10.960   6.255  0.0659 -0.0583  0.0856
  720POPI   GL111089   1.516  11.152   6.580 -0.2676  0.0576 -0.1137
  720POPI   GL211090   1.356  11.262   6.825 -0.0772 -0.0636 -0.1394
  720POPI   C1A11091   1.787  11.118   6.978  0.0408  0.2632 -0.1695
  720POPI   D2A11092   1.735  11.114   7.375 -0.0582  0.1541 -0.1464
  720POPI   C3A11093   1.740  10.680   7.639  0.0036 -0.0008  0.1365
  720POPI   C4A11094   1.883  10.557   7.938  0.2749 -0.2406  0.0902
  720POPI   C1B11095   1.332  11.424   7.289 -0.1585 -0.1087  0.1935
  720POPI   C2B11096   1.295  11.613   7.644 -0.2750  0.1033 -0.0173
  720POPI   C3B11097   1.522  11.598   7.929  0.0335 -0.3901 -0.2337
  720POPI   C4B11098   1.756  11.870   8.334  0.1011 -0.1379  0.0270
  721POPI    C111099   6.733   0.213   5.942 -0.0298  0.0697 -0.0950
  721POPI    C211100   6.645   0.603   5.949 -0.0164  0.0750 -0.2017
  721POPI    C311101   6.959   0.473   5.739 -0.0004  0.0107 -0.1382
  721POPI   PO411102   6.635   0.079   6.147  0.1827  0.0111 -0.0993
  721POPI   GL111103   6.670  -0.127   6.596 -0.0414 -0.0089 -0.0376
  721POPI   GL211104   6.892   0.065   6.565 -0.1466  0.0463  0.0736
  721POPI   C1A11105   6.558  -0.203   7.062 -0.1251 -0.0299 -0.0532
  721POPI   D2A11106   6.603  -0.150   7.435  0.2517 -0.0674  0.0345
  721POPI   C3A11107   6.313  -0.073   7.703 -0.0465 -0.1131  0.0720
  721POPI   C4A11108   6.022  -0.221   8.030 -0.2850  0.0592  0.1225
  721POPI   C1B11109   7.013   0.054   6.953  0.1572  0.1124 -0.2634
  721POPI   C2B11110   7.004  -0.001   7.336 -0.0771 -0.0787  0.1592
  721POPI   C3B11111   6.910   0.143   7.737  0.1630 -0.0518 -0.0183
  721POPI   C4B11112   6.969   0.547   7.952  0.1843  0.1433 -0.1008
  722POPI    C111113  16.065   7.404   6.297  0.0803  0.0594  0.0058
  722POPI    C211114  16.043   7.307   5.910  0.0224  0.1657 -0.0184
  722POPI    C311115  16.332   7.152   6.140 -0.0060  0.0202 -0.0791
  722POPI   PO411116  15.966   7.697   6.372 -0.1661  0.2040  0.0183
  722POPI   GL111117  15.746   7.881   6.715 -0.2416  0.0118 -0.1547
  722POPI   GL211118  15.528   8.066   6.552 -0.2005  0.1357 -0.1438
  722POPI   C1A11119  15.585   8.077   7.033 -0.0561 -0.1166  0.1402
  722POPI   D2A11120  15.506   8.185   7.375 -0.0734  0.0903 -0.2217
  722POPI   C3A11121  15.476   8.042   7.735 -0.2584  0.0974 -0.0650
  722POPI   C4A11122  15.165   7.966   8.087  0.2238  0.1983  0.1927
  722POPI   C1B11123  15.137   8.103   6.832 -0.1448 -0.3263 -0.2159
  722POPI   C2B11124  15.010   8.071   7.303  0.0782  0.1087 -0.0949
  722POPI   C3B11125  14.883   7.875   7.722  0.0749  0.2345  0.2200
  722POPI   C4B11126  14.543   7.635   7.736  0.0685 -0.0142 -0.0251
  723POPI    C111127   2.276   8.916   6.125  0.0081  0.2361 -0.0065
  723POPI    C211128   2.126   8.780   6.470 -0.1748  0.0053 -0.1743
  723POPI    C311129   2.035   9.148   6.344  0.0796  0.1787  0.1346
  723POPI   PO411130   2.595   8.812   6.187 -0.0158  0.0472  0.1754
  723POPI   GL111131   2.645   8.704   6.618  0.0551 -0.1338  0.1188
  723POPI   GL211132   2.821   8.475   6.847  0.2286  0.3487  0.0096
  723POPI   C1A11133   2.538   8.793   7.045  0.1981  0.2545  0.2792
  723POPI   D2A11134   2.256   9.030   7.348 -0.0906 -0.1052 -0.1138
  723POPI   C3A11135   2.129   8.980   7.819  0.0718 -0.2158 -0.3413
  723POPI   C4A11136   1.797   9.100   8.016  0.0129  0.3942 -0.1807
  723POPI   C1B11137   2.851   8.478   7.357 -0.0268 -0.0095 -0.2792
  723POPI   C2B11138   2.857   8.454   7.735  0.0788  0.0561  0.2349
  723POPI   C3B11139   2.727   8.575   8.126  0.1611 -0.4006 -0.3121
  723POPI   C4B11140   2.526   8.689   8.476  0.1354  0.1468  0.2722
  724POPI    C111141  11.453   9.753   6.085 -0.1273 -0.2689  0.0330
  724POPI    C211142  11.829   9.639   6.014  0.0261  0.1465  0.1478
  724POPI    C311143  11.619   9.824   5.729 -0.0922 -0.0799  0.0857
  724POPI   PO411144  11.395   9.984   6.291  0.4243 -0.2142 -0.1849
  724POPI   GL111145  11.736  10.222   6.464  0.0028 -0.0557 -0.0520
  724POPI   GL211146  11.596  10.464   6.747 -0.1488 -0.1099 -0.0571
  724POPI   C1A11147  11.833  10.048   6.908  0.1184  0.0569  0.0806
  724POPI   D2A11148  12.004   9.758   7.160 -0.2111  0.0827 -0.1124
  724POPI   C3A11149  12.069   9.789   7.508  0.3047  0.0268 -0.0282
  724POPI   C4A11150  12.076   9.720   7.986 -0.0289 -0.3102  0.1149
  724POPI   C1B11151  11.562  10.599   7.190  0.0823 -0.2878  0.1754
  724POPI   C2B11152  11.506  10.679   7.685 -0.2626 -0.1337  0.0545
  724POPI   C3B11153  11.796  10.631   8.019  0.0067  0.0582 -0.1740
  724POPI   C4B11154  11.959  10.454   8.457 -0.0756  0.1826 -0.1888
  725POPI    C111155   9.419   7.302   5.792  0.2945 -0.2059  0.0342
  725POPI    C211156   9.390   7.183   5.411  0.0396  0.1861 -0.0751
  725POPI    C311157   9.346   6.918   5.708 -0.1614 -0.0523 -0.3128
  725POPI   PO411158   9.579   7.472   5.837 -0.2589  0.0412 -0.0796
  725POPI   GL111159   9.777   7.546   6.215 -0.0301 -0.2168 -0.2260
  725POPI   GL211160  10.101   7.421   6.229 -0.0879 -0.2908 -0.3210
  725POPI   C1A11161   9.485   7.754   6.476 -0.1838  0.0941  0.0040
  725POPI   D2A11162   9.412   7.906   6.940  0.0316 -0.0041  0.1691
  725POPI   C3A11163   9.259   7.721   7.294 -0.1932 -0.2210 -0.1874
  725POPI   C4A11164   9.268   7.198   7.245 -0.4009 -0.0213 -0.2454
  725POPI   C1B11165  10.043   7.394   6.680 -0.2093  0.4040  0.1443
  725POPI   C2B11166   9.908   7.137   6.995  0.3568  0.2834  0.1236
  725POPI   C3B11167   9.700   6.849   7.300  0.0607  0.0347 -0.0869
  725POPI   C4B11168   9.588   6.374   7.547  0.4968 -0.0213 -0.1062
  726POPI    C111169   7.501  17.741   5.793 -0.0693 -0.1126 -0.1173
  726POPI    C211170   7.120  17.835   5.717 -0.0326  0.2436  0.1162
  726POPI    C311171   7.410  18.104   5.655  0.1885 -0.0354 -0.0911
  726POPI   PO411172   7.582  17.742   6.111 -0.1954 -0.2128  0.1160
  726POPI   GL111173   7.657  18.032   6.453 -0.1613 -0.0534 -0.2682
  726POPI   GL211174   7.389  18.002   6.605 -0.0530 -0.0462  0.1692
  726POPI   C1A11175   7.895  18.243   6.806 -0.1972 -0.2165  0.1704
  726POPI   D2A11176   8.135  18.575   7.072 -0.2884 -0.3683 -0.1881
  726POPI   C3A11177   7.991  18.951   7.216  0.0805  0.0360  0.3342
  726POPI   C4A11178   7.940  19.181   6.829  0.1743 -0.0335  0.0102
  726POPI   C1B11179   7.538  18.062   7.106 -0.0498 -0.0077 -0.0912
  726POPI   C2B11180   7.826  18.243   7.326  0.0049 -0.0409  0.1367
  726POPI   C3B11181   7.864  18.669   7.580  0.0148  0.1113  0.1061
  726POPI   C4B11182   8.137  19.028   7.652  0.3222  0.0699  0.1017
  727POPI    C111183  10.184   9.147   6.032  0.0940  0.2367 -0.0022
  727POPI    C211184  10.411   9.208   5.708  0.2745 -0.0646  0.0637
  727POPI    C311185  10.368   9.499   5.979  0.2059  0.1533 -0.1768
  727POPI   PO411186  10.311   8.914   6.168  0.2002 -0.1974  0.2186
  727POPI   GL111187  10.385   8.838   6.544  0.0357  0.1793 -0.0943
  727POPI   GL211188  10.563   9.008   6.793  0.4537 -0.0913  0.3064
  727POPI   C1A11189  10.170   8.634   6.927 -0.3790 -0.1093  0.0433
  727POPI   D2A11190  10.052   8.561   7.289  0.1417 -0.1116  0.1777
  727POPI   C3A11191  10.075   8.829   7.720  0.0318 -0.1222  0.2718
  727POPI   C4A11192  10.151   9.086   8.046 -0.1230 -0.1636 -0.1108
  727POPI   C1B11193  10.391   8.967   7.283  0.3911  0.1383  0.1512
  727POPI   C2B11194  10.534   8.906   7.618  0.0047 -0.2044 -0.0497
  727POPI   C3B11195  10.920   8.898   7.866  0.1792  0.1171 -0.0880
  727POPI   C4B11196  11.108   8.913   8.196 -0.3010 -0.0056 -0.0389
  728POPI    C111197  13.811   8.461   6.178  0.0437  0.0012  0.1051
  728POPI    C211198  13.518   8.479   5.906  0.1215 -0.0362  0.0182
  728POPI    C311199  13.872   8.649   5.830  0.0590  0.1825  0.2041
  728POPI   PO411200  13.726   8.565   6.411 -0.2227 -0.2494 -0.0640
  728POPI   GL111201  13.459   8.620   6.730  0.1742 -0.0918 -0.1888
  728POPI   GL211202  13.516   8.385   6.996 -0.1990 -0.3510 -0.1297
  728POPI   C1A11203  13.246   8.816   7.114  0.0055 -0.0577 -0.1705
  728POPI   D2A11204  13.066   8.933   7.449  0.3103  0.0470 -0.1274
  728POPI   C3A11205  13.240   8.912   7.835  0.0545 -0.0110  0.2744
  728POPI   C4A11206  13.353   8.957   8.204  0.0884  0.0734  0.2919
  728POPI   C1B11207  13.406   8.360   7.410  0.0948  0.0568 -0.0837
  728POPI   C2B11208  13.235   8.016   7.660 -0.4346 -0.0123 -0.0085
  728POPI   C3B11209  13.130   7.681   7.899 -0.1244  0.2920  0.1033
  728POPI   C4B11210  12.678   7.444   7.972 -0.1276 -0.2745 -0.2601
  729POPI    C111211  13.545  13.375   6.385  0.2753  0.0306  0.0543
  729POPI    C211212  13.704  13.236   6.045 -0.1493 -0.0454 -0.1189
  729POPI    C311213  13.318  13.340   6.057 -0.0790  0.1871  0.2780
  729POPI   PO411214  13.658  13.191   6.609 -0.2660 -0.3319  0.0251
  729POPI   GL111215  13.499  13.050   6.881 -0.2407 -0.0541 -0.2953
  729POPI   GL211216  13.246  13.226   6.983 -0.2866  0.2195 -0.0203
  729POPI   C1A11217  13.756  12.987   7.334 -0.0410  0.1789  0.1045
  729POPI   D2A11218  13.908  13.033   7.700  0.0531 -0.0690 -0.0243
  729POPI   C3A11219  13.759  13.285   7.982  0.0125 -0.0466 -0.1731
  729POPI   C4A11220  13.587  13.420   8.346 -0.0174 -0.2185 -0.0186
  729POPI   C1B11221  13.363  13.236   7.396  0.1057 -0.0274  0.1649
  729POPI   C2B11222  13.344  13.072   7.806  0.2274 -0.1399 -0.4078
  729POPI   C3B11223  13.304  12.942   8.240 -0.2609 -0.2067 -0.1834
  729POPI   C4B11224  13.259  12.557   8.547 -0.4531 -0.0604  0.2553
  730POPI    C111225  17.537  11.041   6.454 -0.1163  0.1452  0.0689
  730POPI    C211226  17.376  11.037   6.088  0.0485 -0.2838 -0.0053
  730POPI    C311227  17.176  10.879   6.397 -0.1516  0.2038  0.1251
  730POPI   PO411228  17.878  10.902   6.469  0.0445 -0.1567 -0.2209
  730POPI   GL111229  18.208  10.851   6.796  0.0931 -0.2473 -0.0975
  730POPI   GL211230  18.500  10.875   6.751 -0.0819  0.2366  0.2244
  730POPI   C1A11231  18.195  11.052   7.207 -0.1362  0.2619 -0.0080
  730POPI   D2A11232  18.230  11.047   7.727  0.1959 -0.0609 -0.0689
  730POPI   C3A11233  18.093  10.999   8.146 -0.2108 -0.0718  0.0207
  730POPI   C4A11234  17.821  11.261   8.350  0.1601  0.1565 -0.2362
  730POPI   C1B11235  18.768  11.101   7.112  0.2587 -0.0811 -0.2235
  730POPI   C2B11236  18.752  11.183   7.562 -0.0931 -0.0663 -0.0186
  730POPI   C3B11237  18.794  11.302   7.895  0.0242  0.0253  0.0037
  730POPI   C4B11238  19.084  11.306   8.257  0.1132 -0.2313  0.1914
  731POPI    C111239  12.914   7.834   5.641 -0.1136 -0.0063  0.0048
  731POPI    C211240  13.166   7.530   5.575 -0.0869  0.0399 -0.1086
  731POPI    C311241  13.196   7.865   5.359 -0.0082  0.1884  0.1295
  731POPI   PO411242  12.763   7.710   5.832 -0.4106 -0.0807 -0.3618
  731POPI   GL111243  13.007   7.464   6.091 -0.2236 -0.1761 -0.3231
  731POPI   GL211244  13.058   7.188   6.262 -0.0695 -0.1478 -0.1808
  731POPI   C1A11245  13.313   7.649   6.422 -0.0413 -0.1665 -0.2193
  731POPI   D2A11246  13.575   7.531   6.708 -0.2051  0.2853 -0.2067
  731POPI   C3A11247  13.978   7.205   6.598 -0.1382  0.2195  0.2532
  731POPI   C4A11248  14.213   6.906   6.368 -0.0356  0.2259  0.0273
  731POPI   C1B11249  12.805   7.405   6.560  0.1077  0.0133 -0.1511
  731POPI   C2B11250  12.584   7.500   6.996  0.4400 -0.4455 -0.1142
  731POPI   C3B11251  12.526   7.702   7.457  0.3504 -0.1981  0.2371
  731POPI   C4B11252  12.376   7.892   7.918  0.2228  0.0615 -0.2423
  732POPI    C111253   7.195   8.420   5.878  0.1348 -0.0768 -0.1774
  732POPI    C211254   6.807   8.328   5.906  0.1442 -0.0930 -0.1006
  732POPI    C311255   6.927   8.614   5.654  0.0083  0.3577  0.3307
  732POPI   PO411256   7.299   8.455   6.170 -0.0199  0.0745  0.0843
  732POPI   GL111257   7.182   8.322   6.612  0.1255  0.0926 -0.1834
  732POPI   GL211258   7.297   8.031   6.762 -0.2849  0.0590  0.2626
  732POPI   C1A11259   7.275   8.474   7.041  0.0314 -0.2493  0.1536
  732POPI   D2A11260   7.507   8.631   7.405 -0.3008  0.4790  0.0951
  732POPI   C3A11261   7.429   8.579   7.807 -0.0290  0.0559  0.0238
  732POPI   C4A11262   7.699   8.732   8.124  0.0738 -0.0657 -0.3812
  732POPI   C1B11263   7.517   8.079   7.246  0.0018 -0.0096  0.0607
  732POPI   C2B11264   7.747   8.125   7.584  0.3151 -0.1813  0.0337
  732POPI   C3B11265   7.645   8.209   8.045  0.0992 -0.1075  0.1684
  732POPI   C4B11266   7.296   8.294   8.295 -0.1166  0.0571 -0.1103
  733POPI    C111267  16.888  15.726   5.942 -0.1302 -0.0405 -0.0604
  733POPI    C211268  17.162  15.680   5.654  0.0772  0.0130  0.1258
  733POPI    C311269  16.809  15.848   5.569  0.1512  0.0629 -0.0886
  733POPI   PO411270  17.190  15.779   6.158 -0.0409 -0.0102 -0.1511
  733POPI   GL111271  17.584  16.047   6.331  0.4853  0.0376 -0.1397
  733POPI   GL211272  17.333  16.139   6.465  0.1311 -0.3858 -0.1777
  733POPI   C1A11273  17.782  15.863   6.582  0.3543  0.0798 -0.2031
  733POPI   D2A11274  17.813  15.915   7.094  0.0924 -0.1206  0.3036
  733POPI   C3A11275  18.092  15.826   7.479  0.0594  0.1874  0.3531
  733POPI   C4A11276  18.013  15.860   7.849  0.0559 -0.0243  0.1923
  733POPI   C1B11277  17.355  15.960   6.878 -0.0821 -0.3897 -0.1487
  733POPI   C2B11278  17.353  15.845   7.261  0.4236 -0.0445  0.1629
  733POPI   C3B11279  17.597  15.962   7.545 -0.1609  0.0852 -0.0515
  733POPI   C4B11280  17.638  16.146   7.903 -0.2894 -0.1916 -0.4109
  734POPI    C111281   6.775  12.163   6.229  0.0045 -0.0432 -0.0020
  734POPI    C211282   6.537  12.419   6.034 -0.0375 -0.1073 -0.0351
  734POPI    C311283   6.884  12.546   6.187 -0.1035 -0.0079  0.0337
  734POPI   PO411284   6.675  12.044   6.418 -0.1087  0.0018  0.0701
  734POPI   GL111285   6.584  12.023   6.801  0.0954  0.1075  0.1112
  734POPI   GL211286   6.349  12.180   6.947  0.0739  0.0152  0.0287
  734POPI   C1A11287   6.939  11.801   7.222 -0.1404 -0.2193  0.1702
  734POPI   D2A11288   7.199  11.653   7.486  0.1658 -0.0515 -0.1072
  734POPI   C3A11289   7.476  11.354   7.702 -0.1848  0.1525  0.1351
  734POPI   C4A11290   7.628  11.131   8.004  0.0382 -0.3831 -0.1694
  734POPI   C1B11291   6.623  12.138   7.286  0.2592 -0.0269 -0.0970
  734POPI   C2B11292   6.895  12.047   7.638 -0.0525 -0.3051  0.1845
  734POPI   C3B11293   7.124  11.915   7.913  0.0233 -0.2200  0.0290
  734POPI   C4B11294   7.282  11.508   8.161  0.1971 -0.0805  0.0597
  735POPI    C111295  14.332   9.036   5.847  0.1227  0.0034  0.1043
  735POPI    C211296  14.331   9.430   5.775 -0.0272 -0.0282 -0.0726
  735POPI    C311297  14.295   9.171   5.472  0.1092 -0.1796  0.0389
  735POPI   PO411298  14.555   9.046   6.039  0.0979 -0.1128 -0.1003
  735POPI   GL111299  14.664   9.186   6.486 -0.0331  0.0057  0.0333
  735POPI   GL211300  14.925   8.991   6.643  0.2146 -0.2566 -0.4572
  735POPI   C1A11301  14.637   9.415   6.888  0.1503  0.1238 -0.2080
  735POPI   D2A11302  14.578   9.710   7.189  0.0698 -0.0494 -0.4804
  735POPI   C3A11303  14.547  10.148   7.013  0.0386 -0.0798 -0.1440
  735POPI   C4A11304  14.175  10.348   6.768  0.1976  0.2421  0.1023
  735POPI   C1B11305  14.992   9.013   7.083  0.1656  0.1610 -0.1343
  735POPI   C2B11306  15.296   9.051   7.486  0.0798 -0.0852 -0.2615
  735POPI   C3B11307  15.594   9.406   7.650  0.1267  0.1105  0.0374
  735POPI   C4B11308  15.820   9.585   7.904  0.1800  0.1558  0.3005
  736POPI    C111309  17.508   8.472   6.083  0.0942  0.1529  0.1130
  736POPI    C211310  17.167   8.589   5.909  0.2022  0.0698 -0.1605
  736POPI    C311311  17.490   8.513   5.685  0.3032 -0.1823  0.0649
  736POPI   PO411312  17.523   8.669   6.259 -0.0799 -0.1153  0.0981
  736POPI   GL111313  17.571   8.596   6.698 -0.1320 -0.0031  0.1709
  736POPI   GL211314  17.240   8.777   6.734  0.2205 -0.1511  0.0693
  736POPI   C1A11315  17.689   8.285   6.921  0.0008  0.1441 -0.0898
  736POPI   D2A11316  17.960   7.972   7.044 -0.0312 -0.0288 -0.1577
  736POPI   C3A11317  17.838   7.871   7.535 -0.1670  0.1428 -0.2087
  736POPI   C4A11318  17.851   7.582   7.873 -0.1068  0.2280 -0.0394
  736POPI   C1B11319  17.404   8.976   7.036  0.1277  0.3254 -0.4372
  736POPI   C2B11320  17.583   8.990   7.381  0.1866  0.0899 -0.2771
  736POPI   C3B11321  17.898   8.766   7.647 -0.0372  0.2432 -0.2033
  736POPI   C4B11322  18.209   8.812   8.025 -0.1101 -0.0793 -0.2993
  737POPI    C111323   3.675  14.854   5.590  0.1737 -0.0158 -0.0605
  737POPI    C211324   3.547  14.508   5.745 -0.1236 -0.0080 -0.2802
  737POPI    C311325   3.912  14.531   5.583  0.0998 -0.0783  0.1929
  737POPI   PO411326   3.606  15.157   5.888  0.0212  0.0420  0.0976
  737POPI   GL111327   3.517  15.275   6.406  0.0074  0.1517  0.1941
  737POPI   GL211328   3.703  15.473   6.393  0.1378  0.1835  0.2283
  737POPI   C1A11329   3.461  15.264   6.866 -0.0216 -0.2704  0.0741
  737POPI   D2A11330   3.610  15.348   7.199  0.0053  0.2448  0.0698
  737POPI   C3A11331   3.925  15.049   7.254 -0.1945 -0.0100  0.1806
  737POPI   C4A11332   4.209  14.838   7.384 -0.1578  0.1210  0.1913
  737POPI   C1B11333   3.852  15.643   6.759 -0.1810  0.0864  0.2246
  737POPI   C2B11334   4.161  15.444   7.129 -0.1312 -0.1952 -0.2281
  737POPI   C3B11335   4.448  15.352   7.475  0.1495  0.3444 -0.2731
  737POPI   C4B11336   4.363  15.426   7.899 -0.1445 -0.0376 -0.1962
  738POPS   CNO11337   7.878   5.001   5.949  0.4211 -0.3547 -0.1804
  738POPS   PO411338   7.650   5.232   6.173  0.0584  0.2144  0.4177
  738POPS   GL111339   7.565   5.492   6.531  0.1312 -0.0723  0.0819
  738POPS   GL211340   7.268   5.629   6.613  0.0552  0.1764 -0.0634
  738POPS   C1A11341   7.642   5.665   7.042 -0.1865  0.2939 -0.1384
  738POPS   D2A11342   7.708   6.005   7.282  0.0564  0.4664  0.0801
  738POPS   C3A11343   7.399   6.114   7.632  0.0746  0.1219 -0.1106
  738POPS   C4A11344   7.443   6.400   7.909 -0.1907 -0.0647 -0.1747
  738POPS   C1B11345   7.096   5.661   7.000 -0.1273  0.2859 -0.2246
  738POPS   C2B11346   7.054   5.698   7.397 -0.0066 -0.0997  0.3035
  738POPS   C3B11347   7.183   5.748   7.806  0.1621  0.0866 -0.2138
  738POPS   C4B11348   7.465   5.850   8.102  0.0667 -0.1365  0.0839
  739POPS   CNO11349  14.129   1.746   5.828 -0.0181 -0.1371 -0.0766
  739POPS   PO411350  13.749   1.626   5.936  0.0897  0.0580  0.0349
  739POPS   GL111351  13.515   1.673   6.412  0.0769  0.0070  0.3716
  739POPS   GL211352  13.665   1.347   6.593  0.2504 -0.0981  0.2232
  739POPS   C1A11353  13.529   1.985   6.788  0.0322 -0.0093 -0.2927
  739POPS   D2A11354  13.532   2.382   7.007  0.0709  0.3712  0.0726
  739POPS   C3A11355  13.734   2.470   7.359 -0.0810 -0.0859 -0.2977
  739POPS   C4A11356  13.696   2.851   7.609 -0.1886  0.1804  0.1385
  739POPS   C1B11357  13.530   1.493   7.011  0.0610 -0.1487 -0.2225
  739POPS   C2B11358  13.583   1.400   7.473  0.0154 -0.1960 -0.0458
  739POPS   C3B11359  13.787   1.449   7.819 -0.1099  0.1690 -0.1127
  739POPS   C4B11360  14.029   1.198   8.162  0.0920  0.1020  0.1442
  740POPS   CNO11361   9.700  11.937   6.562  0.1378  0.0805 -0.2623
  740POPS   PO411362   9.682  12.304   6.669 -0.1018 -0.3128 -0.5699
  740POPS   GL111363   9.483  12.474   7.044  0.0474 -0.0957  0.3934
  740POPS   GL211364   9.499  12.674   7.210 -0.0864 -0.2277  0.0159
  740POPS   C1A11365   9.243  12.217   7.412 -0.2529 -0.2525  0.1865
  740POPS   D2A11366   8.981  12.192   7.639 -0.0616  0.1668  0.2087
  740POPS   C3A11367   8.985  12.061   8.016  0.1988  0.2122 -0.2875
  740POPS   C4A11368   9.195  12.004   8.333 -0.2724  0.0669  0.0094
  740POPS   C1B11369   9.539  12.633   7.532 -0.2899 -0.1750  0.0646
  740POPS   C2B11370   9.266  12.581   7.827 -0.1175 -0.0001 -0.0171
  740POPS   C3B11371   9.226  12.495   8.329 -0.1489 -0.0032  0.3519
  740POPS   C4B11372   9.312  12.432   8.736 -0.1320 -0.1496  0.1074
  741POPS   CNO11373   4.267  16.051   5.731 -0.1247  0.2554 -0.2178
  741POPS   PO411374   4.242  16.049   6.158  0.0959  0.0340 -0.1009
  741POPS   GL111375   4.056  16.085   6.522 -0.2232 -0.2009 -0.0114
  741POPS   GL211376   3.731  16.360   6.541  0.1172  0.1201 -0.0591
  741POPS   C1A11377   4.080  15.994   7.001  0.0817  0.0403 -0.1863
  741POPS   D2A11378   4.026  15.880   7.409  0.2003 -0.3486 -0.0339
  741POPS   C3A11379   3.945  15.543   7.657  0.0240  0.2109  0.0027
  741POPS   C4A11380   3.851  15.176   7.739 -0.1309  0.4563  0.3952
  741POPS   C1B11381   3.904  16.465   6.933 -0.0084 -0.1454  0.1158
  741POPS   C2B11382   3.831  16.363   7.426 -0.1770  0.0204 -0.0147
  741POPS   C3B11383   3.721  16.378   7.786 -0.0290  0.3176  0.1159
  741POPS   C4B11384   3.764  16.259   8.229 -0.2288  0.3470  0.0765
  742POPS   CNO11385  16.775  14.135   5.990  0.1128 -0.1278  0.1765
  742POPS   PO411386  17.126  14.351   5.887 -0.0268 -0.1723  0.6160
  742POPS   GL111387  17.052  14.358   6.354 -0.1381  0.1043 -0.0355
  742POPS   GL211388  17.125  14.074   6.498  0.3054  0.0937 -0.0071
  742POPS   C1A11389  16.733  14.468   6.637 -0.1433  0.0066  0.0743
  742POPS   D2A11390  16.664  14.751   7.010  0.0752 -0.1381 -0.0990
  742POPS   C3A11391  16.692  14.667   7.494 -0.0810 -0.0721 -0.0957
  742POPS   C4A11392  16.827  14.450   7.714  0.0687 -0.0422 -0.1094
  742POPS   C1B11393  17.337  14.264   6.898 -0.0277  0.1803 -0.1069
  742POPS   C2B11394  17.634  14.318   7.140 -0.0942 -0.0113 -0.1619
  742POPS   C3B11395  17.785  14.279   7.586  0.3430  0.0743  0.0282
  742POPS   C4B11396  17.829  13.915   7.926 -0.2094  0.0580 -0.2376
  743POPS   CNO11397  11.582  16.869   5.749 -0.1982  0.0152  0.1123
  743POPS   PO411398  11.339  16.684   6.081  0.1296  0.2440 -0.1597
  743POPS   GL111399  11.093  16.930   6.420 -0.0978  0.0313 -0.0932
  743POPS   GL211400  11.301  17.170   6.629 -0.0668  0.2813 -0.2562
  743POPS   C1A11401  11.027  16.852   6.852 -0.1160  0.1211  0.1879
  743POPS   D2A11402  10.836  16.758   7.124 -0.1023  0.0794 -0.0632
  743POPS   C3A11403  11.043  16.809   7.397 -0.0538  0.1258  0.0063
  743POPS   C4A11404  11.139  16.906   7.764 -0.1782  0.1287 -0.2184
  743POPS   C1B11405  11.210  17.205   7.113 -0.0008 -0.2486  0.3460
  743POPS   C2B11406  11.295  17.356   7.568 -0.2849  0.0816 -0.0374
  743POPS   C3B11407  11.268  17.354   7.910  0.2838  0.3596 -0.3491
  743POPS   C4B11408  11.311  17.046   8.170  0.0406 -0.1409  0.0171
  744POPS   CNO11409   5.022  10.239   5.915 -0.4009  0.2156 -0.1644
  744POPS   PO411410   5.194  10.092   6.416 -0.1265  0.1872  0.1899
  744POPS   GL111411   5.538  10.308   6.640  0.2041  0.1891  0.0832
  744POPS   GL211412   5.355  10.308   6.875  0.3990  0.0467  0.1072
  744POPS   C1A11413   5.937  10.359   6.739  0.1694 -0.0912 -0.0882
  744POPS   D2A11414   6.353  10.579   6.655 -0.1483 -0.1011  0.2579
  744POPS   C3A11415   6.658  10.470   7.028 -0.0526 -0.3462  0.0223
  744POPS   C4A11416   6.696  10.525   7.494 -0.1715  0.0841  0.0149
  744POPS   C1B11417   5.349  10.356   7.263  0.0431 -0.2628  0.0593
  744POPS   C2B11418   5.557  10.289   7.757 -0.1295  0.2234  0.0739
  744POPS   C3B11419   5.984  10.422   8.052  0.0043 -0.1051  0.0287
  744POPS   C4B11420   6.281  10.451   8.400  0.0435 -0.1045 -0.0127
  745POPS   CNO11421   2.962  14.534   5.554 -0.1812  0.1452  0.1777
  745POPS   PO411422   3.108  14.351   5.967  0.1341 -0.1363 -0.2032
  745POPS   GL111423   3.104  14.393   6.362 -0.4363  0.0138  0.1954
  745POPS   GL211424   2.933  14.418   6.618 -0.1156  0.1467  0.3812
  745POPS   C1A11425   3.365  14.238   6.675 -0.0944  0.1939 -0.1407
  745POPS   D2A11426   3.050  13.934   6.933 -0.0143  0.1876  0.1604
  745POPS   C3A11427   3.147  13.845   7.349  0.2175 -0.0309 -0.1721
  745POPS   C4A11428   3.331  13.657   7.763 -0.1508 -0.0749 -0.2576
  745POPS   C1B11429   3.106  14.414   7.065 -0.0138  0.3373 -0.5127
  745POPS   C2B11430   3.100  14.347   7.463  0.1603  0.1589  0.3030
  745POPS   C3B11431   3.327  14.565   7.690  0.1291 -0.1489  0.0648
  745POPS   C4B11432   3.551  14.764   8.037 -0.2536  0.3051  0.0256
  746POPS   CNO11433  12.278  14.728   6.136 -0.0303  0.0191 -0.0291
  746POPS   PO411434  12.449  14.361   6.266  0.0811  0.0896 -0.1463
  746POPS   GL111435  12.329  14.234   6.613 -0.1254  0.2032  0.1799
  746POPS   GL211436  12.561  14.303   6.812 -0.3665 -0.0902  0.1131
  746POPS   C1A11437  12.161  13.938   6.872 -0.1769 -0.2126  0.0151
  746POPS   D2A11438  11.919  13.770   7.133 -0.0940 -0.0353  0.2769
  746POPS   C3A11439  12.037  13.758   7.517 -0.1922  0.0854  0.1792
  746POPS   C4A11440  11.880  14.091   7.893  0.3218 -0.0420 -0.0775
  746POPS   C1B11441  12.371  14.235   7.218 -0.0381  0.0345  0.0949
  746POPS   C2B11442  12.279  14.291   7.676 -0.0900 -0.0051  0.0167
  746POPS   C3B11443  12.270  14.377   8.105 -0.0717  0.0491 -0.1415
  746POPS   C4B11444  12.443  14.666   8.394  0.0697  0.0904  0.0354
  747POPS   CNO11445  17.760   4.536   5.884 -0.0449 -0.0834 -0.3118
  747POPS   PO411446  17.841   4.425   6.312  0.0342  0.4144  0.0389
  747POPS   GL111447  17.633   4.440   6.670 -0.1716  0.0216  0.0148
  747POPS   GL211448  17.284   4.521   6.716 -0.1372 -0.3535  0.1249
  747POPS   C1A11449  17.685   4.580   7.072  0.0555  0.1930 -0.1535
  747POPS   D2A11450  18.051   4.908   7.280  0.0487  0.2033  0.4867
  747POPS   C3A11451  18.210   4.819   7.750  0.1244  0.0752  0.0051
  747POPS   C4A11452  18.182   4.854   8.195  0.1262  0.3019 -0.2243
  747POPS   C1B11453  17.203   4.532   7.175  0.3527  0.0007 -0.3332
  747POPS   C2B11454  17.320   4.588   7.531  0.2837  0.0377 -0.2141
  747POPS   C3B11455  17.686   4.581   7.689 -0.1854 -0.1340  0.1180
  747POPS   C4B11456  17.882   4.461   8.027  0.1927  0.2665  0.0393
  748POPS   CNO11457   9.222   4.198   5.917  0.3939  0.3837 -0.0437
  748POPS   PO411458   8.931   4.589   5.790  0.0067 -0.0059 -0.1974
  748POPS   GL111459   8.896   4.528   6.220  0.1599  0.1141 -0.0195
  748POPS   GL211460   8.686   4.594   6.264 -0.1484 -0.0327 -0.3328
  748POPS   C1A11461   9.158   4.350   6.674  0.2311  0.0043  0.0140
  748POPS   D2A11462   9.666   4.380   6.804 -0.0580  0.1747 -0.1717
  748POPS   C3A11463   9.941   4.007   6.937 -0.2750 -0.1370  0.0311
  748POPS   C4A11464  10.129   3.656   6.690  0.2245  0.0258 -0.4658
  748POPS   C1B11465   8.706   4.681   6.681 -0.0823 -0.1219 -0.0964
  748POPS   C2B11466   8.765   4.651   7.126 -0.2248 -0.2335 -0.0914
  748POPS   C3B11467   8.924   4.674   7.512  0.2029  0.5625 -0.0959
  748POPS   C4B11468   9.024   5.053   7.779 -0.1098 -0.1744  0.1453
  749POPS   CNO11469   4.755   1.104   6.269  0.0416 -0.0088 -0.1501
  749POPS   PO411470   4.506   1.355   6.227 -0.0559  0.2309 -0.0085
  749POPS   GL111471   4.448   1.392   6.645  0.1813 -0.1119 -0.1613
  749POPS   GL211472   4.292   1.465   6.849 -0.0744 -0.3087  0.2138
  749POPS   C1A11473   4.552   1.101   7.046  0.1541  0.0205 -0.3877
  749POPS   D2A11474   4.495   0.978   7.478  0.3150  0.0546 -0.0006
  749POPS   C3A11475   4.820   1.106   7.780  0.1584 -0.2825 -0.2197
  749POPS   C4A11476   5.092   1.370   8.152  0.1107 -0.3053  0.2138
  749POPS   C1B11477   4.125   1.281   7.257  0.1104  0.0093 -0.1725
  749POPS   C2B11478   3.895   1.218   7.665 -0.0986 -0.0202 -0.0755
  749POPS   C3B11479   3.836   1.399   8.121 -0.1349 -0.1272  0.1715
  749POPS   C4B11480   3.716   1.694   8.309  0.1549 -0.0596 -0.0930
  750POPS   CNO11481   2.071  10.227   6.325  0.2242 -0.3709 -0.0068
  750POPS   PO411482   2.035   9.684   6.347  0.1033  0.1159 -0.3588
  750POPS   GL111483   2.254   9.435   6.732  0.2069  0.1816  0.0386
  750POPS   GL211484   2.225   9.129   6.816 -0.0332 -0.2632  0.0613
  750POPS   C1A11485   2.361   9.471   7.165  0.0459 -0.0105  0.1987
  750POPS   D2A11486   2.353   9.408   7.646 -0.0198  0.0378  0.1761
  750POPS   C3A11487   2.615   9.541   8.029  0.1865 -0.3292 -0.0318
  750POPS   C4A11488   2.542   9.530   8.380  0.2909 -0.0815 -0.1542
  750POPS   C1B11489   2.667   9.256   6.869  0.0271  0.1947  0.0695
  750POPS   C2B11490   3.078   9.487   6.976 -0.1802  0.1937 -0.1422
  750POPS   C3B11491   3.315   9.418   7.173  0.0163 -0.1896  0.0179
  750POPS   C4B11492   3.618   9.523   7.528 -0.0566  0.0984 -0.2824
  751POPS   CNO11493   7.307   7.790   5.749 -0.0668 -0.0329 -0.1695
  751POPS   PO411494   7.685   7.664   5.984  0.0870 -0.1640 -0.1840
  751POPS   GL111495   7.669   7.730   6.432  0.1268  0.0356  0.2448
  751POPS   GL211496   7.413   7.572   6.524  0.1491 -0.1153  0.2431
  751POPS   C1A11497   7.766   7.794   6.954  0.1733 -0.2976 -0.0452
  751POPS   D2A11498   7.989   7.979   7.206  0.1136 -0.2634 -0.2392
  751POPS   C3A11499   8.213   7.858   7.550  0.2014 -0.0692 -0.1185
  751POPS   C4A11500   8.494   7.565   7.717  0.1864 -0.0864  0.2313
  751POPS   C1B11501   7.283   7.497   6.820 -0.2597 -0.3181  0.3177
  751POPS   C2B11502   7.350   7.607   7.179  0.0275 -0.1885  0.3820
  751POPS   C3B11503   7.559   7.664   7.516 -0.1873  0.0812 -0.1212
  751POPS   C4B11504   7.831   7.761   7.930 -0.0567  0.0595 -0.0025
  752POPS   CNO11505   0.354   9.499   6.446  0.0743  0.1760 -0.3471
  752POPS   PO411506   0.436   9.029   6.371  0.1491 -0.0600 -0.3249
  752POPS   GL111507   0.604   9.068   6.786  0.1545  0.0393 -0.0224
  752POPS   GL211508   0.811   9.463   6.725 -0.1327  0.2776 -0.2708
  752POPS   C1A11509   0.856   9.124   7.214  0.2324  0.0419  0.1388
  752POPS   D2A11510   0.971   9.330   7.591  0.1606 -0.0815 -0.3081
  752POPS   C3A11511   0.881   9.030   7.839 -0.2463 -0.0376 -0.0305
  752POPS   C4A11512   1.007   8.829   8.263  0.0251 -0.0005  0.0215
  752POPS   C1B11513   0.466   9.604   7.011 -0.2429  0.0284  0.2235
  752POPS   C2B11514   0.127   9.767   7.252  0.0990  0.1347 -0.1506
  752POPS   C3B11515   0.143   9.903   7.637  0.0053  0.0268 -0.2122
  752POPS   C4B11516   0.387   9.979   8.020  0.1251 -0.0498 -0.0755
  753POPS   CNO11517   2.407   1.993   6.554 -0.2153  0.2210  0.0056
  753POPS   PO411518   2.151   2.279   6.342  0.2950  0.2234  0.1204
  753POPS   GL111519   2.158   2.338   6.722  0.0099  0.1687 -0.0963
  753POPS   GL211520   1.955   2.647   6.799 -0.0743  0.0066 -0.0592
  753POPS   C1A11521   2.255   2.146   7.047 -0.2490 -0.0628  0.2517
  753POPS   D2A11522   2.340   1.874   7.404  0.3062  0.3737  0.2829
  753POPS   C3A11523   2.509   1.620   7.603  0.0139  0.0345 -0.0843
  753POPS   C4A11524   2.590   1.385   8.047  0.0738 -0.0311 -0.0335
  753POPS   C1B11525   2.116   2.609   7.240 -0.1458  0.1557 -0.0417
  753POPS   C2B11526   1.979   2.628   7.656  0.0267 -0.2550 -0.4749
  753POPS   C3B11527   2.106   2.819   8.055  0.1669 -0.2782 -0.2242
  753POPS   C4B11528   2.242   2.889   8.451 -0.1090 -0.0211 -0.0546
  754POPS   CNO11529   4.316  13.528   6.307 -0.0915  0.0955 -0.0167
  754POPS   PO411530   4.622  13.746   6.485  0.2557  0.1575  0.0043
  754POPS   GL111531   4.604  13.496   6.816  0.2439 -0.2008  0.1532
  754POPS   GL211532   4.828  13.311   6.717 -0.1272 -0.1000  0.0342
  754POPS   C1A11533   4.352  13.518   7.238 -0.0662  0.1018  0.2767
  754POPS   D2A11534   4.194  13.483   7.687 -0.0724  0.2236  0.0489
  754POPS   C3A11535   4.323  13.664   8.086  0.0486 -0.1433 -0.1727
  754POPS   C4A11536   4.259  13.902   8.490  0.0048  0.0851 -0.0804
  754POPS   C1B11537   4.962  13.084   7.059  0.0882 -0.1242  0.0821
  754POPS   C2B11538   5.126  12.963   7.368  0.0420  0.1121  0.0340
  754POPS   C3B11539   5.059  13.081   7.735 -0.1773 -0.1585  0.0426
  754POPS   C4B11540   5.216  13.378   7.924  0.0809 -0.2510 -0.1201
  755POPS   CNO11541  11.185   7.478   5.958 -0.2400  0.1579 -0.2298
  755POPS   PO411542  11.353   7.084   5.694 -0.0513 -0.1447  0.0543
  755POPS   GL111543  11.455   7.084   6.107 -0.1115  0.1644 -0.1854
  755POPS   GL211544  11.667   7.355   6.227  0.1049  0.1500 -0.0623
  755POPS   C1A11545  11.560   6.777   6.444  0.0137  0.1043  0.1376
  755POPS   D2A11546  11.830   6.895   6.735 -0.1531  0.1197 -0.3821
  755POPS   C3A11547  11.929   6.596   7.071  0.1537 -0.1394  0.1223
  755POPS   C4A11548  12.160   6.509   7.385 -0.0007  0.1316 -0.1846
  755POPS   C1B11549  11.430   7.180   6.630  0.0250 -0.0545 -0.1480
  755POPS   C2B11550  11.439   7.424   7.012  0.1349 -0.1877 -0.2331
  755POPS   C3B11551  11.534   7.422   7.416  0.1635 -0.1717 -0.0285
  755POPS   C4B11552  11.714   7.227   7.675 -0.1210 -0.0953 -0.2687
  756POPS   CNO11553   6.477  16.169   6.209  0.0396 -0.0266 -0.0709
  756POPS   PO411554   6.718  15.782   6.106  0.0885 -0.1261 -0.0888
  756POPS   GL111555   6.741  15.558   6.464 -0.2933  0.0154  0.0362
  756POPS   GL211556   7.046  15.442   6.509  0.0813 -0.3314 -0.0458
  756POPS   C1A11557   6.675  15.690   6.929 -0.0078 -0.0766  0.2031
  756POPS   D2A11558   6.806  15.670   7.278  0.3103 -0.1243 -0.2479
  756POPS   C3A11559   6.891  15.863   7.656 -0.0122  0.1723 -0.0298
  756POPS   C4A11560   6.955  16.204   7.953 -0.1253  0.0800 -0.3928
  756POPS   C1B11561   7.077  15.398   6.968 -0.0641  0.1894  0.2120
  756POPS   C2B11562   7.114  15.337   7.413 -0.3265 -0.0437 -0.2252
  756POPS   C3B11563   7.097  15.404   7.844  0.1004 -0.0248 -0.0953
  756POPS   C4B11564   7.237  15.767   8.135  0.1270 -0.1057 -0.0583
  757POPS   CNO11565   0.166   6.761   5.731  0.0991 -0.1777 -0.3019
  757POPS   PO411566  -0.164   6.684   5.953  0.0924  0.1247 -0.0878
  757POPS   GL111567  -0.072   6.733   6.342 -0.2481  0.0310  0.0295
  757POPS   GL211568  -0.107   6.449   6.570 -0.0293  0.3655  0.4934
  757POPS   C1A11569  -0.094   6.952   6.681  0.2021 -0.0157 -0.0350
  757POPS   D2A11570  -0.061   6.997   7.110 -0.2530 -0.1943 -0.2302
  757POPS   C3A11571  -0.417   6.831   7.452 -0.1036  0.2310  0.0076
  757POPS   C4A11572  -0.312   6.842   7.882 -0.0772 -0.0714  0.2173
  757POPS   C1B11573  -0.376   6.213   6.762 -0.0179 -0.2245 -0.1999
  757POPS   C2B11574  -0.725   5.983   6.898 -0.2288  0.1203  0.0742
  757POPS   C3B11575  -1.158   6.005   7.000  0.1062 -0.1856  0.1116
  757POPS   C4B11576  -1.317   6.002   7.447  0.2900  0.1983 -0.3124
  758POPS   CNO11577   8.643   1.513   5.860 -0.0282 -0.1681 -0.1450
  758POPS   PO411578   8.590   1.309   6.213 -0.3175  0.3746 -0.0192
  758POPS   GL111579   8.953   1.311   6.471 -0.0717  0.3261  0.2821
  758POPS   GL211580   8.774   1.443   6.796 -0.2451  0.0647 -0.1011
  758POPS   C1A11581   9.253   1.319   6.763  0.1524  0.2237  0.3758
  758POPS   D2A11582   9.560   1.352   7.060 -0.0501 -0.0611  0.3136
  758POPS   C3A11583   9.463   1.420   7.486  0.0810  0.0077 -0.0911
  758POPS   C4A11584   9.284   1.426   7.944 -0.1111  0.0405 -0.1514
  758POPS   C1B11585   8.977   1.294   7.145 -0.1726 -0.0210 -0.0106
  758POPS   C2B11586   8.969   1.241   7.586 -0.3074  0.0936  0.1668
  758POPS   C3B11587   8.795   1.163   8.009  0.1676 -0.0002  0.2646
  758POPS   C4B11588   8.462   1.181   8.355  0.4098  0.2299 -0.1465
  759POPS   CNO11589   3.236   4.075   5.616 -0.0677  0.1727  0.1575
  759POPS   PO411590   3.055   3.775   5.935  0.0738 -0.3417 -0.0720
  759POPS   GL111591   2.925   3.705   6.340  0.1300  0.0383 -0.0028
  759POPS   GL211592   2.990   3.969   6.546 -0.2747 -0.1352 -0.1665
  759POPS   C1A11593   2.603   3.695   6.768 -0.3182  0.1482  0.0036
  759POPS   D2A11594   2.751   3.436   7.118 -0.0357 -0.0863 -0.1317
  759POPS   C3A11595   2.447   3.116   7.329 -0.0898 -0.1881 -0.2555
  759POPS   C4A11596   2.548   2.751   7.551  0.1469  0.0187  0.0322
  759POPS   C1B11597   3.057   3.858   6.950  0.2950 -0.4097 -0.1275
  759POPS   C2B11598   2.977   3.828   7.314 -0.0173 -0.1148 -0.2947
  759POPS   C3B11599   2.766   3.523   7.597 -0.1739  0.2281 -0.1284
  759POPS   C4B11600   2.581   3.204   7.808  0.1883 -0.1236  0.0542
  760POPS   CNO11601  17.321   7.711   5.768  0.0816  0.0070  0.0222
  760POPS   PO411602  17.349   8.007   6.003 -0.0941  0.5480  0.1393
  760POPS   GL111603  17.367   7.891   6.399  0.0207  0.1172  0.3580
  760POPS   GL211604  17.501   7.935   6.647  0.0005 -0.1790  0.0327
  760POPS   C1A11605  16.947   7.788   6.695  0.1622 -0.2051 -0.1047
  760POPS   D2A11606  17.033   7.731   7.141 -0.0357 -0.2535 -0.4624
  760POPS   C3A11607  16.898   7.927   7.418  0.1537  0.2840  0.2222
  760POPS   C4A11608  16.820   7.882   7.907 -0.0219 -0.0922  0.2085
  760POPS   C1B11609  17.494   7.756   7.071  0.1639 -0.0167  0.1477
  760POPS   C2B11610  17.374   7.810   7.500  0.1449  0.2619  0.0732
  760POPS   C3B11611  17.317   7.861   7.880 -0.0591  0.2287 -0.1289
  760POPS   C4B11612  17.343   7.782   8.336 -0.0417  0.1782 -0.1228
  761POPS   CNO11613  14.562  13.031   6.121 -0.2888 -0.0405 -0.4758
  761POPS   PO411614  14.594  13.287   6.485 -0.0990  0.1282 -0.2061
  761POPS   GL111615  14.397  13.091   6.845 -0.0889 -0.0005 -0.0186
  761POPS   GL211616  14.024  13.079   6.940 -0.1066 -0.0250  0.1886
  761POPS   C1A11617  14.322  13.035   7.370  0.1420 -0.1610 -0.2640
  761POPS   D2A11618  14.508  12.878   7.785 -0.0394 -0.0116  0.1183
  761POPS   C3A11619  14.861  13.079   7.929  0.3454  0.1703 -0.1390
  761POPS   C4A11620  15.145  13.115   8.331 -0.1616  0.2364 -0.2004
  761POPS   C1B11621  13.793  13.442   7.164 -0.2293 -0.1178 -0.0402
  761POPS   C2B11622  13.754  13.609   7.569 -0.2072 -0.1678  0.2247
  761POPS   C3B11623  13.401  13.614   7.844  0.0623  0.3240 -0.2148
  761POPS   C4B11624  13.158  13.409   8.115 -0.0632 -0.2854 -0.1103
  762POPS   CNO11625   3.293   0.286   5.641  0.5170 -0.0488  0.2130
  762POPS   PO411626   3.141  -0.018   5.708  0.3100 -0.1494 -0.0640
  762POPS   GL111627   3.043   0.130   6.114  0.0699 -0.0411 -0.2004
  762POPS   GL211628   2.759   0.285   6.139  0.0810  0.0987  0.0820
  762POPS   C1A11629   3.204   0.375   6.387 -0.1568 -0.0868  0.0594
  762POPS   D2A11630   3.379   0.829   6.431  0.1775 -0.0387 -0.0249
  762POPS   C3A11631   2.976   0.989   6.622 -0.1445  0.1354  0.3671
  762POPS   C4A11632   2.533   1.063   6.845  0.0879  0.1044  0.0732
  762POPS   C1B11633   2.787   0.348   6.579  0.0360  0.1739 -0.0419
  762POPS   C2B11634   2.681   0.610   6.864  0.0627  0.0736 -0.2685
  762POPS   C3B11635   2.663   0.678   7.368  0.3109 -0.0155  0.1645
  762POPS   C4B11636   2.563   0.287   7.598  0.1393  0.0809 -0.0368
  763POPS   CNO11637   7.710  12.367   5.940 -0.2091 -0.0876  0.0744
  763POPS   PO411638   7.314  12.303   6.256  0.0204 -0.0484  0.0413
  763POPS   GL111639   7.228  12.076   6.547 -0.0556  0.1343  0.1095
  763POPS   GL211640   7.060  11.871   6.729  0.2383  0.0478 -0.0896
  763POPS   C1A11641   7.437  12.116   6.895 -0.0251  0.0294 -0.1393
  763POPS   D2A11642   7.749  11.850   7.005  0.1878 -0.0806  0.1596
  763POPS   C3A11643   7.650  11.815   7.411 -0.0693 -0.0765 -0.0535
  763POPS   C4A11644   7.639  11.974   7.864  0.2526 -0.3365 -0.1354
  763POPS   C1B11645   7.315  11.538   6.987 -0.5091 -0.0334  0.2998
  763POPS   C2B11646   7.508  11.275   7.199 -0.0123  0.0712 -0.0048
  763POPS   C3B11647   7.954  11.005   7.278 -0.1138 -0.1014 -0.0974
  763POPS   C4B11648   8.353  10.800   7.617 -0.2764 -0.0234 -0.4141
  764POPS   CNO11649   6.828  14.103   6.076  0.2015  0.1173 -0.0645
  764POPS   PO411650   6.807  13.941   6.515  0.0474 -0.2721  0.0639
  764POPS   GL111651   6.927  13.823   6.871  0.1288  0.1454  0.0985
  764POPS   GL211652   6.852  13.530   7.006  0.1396 -0.0909 -0.0300
  764POPS   C1A11653   6.836  13.948   7.249 -0.1518  0.1374 -0.3001
  764POPS   D2A11654   6.641  14.172   7.451  0.0302 -0.0953 -0.2202
  764POPS   C3A11655   6.798  14.463   7.798 -0.0212 -0.0065  0.0684
  764POPS   C4A11656   6.803  14.909   7.984 -0.0736  0.0494  0.0931
  764POPS   C1B11657   6.816  13.480   7.489  0.0204 -0.4548  0.1389
  764POPS   C2B11658   6.669  13.409   7.950 -0.1391  0.0865 -0.4234
  764POPS   C3B11659   6.731  12.981   8.128  0.0284 -0.0160 -0.0697
  764POPS   C4B11660   7.190  12.837   8.196 -0.2855  0.2594  0.0813
  765POPS   CNO11661  11.235   9.096   6.747 -0.1115 -0.1460 -0.1953
  765POPS   PO411662  11.418   8.802   6.623 -0.0646 -0.1239  0.1723
  765POPS   GL111663  11.440   8.586   6.916 -0.0264  0.1365  0.1452
  765POPS   GL211664  11.622   8.300   6.871  0.1581 -0.1509 -0.3778
  765POPS   C1A11665  11.187   8.273   7.110 -0.2410  0.3567  0.1370
  765POPS   D2A11666  11.039   8.187   7.566 -0.1117 -0.0490  0.0481
  765POPS   C3A11667  10.927   7.881   7.861  0.3418  0.3238 -0.1363
  765POPS   C4A11668  11.144   7.552   7.932  0.2022 -0.1717 -0.5673
  765POPS   C1B11669  11.941   8.271   7.152 -0.1924 -0.0084  0.0260
  765POPS   C2B11670  12.282   8.135   7.329 -0.2080  0.3079  0.0633
  765POPS   C3B11671  12.717   8.135   7.587 -0.2693 -0.0028  0.0723
  765POPS   C4B11672  12.943   8.144   8.052  0.0156 -0.0456 -0.0043
  766POPS   CNO11673   8.658  12.202   6.158 -0.0036 -0.3064 -0.0508
  766POPS   PO411674   8.189  12.261   6.336  0.2013 -0.0347 -0.0845
  766POPS   GL111675   8.146  12.317   6.756 -0.1985 -0.0377 -0.0175
  766POPS   GL211676   8.209  12.638   6.858 -0.0648 -0.3569  0.3791
  766POPS   C1A11677   7.863  12.356   7.041  0.1539  0.1586 -0.0691
  766POPS   D2A11678   7.744  12.351   7.419  0.0071 -0.0608 -0.0009
  766POPS   C3A11679   7.993  12.364   7.758  0.2304 -0.0643  0.0439
  766POPS   C4A11680   7.981  12.198   8.140  0.2166 -0.1555 -0.1555
  766POPS   C1B11681   8.349  12.463   7.341 -0.0738  0.3007 -0.0566
  766POPS   C2B11682   8.519  12.325   7.756  0.1488  0.0694 -0.0804
  766POPS   C3B11683   8.452  12.126   8.146 -0.0619 -0.0697 -0.3159
  766POPS   C4B11684   8.605  11.914   8.570  0.2164 -0.2481  0.0192
  767POPS   CNO11685   1.458  12.548   5.749  0.2009 -0.0883  0.1095
  767POPS   PO411686   1.727  12.843   5.939 -0.0645  0.3757 -0.3319
  767POPS   GL111687   1.664  13.037   6.269 -0.2559  0.0866  0.0686
  767POPS   GL211688   1.397  12.853   6.320 -0.4142  0.1016  0.2435
  767POPS   C1A11689   1.615  13.314   6.505  0.0964  0.1694 -0.1697
  767POPS   D2A11690   1.477  13.743   6.694  0.2002  0.0934 -0.0275
  767POPS   C3A11691   1.592  13.830   7.128 -0.1661  0.2239  0.0996
  767POPS   C4A11692   1.717  13.822   7.609 -0.0445 -0.0688 -0.0169
  767POPS   C1B11693   1.522  12.858   6.774 -0.0361  0.0746 -0.4529
  767POPS   C2B11694   1.507  13.211   7.027 -0.0687  0.1250  0.0306
  767POPS   C3B11695   1.149  13.582   6.997  0.1229 -0.0920 -0.2515
  767POPS   C4B11696   0.733  13.485   6.943 -0.4250  0.0262  0.0922
  768POPS   CNO11697  11.138   8.314   6.594  0.0900 -0.0619  0.2045
  768POPS   PO411698  10.778   8.310   6.424  0.1094  0.2033 -0.1382
  768POPS   GL111699  10.714   8.502   6.909  0.1612  0.4921  0.2391
  768POPS   GL211700  10.956   8.692   7.021 -0.2053 -0.0270  0.0626
  768POPS   C1A11701  10.556   8.484   7.354  0.3312 -0.0888  0.4216
  768POPS   D2A11702  10.453   8.482   7.856 -0.2182 -0.2313 -0.0002
  768POPS   C3A11703  10.877   8.450   8.043  0.1813  0.1880 -0.1603
  768POPS   C4A11704  10.987   8.207   8.427 -0.2659  0.0601  0.1505
  768POPS   C1B11705  11.065   8.687   7.453  0.2336  0.2035 -0.1907
  768POPS   C2B11706  11.365   8.565   7.829  0.0584  0.1359 -0.0754
  768POPS   C3B11707  11.400   8.153   8.072  0.1155 -0.2438 -0.2633
  768POPS   C4B11708  11.839   7.981   8.232  0.1477 -0.0892  0.2399
  769POPS   CNO11709  16.607  16.525   6.028 -0.0329 -0.0656 -0.0612
  769POPS   PO411710  16.664  16.870   6.264  0.0225  0.1272 -0.2402
  769POPS   GL111711  16.535  16.939   6.603 -0.1285 -0.0406  0.0753
  769POPS   GL211712  16.253  17.026   6.709  0.0363  0.0931  0.1963
  769POPS   C1A11713  16.752  16.802   6.948  0.2122 -0.4326  0.2898
  769POPS   D2A11714  16.774  16.840   7.510  0.0770  0.0529  0.0228
  769POPS   C3A11715  16.647  16.671   7.820 -0.1305 -0.0068  0.1758
  769POPS   C4A11716  16.563  16.623   8.313  0.2558 -0.0403  0.3496
  769POPS   C1B11717  16.299  16.945   7.165  0.0768 -0.0785 -0.1235
  769POPS   C2B11718  16.320  16.902   7.571  0.1796  0.3371 -0.0450
  769POPS   C3B11719  16.520  17.159   7.875  0.1628 -0.2591 -0.1511
  769POPS   C4B11720  16.512  17.498   8.122 -0.1000  0.2130 -0.1894
  770POPS   CNO11721   6.371   1.301   5.905  0.0916  0.0247  0.2433
  770POPS   PO411722   6.554   0.956   6.253  0.2004  0.0844 -0.2793
  770POPS   GL111723   6.642   0.872   6.670  0.4407  0.0395  0.2366
  770POPS   GL211724   6.413   0.854   6.792 -0.0518 -0.0781  0.1020
  770POPS   C1A11725   6.800   0.867   7.126 -0.3029 -0.0090 -0.0668
  770POPS   D2A11726   6.663   0.802   7.624 -0.1659 -0.0222 -0.0332
  770POPS   C3A11727   6.856   1.086   7.999  0.1076  0.0717 -0.2809
  770POPS   C4A11728   6.936   0.909   8.371  0.0145  0.1036  0.0121
  770POPS   C1B11729   6.267   0.818   7.220 -0.3146 -0.2232  0.0274
  770POPS   C2B11730   6.105   0.714   7.649  0.0776  0.1599 -0.2034
  770POPS   C3B11731   5.983   0.340   8.035 -0.0301  0.0290 -0.0665
  770POPS   C4B11732   6.224   0.175   8.419 -0.1821 -0.0228 -0.1053
  771POPS   CNO11733   0.167  15.417   6.550  0.0061 -0.0602  0.3693
  771POPS   PO411734   0.330  15.544   6.094 -0.0783  0.1376  0.2517
  771POPS   GL111735   0.519  15.760   6.484 -0.1773 -0.1428  0.2052
  771POPS   GL211736   0.846  15.843   6.578 -0.0173 -0.1022  0.0919
  771POPS   C1A11737   0.389  15.641   6.918  0.1311  0.1558  0.1639
  771POPS   D2A11738   0.565  15.524   7.382 -0.0381  0.0633  0.4211
  771POPS   C3A11739   0.707  15.561   7.769  0.0871  0.1813  0.2198
  771POPS   C4A11740   0.923  15.837   8.113  0.2254 -0.0264  0.1067
  771POPS   C1B11741   0.805  15.964   6.999  0.4538  0.0952 -0.0769
  771POPS   C2B11742   0.688  16.001   7.399 -0.0698  0.2336 -0.1491
  771POPS   C3B11743   0.648  16.109   7.818  0.1437  0.1415 -0.2789
  771POPS   C4B11744   0.514  16.248   8.165  0.1528 -0.2317 -0.0880
  772POPS   CNO11745  13.042   6.415   5.394  0.1009  0.2058  0.1347
  772POPS   PO411746  13.312   6.118   5.547 -0.2356  0.1813 -0.2785
  772POPS   GL111747  13.356   6.040   6.059  0.0973 -0.1615  0.3914
  772POPS   GL211748  13.404   6.312   6.333 -0.2723  0.0547 -0.0418
  772POPS   C1A11749  13.214   5.866   6.505 -0.0935  0.1093 -0.2606
  772POPS   D2A11750  13.221   5.899   6.941 -0.0812  0.1715 -0.2089
  772POPS   C3A11751  13.361   5.597   7.219 -0.2345 -0.1090 -0.1013
  772POPS   C4A11752  13.533   5.557   7.574 -0.0033 -0.0129  0.0437
  772POPS   C1B11753  13.534   6.251   6.745  0.0159  0.1423 -0.0160
  772POPS   C2B11754  13.811   6.101   7.073 -0.2003 -0.2872 -0.1138
  772POPS   C3B11755  13.669   6.073   7.507 -0.1016  0.1106  0.1619
  772POPS   C4B11756  13.859   5.879   7.840  0.0390  0.3671 -0.2971
  773POPS   CNO11757   1.365   2.654   6.204 -0.1830  0.3012  0.1078
  773POPS   PO411758   1.452   2.970   5.935  0.0813  0.2047  0.2636
  773POPS   GL111759   1.741   2.978   6.175  0.0588  0.2798  0.0027
  773POPS   GL211760   1.864   2.715   6.270 -0.2828 -0.0073  0.1646
  773POPS   C1A11761   2.054   3.115   6.105  0.2358  0.0777  0.0289
  773POPS   D2A11762   2.462   3.327   6.441 -0.1426 -0.1176 -0.4444
  773POPS   C3A11763   2.485   3.163   6.840  0.0074  0.0293  0.4080
  773POPS   C4A11764   2.427   2.839   6.933  0.4546 -0.0704 -0.0459
  773POPS   C1B11765   1.970   3.086   6.607 -0.1202  0.3690 -0.0116
  773POPS   C2B11766   1.961   3.130   7.001  0.1002 -0.1544 -0.2027
  773POPS   C3B11767   1.919   3.048   7.302 -0.0134 -0.1823  0.2645
  773POPS   C4B11768   2.040   3.151   7.717 -0.0658  0.3159 -0.0729
  774POPS   CNO11769  11.133   6.191   5.961  0.0192 -0.0626 -0.0347
  774POPS   PO411770  11.318   5.733   5.963 -0.1478 -0.3044  0.5460
  774POPS   GL111771  11.175   5.836   6.341 -0.0916 -0.1733  0.1785
  774POPS   GL211772  11.351   5.502   6.387 -0.1474  0.0394  0.0527
  774POPS   C1A11773  10.936   5.885   6.673 -0.0203 -0.2318  0.1433
  774POPS   D2A11774  10.872   5.809   7.153  0.2860  0.1967  0.3099
  774POPS   C3A11775  10.644   5.674   7.418 -0.4926  0.2528 -0.0853
  774POPS   C4A11776  10.493   5.607   7.850  0.3242 -0.0338 -0.0217
  774POPS   C1B11777  11.171   5.418   6.801 -0.1397  0.1699 -0.0446
  774POPS   C2B11778  11.396   5.388   7.231  0.0377 -0.0571 -0.0809
  774POPS   C3B11779  11.533   5.237   7.540 -0.0757  0.1622  0.1214
  774POPS   C4B11780  11.617   4.984   8.016  0.1532  0.3078 -0.1878
  775POPS   CNO11781   5.434   3.841   5.799 -0.2934  0.1270 -0.0301
  775POPS   PO411782   5.755   4.021   6.084  0.1521 -0.0485  0.1377
  775POPS   GL111783   5.651   4.074   6.609 -0.1069 -0.0082  0.1820
  775POPS   GL211784   5.409   4.211   6.735  0.2087 -0.1987 -0.0646
  775POPS   C1A11785   5.879   4.179   6.985 -0.0746 -0.1744  0.1405
  775POPS   D2A11786   5.853   4.281   7.381  0.1112  0.1353 -0.0813
  775POPS   C3A11787   5.541   4.291   7.676  0.1609  0.3271 -0.0334
  775POPS   C4A11788   5.583   4.515   8.087 -0.1626  0.2845  0.2517
  775POPS   C1B11789   5.149   4.397   6.970  0.0798  0.0752  0.2429
  775POPS   C2B11790   5.127   4.455   7.393  0.0046 -0.1944 -0.1643
  775POPS   C3B11791   5.159   4.556   7.762  0.1715  0.1531  0.2505
  775POPS   C4B11792   5.060   4.789   8.223  0.2271 -0.0881  0.0364
  776POPS   CNO11793  12.297   3.611   5.448 -0.1670 -0.1972  0.1707
  776POPS   PO411794  11.981   3.600   5.632 -0.3826 -0.0079 -0.1017
  776POPS   GL111795  11.855   3.554   6.157  0.0969  0.1456  0.0031
  776POPS   GL211796  12.137   3.452   6.360  0.1509 -0.2271  0.1288
  776POPS   C1A11797  11.654   3.605   6.648 -0.0193  0.0852  0.0367
  776POPS   D2A11798  11.384   3.748   6.968 -0.3293 -0.0111  0.1609
  776POPS   C3A11799  11.520   3.608   7.364 -0.1766 -0.0176 -0.1068
  776POPS   C4A11800  11.747   3.306   7.753  0.2300  0.0231  0.3385
  776POPS   C1B11801  12.082   3.225   6.720 -0.0641 -0.0009  0.1097
  776POPS   C2B11802  11.883   2.783   6.786  0.0406 -0.1541  0.2562
  776POPS   C3B11803  12.009   2.521   7.225  0.1582 -0.4390 -0.0371
  776POPS   C4B11804  11.920   2.383   7.644 -0.0931  0.1692 -0.0728
  777POPS   CNO11805  10.491  15.361   5.908  0.0185 -0.0772  0.1365
  777POPS   PO411806  10.253  15.271   6.315 -0.3182 -0.0263  0.1522
  777POPS   GL111807  10.474  15.201   6.738 -0.0269  0.2724  0.1197
  777POPS   GL211808  10.270  15.039   6.847 -0.1415  0.0525 -0.0658
  777POPS   C1A11809  10.466  15.234   7.228  0.0691 -0.0122  0.0663
  777POPS   D2A11810  10.453  15.174   7.691 -0.0464 -0.0630  0.0001
  777POPS   C3A11811  10.321  15.038   8.056  0.0757  0.0930  0.1241
  777POPS   C4A11812  10.519  14.876   8.369  0.1099  0.0797 -0.0182
  777POPS   C1B11813  10.138  14.747   7.096  0.2543 -0.0634 -0.0868
  777POPS   C2B11814  10.064  14.827   7.533  0.2536 -0.1586  0.1542
  777POPS   C3B11815  10.003  14.649   7.912  0.0593 -0.1846 -0.0425
  777POPS   C4B11816   9.834  14.256   8.106 -0.2884 -0.0570 -0.0773
  778POPS   CNO11817   1.105   5.799   6.506  0.0439  0.0931 -0.1923
  778POPS   PO411818   0.901   6.076   6.326 -0.3150 -0.1701  0.2708
  778POPS   GL111819   1.011   6.234   6.778  0.0928 -0.2379 -0.2015
  778POPS   GL211820   0.922   5.991   6.941 -0.0807  0.1123 -0.1347
  778POPS   C1A11821   1.085   6.363   7.242 -0.0802 -0.2598  0.1313
  778POPS   D2A11822   0.998   6.364   7.633 -0.3760 -0.0577 -0.2527
  778POPS   C3A11823   1.026   6.087   7.900  0.0378  0.1764  0.1582
  778POPS   C4A11824   1.136   6.097   8.343  0.0258  0.1074  0.0672
  778POPS   C1B11825   1.005   5.874   7.292  0.1277  0.0170 -0.1253
  778POPS   C2B11826   1.148   5.645   7.692  0.1299 -0.0083  0.1684
  778POPS   C3B11827   1.497   5.645   7.916 -0.0612 -0.0778 -0.0136
  778POPS   C4B11828   1.620   5.384   8.115  0.0621 -0.0112  0.3375
  779POPS   CNO11829  14.755  17.086   6.283 -0.0642  0.0823 -0.3754
  779POPS   PO411830  14.798  17.567   6.214  0.0264  0.1408 -0.0424
  779POPS   GL111831  15.101  17.517   6.543  0.0099  0.2845  0.1825
  779POPS   GL211832  15.141  17.210   6.643 -0.3495  0.1362 -0.1525
  779POPS   C1A11833  14.978  17.567   6.959  0.0026  0.1819 -0.1359
  779POPS   D2A11834  14.918  17.165   7.348 -0.1272  0.0169 -0.0435
  779POPS   C3A11835  15.231  17.093   7.711  0.2482 -0.0697  0.1375
  779POPS   C4A11836  15.447  16.937   8.139 -0.1277 -0.2031  0.3308
  779POPS   C1B11837  14.696  17.182   6.830 -0.0543 -0.3948 -0.0352
  779POPS   C2B11838  14.252  16.998   7.037  0.0461  0.0125  0.3735
  779POPS   C3B11839  14.314  17.005   7.458  0.0371 -0.1428 -0.3128
  779POPS   C4B11840  14.239  16.710   7.796 -0.0510  0.2271  0.1736
  780POPS   CNO11841  16.858  13.133   6.221  0.0483 -0.2430  0.0219
  780POPS   PO411842  16.770  12.707   6.195  0.0547 -0.2193  0.0286
  780POPS   GL111843  16.688  12.647   6.646  0.0509  0.0783  0.0229
  780POPS   GL211844  16.374  12.639   6.809 -0.0733  0.1586  0.2339
  780POPS   C1A11845  16.784  12.575   7.100  0.2531  0.0071 -0.0958
  780POPS   D2A11846  16.856  12.600   7.613 -0.0933 -0.0255  0.1176
  780POPS   C3A11847  17.142  12.741   7.787  0.2680  0.1629 -0.0094
  780POPS   C4A11848  17.517  12.885   7.719  0.0854 -0.3234  0.2276
  780POPS   C1B11849  16.283  12.803   7.304 -0.2418  0.1947 -0.0897
  780POPS   C2B11850  16.367  12.748   7.721  0.3574 -0.2383 -0.0082
  780POPS   C3B11851  16.702  12.738   8.153  0.0734  0.1967  0.3776
  780POPS   C4B11852  17.120  12.715   8.263  0.1008  0.0885 -0.4000
  781POPS   CNO11853  14.748  12.008   6.460 -0.1287 -0.1074 -0.0081
  781POPS   PO411854  14.536  11.676   6.268  0.0350 -0.2082 -0.0308
  781POPS   GL111855  14.646  11.438   6.496  0.2041  0.1680  0.0902
  781POPS   GL211856  14.970  11.537   6.650 -0.2167  0.0873  0.2394
  781POPS   C1A11857  14.457  11.053   6.704  0.1955 -0.0979 -0.0372
  781POPS   D2A11858  14.465  10.746   6.975  0.0142  0.1281 -0.2420
  781POPS   C3A11859  14.650  10.910   7.336 -0.1228  0.0891  0.2311
  781POPS   C4A11860  14.719  10.691   7.710 -0.0715 -0.2153 -0.0248
  781POPS   C1B11861  14.667  11.454   7.064 -0.3177  0.0822  0.1021
  781POPS   C2B11862  14.555  11.563   7.475 -0.0404 -0.2356  0.0206
  781POPS   C3B11863  14.480  11.703   7.942  0.3749 -0.1558  0.0440
  781POPS   C4B11864  14.591  11.990   8.250  0.0255  0.3178 -0.0164
  782POPS   CNO11865  16.541   4.649   6.114  0.1090  0.1548 -0.0525
  782POPS   PO411866  16.420   4.244   6.371  0.0874 -0.1033  0.2892
  782POPS   GL111867  16.387   4.464   6.744 -0.0358 -0.3436 -0.0827
  782POPS   GL211868  16.748   4.348   6.811  0.0847 -0.2346 -0.1535
  782POPS   C1A11869  16.354   4.495   7.217 -0.2470 -0.1352 -0.0120
  782POPS   D2A11870  16.249   4.728   7.609 -0.0399 -0.1324  0.1803
  782POPS   C3A11871  15.944   4.665   7.898 -0.0866  0.0119 -0.1464
  782POPS   C4A11872  15.796   4.478   8.267 -0.2165 -0.0590 -0.3022
  782POPS   C1B11873  16.765   4.262   7.185 -0.1255  0.0128  0.1668
  782POPS   C2B11874  16.753   4.505   7.507 -0.2757 -0.0565  0.2365
  782POPS   C3B11875  16.881   4.591   7.860 -0.2509  0.0077 -0.1169
  782POPS   C4B11876  17.331   4.447   8.110  0.1009  0.2334 -0.0783
  783POPS   CNO11877   2.821  11.259   5.898  0.1056  0.0228  0.1142
  783POPS   PO411878   3.047  11.410   6.193  0.1701 -0.1459 -0.2840
  783POPS   GL111879   3.322  11.295   6.499  0.3235 -0.3269  0.3278
  783POPS   GL211880   3.234  11.365   6.861  0.0723 -0.3343  0.0842
  783POPS   C1A11881   3.635  11.108   6.842 -0.0761  0.1201  0.0297
  783POPS   D2A11882   4.019  10.935   6.966 -0.1132  0.0062  0.0318
  783POPS   C3A11883   4.076  10.855   7.420 -0.2316  0.0403 -0.2397
  783POPS   C4A11884   4.218  11.045   7.815 -0.3767 -0.0300  0.0566
  783POPS   C1B11885   3.292  11.408   7.286 -0.1707 -0.1258  0.0995
  783POPS   C2B11886   3.313  11.354   7.698 -0.1540  0.0907  0.1484
  783POPS   C3B11887   3.349  11.274   8.120  0.0901 -0.1836 -0.0849
  783POPS   C4B11888   3.489  11.056   8.528 -0.0820 -0.0047 -0.1043
  784POPS   CNO11889  15.829   2.880   5.815 -0.1273  0.3228  0.0388
  784POPS   PO411890  16.125   3.042   5.942 -0.2069 -0.1987 -0.1966
  784POPS   GL111891  16.098   3.047   6.371  0.0761 -0.0409  0.1108
  784POPS   GL211892  16.015   2.717   6.305  0.1176 -0.1686  0.0990
  784POPS   C1A11893  16.191   3.022   6.769  0.2544  0.1231  0.0466
  784POPS   D2A11894  16.410   2.931   7.031 -0.1565  0.1889  0.1721
  784POPS   C3A11895  16.291   2.940   7.539 -0.1049  0.1312 -0.0856
  784POPS   C4A11896  16.108   2.828   7.965 -0.0505 -0.1950  0.2324
  784POPS   C1B11897  15.704   2.757   6.593  0.0478  0.2641  0.1460
  784POPS   C2B11898  15.283   2.821   6.628  0.0752 -0.2994 -0.3534
  784POPS   C3B11899  15.056   2.963   7.058 -0.2247 -0.0265  0.1350
  784POPS   C4B11900  14.694   2.864   7.370 -0.1963  0.1889 -0.0134
  785POPS   CNO11901  10.128   9.805   6.290 -0.0535  0.1113  0.3742
  785POPS   PO411902  10.000   9.775   6.623 -0.2592  0.4031  0.0949
  785POPS   GL111903   9.848   9.879   6.948 -0.0769  0.0639  0.0470
  785POPS   GL211904   9.984   9.658   7.094  0.0520  0.2361 -0.2026
  785POPS   C1A11905   9.757   9.995   7.415  0.1524  0.0231  0.0148
  785POPS   D2A11906   9.665   9.952   7.833 -0.0142  0.1074  0.3612
  785POPS   C3A11907   9.316   9.748   7.949 -0.0598  0.0069  0.0608
  785POPS   C4A11908   9.039   9.701   8.300  0.2637 -0.1923 -0.2729
  785POPS   C1B11909  10.227   9.811   7.542  0.2260 -0.0429 -0.1390
  785POPS   C2B11910  10.186   9.741   7.910 -0.2596 -0.2242  0.0158
  785POPS   C3B11911  10.376   9.534   8.248 -0.1655 -0.4244 -0.0360
  785POPS   C4B11912  10.523   9.067   8.388  0.0231 -0.1566  0.0367
  786POPS   CNO11913   1.438   6.772   6.170  0.0016  0.5275 -0.1129
  786POPS   PO411914   1.313   6.474   6.419 -0.3159  0.1309 -0.2321
  786POPS   GL111915   1.203   6.870   6.666  0.1066  0.0889  0.0887
  786POPS   GL211916   0.909   7.025   6.618  0.1784 -0.0808 -0.2411
  786POPS   C1A11917   1.377   7.149   7.019  0.1434 -0.2594 -0.1501
  786POPS   D2A11918   1.540   7.285   7.358  0.1761 -0.1079 -0.0428
  786POPS   C3A11919   1.394   7.236   7.716  0.0426 -0.0668 -0.0696
  786POPS   C4A11920   1.511   7.055   8.181 -0.0227 -0.1404  0.0410
  786POPS   C1B11921   0.793   6.815   7.020  0.1159 -0.0492 -0.1436
  786POPS   C2B11922   1.012   6.860   7.404  0.2475 -0.2078  0.0562
  786POPS   C3B11923   0.719   6.783   7.776  0.0058 -0.0402  0.0082
  786POPS   C4B11924   0.394   6.710   8.066 -0.1172 -0.0915 -0.1422
  787POPS   CNO11925   9.171  14.642   6.351  0.0565  0.1276 -0.1698
  787POPS   PO411926   9.598  14.503   6.372 -0.1339  0.4476  0.0956
  787POPS   GL111927   9.524  14.657   6.781  0.2950  0.1477 -0.0787
  787POPS   GL211928   9.243  14.691   6.885  0.0830 -0.1326 -0.2791
  787POPS   C1A11929   9.646  14.943   7.162  0.0756 -0.2798 -0.1037
  787POPS   D2A11930   9.600  15.245   7.494 -0.0909  0.1187  0.1458
  787POPS   C3A11931   9.509  15.193   7.843 -0.0579 -0.2733 -0.2793
  787POPS   C4A11932   9.269  15.248   8.165  0.1016  0.3538  0.3121
  787POPS   C1B11933   9.133  14.905   7.297 -0.0856  0.2616  0.6001
  787POPS   C2B11934   9.082  15.001   7.696  0.0788 -0.0386  0.0086
  787POPS   C3B11935   8.831  14.977   8.042 -0.0498  0.2727 -0.2442
  787POPS   C4B11936   8.591  14.951   8.523  0.0574 -0.0401  0.1471
  788POPS   CNO11937  13.655  11.944   6.363 -0.3980 -0.0576 -0.0167
  788POPS   PO411938  13.310  11.684   6.285 -0.0906 -0.1215  0.4017
  788POPS   GL111939  13.279  11.547   6.680  0.1316 -0.2782  0.0895
  788POPS   GL211940  13.590  11.673   6.750 -0.0469 -0.2741 -0.1911
  788POPS   C1A11941  13.129  11.508   7.102 -0.0478 -0.1887  0.0476
  788POPS   D2A11942  13.234  11.650   7.560  0.1836  0.1451 -0.3527
  788POPS   C3A11943  13.526  11.577   7.795 -0.0345 -0.0780 -0.1092
  788POPS   C4A11944  13.748  11.105   7.753  0.0242 -0.1431 -0.0173
  788POPS   C1B11945  13.629  11.831   7.250 -0.0623 -0.1832 -0.0224
  788POPS   C2B11946  13.534  12.046   7.652 -0.0179 -0.3122 -0.1108
  788POPS   C3B11947  13.652  12.034   8.062 -0.0960  0.0351  0.2523
  788POPS   C4B11948  13.670  11.799   8.372 -0.1346 -0.0401  0.0370
  789POPS   CNO11949  13.393   3.783   5.935  0.1587 -0.3051  0.0330
  789POPS   PO411950  13.073   4.197   5.734 -0.0399  0.0601 -0.0722
  789POPS   GL111951  13.045   4.373   6.169 -0.0262 -0.2365 -0.3711
  789POPS   GL211952  13.327   4.184   6.190  0.1324  0.2626 -0.0966
  789POPS   C1A11953  12.971   4.285   6.676 -0.1464 -0.1309  0.0540
  789POPS   D2A11954  12.984   4.257   7.077  0.2473 -0.0427  0.1854
  789POPS   C3A11955  12.891   4.203   7.441  0.1296 -0.2046 -0.0784
  789POPS   C4A11956  12.786   4.264   7.857 -0.0240 -0.1947 -0.1729
  789POPS   C1B11957  13.376   4.033   6.584 -0.0063  0.0812 -0.1376
  789POPS   C2B11958  13.425   4.037   6.984 -0.1857 -0.3099 -0.1996
  789POPS   C3B11959  13.394   3.982   7.340 -0.0929  0.2370 -0.1787
  789POPS   C4B11960  13.301   4.067   7.840 -0.1215 -0.0644 -0.1325
  790POPS   CNO11961  15.386  15.145   6.443 -0.3304  0.1051  0.1449
  790POPS   PO411962  15.060  15.343   6.344  0.3397  0.0487  0.0373
  790POPS   GL111963  15.084  15.471   6.809  0.3722 -0.0129  0.0233
  790POPS   GL211964  15.106  15.686   6.958  0.1516 -0.1049  0.1208
  790POPS   C1A11965  14.849  15.241   7.079 -0.2456  0.0182 -0.3579
  790POPS   D2A11966  14.819  15.024   7.430  0.0512 -0.2695 -0.6088
  790POPS   C3A11967  14.469  15.046   7.724 -0.0202 -0.4556  0.1174
  790POPS   C4A11968  14.337  14.961   8.164 -0.1169  0.0342 -0.1171
  790POPS   C1B11969  15.169  15.483   7.374 -0.0696  0.2483  0.0264
  790POPS   C2B11970  15.069  15.339   7.815 -0.2506 -0.1021  0.1466
  790POPS   C3B11971  14.752  15.305   8.116 -0.0527  0.0408 -0.3768
  790POPS   C4B11972  14.553  15.250   8.549  0.1160 -0.0691 -0.1406
  791POPS   CNO11973  12.240   5.649   5.457  0.2779 -0.0069  0.2193
  791POPS   PO411974  12.626   5.548   5.582 -0.1444  0.0847 -0.3328
  791POPS   GL111975  12.576   5.517   6.055 -0.2597 -0.3745 -0.1822
  791POPS   GL211976  12.753   5.823   6.254 -0.3419 -0.3053 -0.2156
  791POPS   C1A11977  12.335   5.632   6.362  0.1240 -0.0255 -0.2707
  791POPS   D2A11978  12.072   5.616   6.694 -0.3574 -0.1764  0.1785
  791POPS   C3A11979  12.302   5.647   7.030 -0.0153 -0.1453  0.2717
  791POPS   C4A11980  12.467   5.543   7.395  0.1834  0.0803 -0.2670
  791POPS   C1B11981  12.738   5.800   6.683  0.3045 -0.1828 -0.0745
  791POPS   C2B11982  12.748   5.872   7.112 -0.2163 -0.3308  0.1195
  791POPS   C3B11983  12.990   5.913   7.411  0.2374 -0.1097 -0.1283
  791POPS   C4B11984  12.972   6.234   7.667 -0.1744  0.1929 -0.0302
  792POPS   CNO11985  12.455   1.494   5.782  0.0606 -0.0660  0.0078
  792POPS   PO411986  12.726   1.785   5.941 -0.2661 -0.0165  0.2595
  792POPS   GL111987  12.831   1.919   6.369  0.3112 -0.0390 -0.0712
  792POPS   GL211988  12.551   1.972   6.558 -0.0035 -0.0722  0.1806
  792POPS   C1A11989  13.036   2.161   6.643 -0.1804  0.4641 -0.2216
  792POPS   D2A11990  13.051   2.489   6.975  0.1132  0.0194  0.2947
  792POPS   C3A11991  13.155   2.509   7.353 -0.0965 -0.1664 -0.1226
  792POPS   C4A11992  13.372   2.270   7.623  0.1843  0.2490 -0.2231
  792POPS   C1B11993  12.697   1.991   6.934  0.0250 -0.0953 -0.0341
  792POPS   C2B11994  12.780   2.156   7.329 -0.0968 -0.2344 -0.0643
  792POPS   C3B11995  12.836   2.370   7.776 -0.1533 -0.0009 -0.0453
  792POPS   C4B11996  12.702   2.365   8.248  0.2562  0.0280  0.1942
  793POPS   CNO11997  15.733  11.314   5.506 -0.1709  0.0472 -0.0858
  793POPS   PO411998  16.153  11.293   5.744  0.1103 -0.1669 -0.0253
  793POPS   GL111999  16.188  11.045   6.119 -0.2675  0.1645 -0.0688
  793POPS   GL212000  16.157  11.333   6.335 -0.1510  0.0557  0.0442
  793POPS   C1A12001  16.163  10.786   6.512 -0.1918 -0.2097 -0.0092
  793POPS   D2A12002  16.077  10.879   6.883  0.3907  0.1492  0.0209
  793POPS   C3A12003  16.308  10.591   7.149  0.0261  0.2270 -0.1316
  793POPS   C4A12004  16.766  10.752   7.352 -0.2081  0.2836  0.2330
  793POPS   C1B12005  16.375  11.222   6.677 -0.0435 -0.1206  0.2441
  793POPS   C2B12006  16.511  11.085   6.995  0.1600  0.0299 -0.1197
  793POPS   C3B12007  16.288  10.950   7.481 -0.1376 -0.1030  0.0282
  793POPS   C4B12008  16.033  10.886   7.843  0.0160  0.2000 -0.1542
  794POPS   CNO12009  11.522   4.966   5.567 -0.0752  0.1121 -0.1416
  794POPS   PO412010  11.177   4.696   5.622 -0.1977 -0.0261  0.2230
  794POPS   GL112011  11.374   4.678   5.978  0.1942  0.0684 -0.0164
  794POPS   GL212012  11.575   4.515   6.103  0.5916  0.1910  0.0563
  794POPS   C1A12013  11.446   4.962   6.284  0.0176 -0.1422 -0.0892
  794POPS   D2A12014  11.484   5.045   6.640  0.1698  0.0043 -0.1040
  794POPS   C3A12015  11.638   5.414   6.806 -0.1510 -0.0675 -0.0878
  794POPS   C4A12016  11.769   5.684   7.108 -0.1429 -0.0324 -0.2230
  794POPS   C1B12017  11.672   4.492   6.556  0.0373 -0.2072 -0.0830
  794POPS   C2B12018  11.584   4.648   6.910 -0.0453 -0.1896 -0.3450
  794POPS   C3B12019  11.743   4.946   7.157 -0.0386 -0.1259 -0.0988
  794POPS   C4B12020  12.061   5.237   7.077 -0.1155 -0.1076  0.2347
  795POPS   CNO12021  15.819   3.906   6.089 -0.2815  0.2140  0.1639
  795POPS   PO412022  15.659   4.402   6.120  0.0712 -0.2313  0.3336
  795POPS   GL112023  15.610   4.489   6.584  0.1789  0.0033  0.3822
  795POPS   GL212024  15.595   4.757   6.609 -0.1495 -0.0136  0.1867
  795POPS   C1A12025  15.889   4.560   6.996  0.0891  0.0828  0.1320
  795POPS   D2A12026  15.797   4.507   7.446 -0.0159 -0.2492 -0.1840
  795POPS   C3A12027  15.499   4.441   7.826  0.2860 -0.0035 -0.0442
  795POPS   C4A12028  15.131   4.547   8.019 -0.1245  0.0704  0.2113
  795POPS   C1B12029  15.380   4.724   6.979 -0.1893  0.0141  0.3254
  795POPS   C2B12030  15.352   4.693   7.394 -0.0667  0.0965 -0.2670
  795POPS   C3B12031  15.122   4.881   7.599  0.1550 -0.1309  0.0856
  795POPS   C4B12032  14.785   4.811   7.757  0.1890 -0.0461  0.1612
  796POPS   CNO12033  12.174   5.302   5.876 -0.2233  0.0583  0.3340
  796POPS   PO412034  12.465   4.949   5.646  0.1286  0.0422  0.0530
  796POPS   GL112035  12.463   5.014   6.117 -0.0648 -0.2385 -0.4582
  796POPS   GL212036  12.434   4.719   6.220 -0.1122  0.0751  0.1998
  796POPS   C1A12037  12.611   5.135   6.535  0.4212 -0.1417  0.1665
  796POPS   D2A12038  12.601   5.312   6.823  0.0734  0.3556 -0.1819
  796POPS   C3A12039  12.489   5.048   7.166 -0.0933 -0.1560 -0.1406
  796POPS   C4A12040  12.133   4.795   7.403 -0.0548  0.1490 -0.3227
  796POPS   C1B12041  12.564   4.658   6.614 -0.1450  0.0461 -0.0436
  796POPS   C2B12042  12.520   4.591   7.046 -0.3525 -0.0277 -0.4684
  796POPS   C3B12043  12.674   4.640   7.476 -0.1156 -0.1944 -0.0876
  796POPS   C4B12044  12.512   4.641   7.972  0.1843 -0.2316  0.1475
  797POPS   CNO12045  10.859   7.802   5.704  0.4906  0.0664  0.0994
  797POPS   PO412046  10.524   7.401   5.880  0.0086  0.1114  0.1634
  797POPS   GL112047  10.595   7.324   6.332 -0.0601 -0.0900  0.0603
  797POPS   GL212048  10.913   7.286   6.469  0.1672 -0.4879  0.2023
  797POPS   C1A12049  10.477   7.119   6.692 -0.0296  0.0252 -0.1017
  797POPS   D2A12050  10.399   6.968   7.088  0.1592  0.0140  0.0227
  797POPS   C3A12051  10.544   7.013   7.486  0.0397 -0.2215 -0.1652
  797POPS   C4A12052  10.789   6.781   7.679  0.1089 -0.1946 -0.3086
  797POPS   C1B12053  10.980   7.286   6.892  0.1582  0.0872 -0.0559
  797POPS   C2B12054  10.925   7.337   7.333 -0.3242 -0.3552 -0.2685
  797POPS   C3B12055  10.664   7.465   7.656  0.0641  0.0864 -0.2093
  797POPS   C4B12056  10.875   7.160   8.089 -0.2229 -0.3460 -0.3891
  798POPS   CNO12057   0.443  10.149   6.165  0.0950 -0.1046  0.1230
  798POPS   PO412058   0.601   9.911   6.451  0.1778 -0.1997  0.1942
  798POPS   GL112059   0.885   9.999   6.819 -0.1766  0.4917 -0.0019
  798POPS   GL212060   1.199   9.841   6.930 -0.3004 -0.0800 -0.0199
  798POPS   C1A12061   0.870   9.713   7.245  0.0299 -0.4970 -0.0475
  798POPS   D2A12062   0.638   9.701   7.641  0.3222 -0.0656 -0.2408
  798POPS   C3A12063   0.805   9.716   8.026  0.1431 -0.1509 -0.0543
  798POPS   C4A12064   0.837   9.330   8.223  0.1785  0.2861 -0.4533
  798POPS   C1B12065   1.169  10.136   7.222 -0.0556  0.4426  0.0971
  798POPS   C2B12066   1.270  10.417   7.485 -0.0938  0.3862  0.1683
  798POPS   C3B12067   1.390  10.442   7.900 -0.0828 -0.0510 -0.1451
  798POPS   C4B12068   1.393  10.124   8.321 -0.0562  0.2783 -0.1595
  799POPS   CNO12069  14.281  17.320   6.106 -0.1006 -0.0454 -0.0342
  799POPS   PO412070  14.089  17.744   6.132 -0.3248 -0.3625  0.4881
  799POPS   GL112071  14.053  17.915   6.514  0.3238 -0.0181  0.0730
  799POPS   GL212072  14.241  18.084   6.708 -0.0734 -0.2341 -0.1059
  799POPS   C1A12073  13.868  17.821   6.962  0.0302 -0.0156 -0.0668
  799POPS   D2A12074  13.873  17.814   7.430 -0.2466 -0.0293 -0.0611
  799POPS   C3A12075  14.100  17.690   7.869 -0.0525 -0.1365  0.1508
  799POPS   C4A12076  14.079  17.573   8.294 -0.2165 -0.0430 -0.2968
  799POPS   C1B12077  14.276  18.093   7.145  0.4174 -0.0322 -0.0796
  799POPS   C2B12078  14.375  18.059   7.584 -0.1919  0.0020  0.0930
  799POPS   C3B12079  14.415  18.040   8.054 -0.0321  0.0135  0.0538
  799POPS   C4B12080  14.527  17.801   8.397 -0.1963 -0.0900  0.0125
  800POPS   CNO12081   1.424  17.520   5.939  0.0063 -0.0812  0.0910
  800POPS   PO412082   1.473  17.908   5.664  0.0674 -0.1972 -0.1215
  800POPS   GL112083   1.463  17.972   6.137  0.0072  0.1098 -0.0208
  800POPS   GL212084   1.761  17.891   6.180  0.1627  0.0080  0.1012
  800POPS   C1A12085   1.445  18.203   6.515  0.1060 -0.0020  0.0260
  800POPS   D2A12086   1.116  18.326   6.845 -0.0601  0.1155  0.0363
  800POPS   C3A12087   0.949  18.052   7.047 -0.0472  0.2625 -0.1146
  800POPS   C4A12088   0.871  17.943   7.527  0.0669  0.1251  0.0132
  800POPS   C1B12089   1.782  17.824   6.644  0.3371  0.0083 -0.0138
  800POPS   C2B12090   1.989  17.895   7.100  0.2576  0.1880  0.1367
  800POPS   C3B12091   2.127  17.879   7.486  0.0345  0.1252  0.3176
  800POPS   C4B12092   2.212  17.885   7.934 -0.1398  0.2078 -0.0341
  801POPS   CNO12093  17.772   7.917   5.762  0.2413  0.0155 -0.0034
  801POPS   PO412094  18.111   7.706   6.037 -0.0695  0.2559  0.1106
  801POPS   GL112095  18.113   7.710   6.433 -0.3983  0.3920 -0.1556
  801POPS   GL212096  17.874   7.615   6.538  0.0045  0.0011  0.3408
  801POPS   C1A12097  18.386   7.730   6.836 -0.1415 -0.0691  0.3650
  801POPS   D2A12098  18.483   7.741   7.282 -0.0457  0.3263 -0.2326
  801POPS   C3A12099  18.318   7.799   7.767 -0.1897  0.2472 -0.2004
  801POPS   C4A12100  18.252   7.855   8.123  0.2100 -0.2483  0.1790
  801POPS   C1B12101  17.872   7.447   6.817  0.0119  0.3138  0.0745
  801POPS   C2B12102  17.871   7.516   7.173 -0.1393 -0.0756  0.0026
  801POPS   C3B12103  18.100   7.421   7.415 -0.1441  0.2949  0.3363
  801POPS   C4B12104  18.307   7.214   7.829 -0.0527  0.0247 -0.1839
  802POPS   CNO12105   3.424  11.764   6.167 -0.1335 -0.3602  0.0760
  802POPS   PO412106   3.667  12.110   6.305  0.0640 -0.0685 -0.0075
  802POPS   GL112107   3.450  12.184   6.654 -0.1828  0.1893 -0.0035
  802POPS   GL212108   3.631  12.417   6.839  0.0014 -0.1242  0.4284
  802POPS   C1A12109   3.413  12.147   7.155 -0.1532 -0.2299  0.1664
  802POPS   D2A12110   3.242  12.254   7.607 -0.1471 -0.2062 -0.3560
  802POPS   C3A12111   3.482  12.324   8.017 -0.1488  0.2408 -0.2741
  802POPS   C4A12112   3.872  12.156   8.302 -0.1461  0.4188  0.3274
  802POPS   C1B12113   3.391  12.692   6.782 -0.0036 -0.0668 -0.1453
  802POPS   C2B12114   3.434  13.122   6.859 -0.0669  0.0255  0.1098
  802POPS   C3B12115   3.471  13.159   7.285  0.1061 -0.2968 -0.2114
  802POPS   C4B12116   3.649  13.447   7.518  0.2834  0.0013 -0.2111
  803POPS   CNO12117  10.583  14.135   5.926 -0.3881  0.0779 -0.0027
  803POPS   PO412118  10.362  14.241   6.239 -0.0003  0.1332  0.1535
  803POPS   GL112119  10.522  14.313   6.695 -0.0114 -0.5142 -0.1826
  803POPS   GL212120  10.833  14.508   6.680 -0.0859 -0.1347 -0.0424
  803POPS   C1A12121  10.275  14.203   7.042 -0.1161  0.4036  0.0304
  803POPS   D2A12122  10.159  14.308   7.437  0.0955 -0.1454  0.2161
  803POPS   C3A12123   9.889  14.064   7.658  0.1408 -0.3551  0.1147
  803POPS   C4A12124   9.678  13.608   7.632  0.0032 -0.3096  0.1856
  803POPS   C1B12125  10.648  14.732   7.014  0.5000 -0.1186  0.1608
  803POPS   C2B12126  10.541  14.640   7.366 -0.0723  0.2903  0.2978
  803POPS   C3B12127  10.504  14.633   7.740  0.0116  0.1545 -0.1395
  803POPS   C4B12128  10.802  14.812   7.997  0.1243  0.1008 -0.2244
  804POPS   CNO12129  14.410  15.024   5.786  0.1561  0.2328 -0.1328
  804POPS   PO412130  14.306  14.779   6.194  0.3274 -0.0532 -0.0236
  804POPS   GL112131  14.546  14.611   6.613 -0.1652 -0.0193  0.2753
  804POPS   GL212132  14.509  14.301   6.710 -0.2939 -0.3164 -0.1790
  804POPS   C1A12133  14.788  14.688   7.042  0.1949  0.1424  0.1047
  804POPS   D2A12134  15.164  14.627   7.235 -0.0218 -0.2300 -0.0980
  804POPS   C3A12135  15.320  14.430   7.602  0.2642  0.0602 -0.5092
  804POPS   C4A12136  15.193  14.119   8.000  0.2416  0.0684  0.0097
  804POPS   C1B12137  14.382  14.090   7.080 -0.2803  0.1232 -0.0458
  804POPS   C2B12138  14.119  14.055   7.501 -0.0689  0.3261 -0.1104
  804POPS   C3B12139  14.162  14.301   7.869  0.0748  0.0678 -0.0137
  804POPS   C4B12140  14.129  14.234   8.205 -0.1005 -0.0276 -0.1088
  805POPS   CNO12141  16.219  12.673   6.311 -0.2061  0.0527  0.1187
  805POPS   PO412142  15.984  12.888   6.657  0.1244 -0.0317  0.3353
  805POPS   GL112143  15.874  13.031   7.022 -0.1585  0.2512  0.0881
  805POPS   GL212144  15.785  13.355   7.134  0.1653  0.2851  0.1690
  805POPS   C1A12145  15.841  12.938   7.483 -0.2108 -0.3542  0.2709
  805POPS   D2A12146  15.883  12.868   7.875 -0.5301  0.0382  0.1001
  805POPS   C3A12147  15.651  12.844   8.252  0.0915 -0.1495 -0.3815
  805POPS   C4A12148  15.548  13.280   8.511 -0.1598  0.0043  0.0914
  805POPS   C1B12149  15.744  13.443   7.616  0.0730 -0.0716 -0.1880
  805POPS   C2B12150  15.802  13.440   8.011  0.0645  0.4479 -0.3970
  805POPS   C3B12151  15.747  13.741   8.277  0.1243  0.1850 -0.1070
  805POPS   C4B12152  15.984  13.970   8.537  0.0492 -0.1234  0.0298
  806YOPS   CNO12153   3.386  16.905   5.495  0.1620 -0.1038 -0.1193
  806YOPS   PO412154   3.455  16.955   5.982  0.0717 -0.1578 -0.1685
  806YOPS   GL112155   3.598  16.863   6.373 -0.2622  0.3032 -0.1497
  806YOPS   GL212156   3.851  16.864   6.445 -0.1819 -0.4329  0.1985
  806YOPS   C1A12157   3.607  16.923   6.863  0.2765 -0.4040  0.1851
  806YOPS   D2A12158   3.584  16.853   7.263  0.1369  0.1127 -0.3444
  806YOPS   C3A12159   3.668  17.134   7.595  0.1438 -0.2119 -0.2062
  806YOPS   C4A12160   3.533  17.210   8.010 -0.0289 -0.2429  0.1427
  806YOPS   C1B12161   4.057  16.945   6.789 -0.4594 -0.3204  0.1791
  806YOPS   C2B12162   4.069  16.807   7.202 -0.1300  0.1469  0.0102
  806YOPS   D3B12163   4.089  16.789   7.646 -0.0845 -0.1492 -0.0014
  806YOPS   C4B12164   3.856  16.771   8.076 -0.0085 -0.0972 -0.0411
  807YOPS   CNO12165   9.437   1.066   5.724 -0.1232 -0.2072  0.0050
  807YOPS   PO412166   9.725   0.845   6.075 -0.0496  0.2530  0.0047
  807YOPS   GL112167   9.571   0.832   6.554 -0.1395  0.0969 -0.0630
  807YOPS   GL212168   9.572   0.536   6.757 -0.2697  0.2136 -0.1186
  807YOPS   C1A12169   9.861   0.933   6.882  0.0699  0.1548  0.1526
  807YOPS   D2A12170   9.806   1.084   7.344  0.0163  0.0536 -0.0036
  807YOPS   C3A12171   9.701   1.059   7.737  0.3658 -0.0720 -0.3052
  807YOPS   C4A12172  10.067   1.032   7.984  0.1221  0.0535 -0.4587
  807YOPS   C1B12173   9.622   0.464   7.153 -0.1885 -0.0211 -0.2357
  807YOPS   C2B12174   9.760   0.634   7.486  0.3063  0.0884  0.2664
  807YOPS   D3B12175   9.606   0.573   7.930  0.0032 -0.0828  0.2467
  807YOPS   C4B12176   9.782   0.670   8.277 -0.2566 -0.1955  0.3625
  808YOPS   CNO12177  13.197   7.061   5.791  0.0732  0.0433 -0.1511
  808YOPS   PO412178  12.830   6.773   5.747 -0.1295  0.3549 -0.1777
  808YOPS   GL112179  12.954   6.739   6.112 -0.0241 -0.0884 -0.1242
  808YOPS   GL212180  12.741   6.846   6.325 -0.0578  0.1841 -0.1878
  808YOPS   C1A12181  13.237   6.695   6.537 -0.0549  0.0305 -0.3342
  808YOPS   D2A12182  13.238   6.751   7.000  0.1326 -0.0463  0.0026
  808YOPS   C3A12183  13.207   6.847   7.429 -0.0032  0.0020  0.0229
  808YOPS   C4A12184  13.422   6.551   7.717 -0.0189  0.2063 -0.2362
  808YOPS   C1B12185  12.795   6.937   6.754 -0.0417  0.1484 -0.1444
  808YOPS   C2B12186  12.786   7.023   7.121  0.0432  0.6371 -0.0222
  808YOPS   D3B12187  12.903   7.317   7.512  0.1692  0.0113  0.2757
  808YOPS   C4B12188  13.019   7.721   7.327 -0.0249 -0.0018  0.3294
  809YOPS   CNO12189  12.629  17.614   6.456  0.0731  0.0517  0.0797
  809YOPS   PO412190  12.311  17.483   6.236 -0.0073 -0.1051 -0.2336
  809YOPS   GL112191  12.182  17.521   6.693  0.1125  0.0211 -0.0284
  809YOPS   GL212192  12.201  17.850   6.640  0.2788 -0.1633  0.1176
  809YOPS   C1A12193  12.260  17.495   7.193 -0.2004 -0.1026 -0.1368
  809YOPS   D2A12194  12.285  17.471   7.607 -0.1646 -0.1425 -0.1087
  809YOPS   C3A12195  12.197  17.659   8.060  0.1163  0.0732  0.3018
  809YOPS   C4A12196  12.404  17.717   8.500  0.1214 -0.3243  0.0124
  809YOPS   C1B12197  12.004  17.856   7.019  0.3449 -0.1041 -0.0720
  809YOPS   C2B12198  11.946  18.008   7.351 -0.0672 -0.2206 -0.0308
  809YOPS   D3B12199  11.940  18.037   7.770  0.0918 -0.0588  0.1450
  809YOPS   C4B12200  11.649  18.345   7.912 -0.1001  0.1872  0.0730
  810YOPS   CNO12201  16.043  17.521   6.249 -0.0040 -0.0350  0.0379
  810YOPS   PO412202  15.687  17.238   6.138 -0.0189 -0.2740  0.0854
  810YOPS   GL112203  15.662  17.353   6.512 -0.3695  0.0653 -0.0047
  810YOPS   GL212204  15.856  17.273   6.672  0.1795  0.0668 -0.0032
  810YOPS   C1A12205  15.504  17.478   6.945 -0.1077  0.3156  0.0078
  810YOPS   D2A12206  15.520  17.518   7.445  0.1463  0.1638 -0.1988
  810YOPS   C3A12207  15.236  17.695   7.747 -0.3583 -0.0188  0.3319
  810YOPS   C4A12208  15.443  17.874   8.164  0.1824 -0.0561 -0.0611
  810YOPS   C1B12209  15.904  17.241   7.142  0.2157  0.0982  0.2272
  810YOPS   C2B12210  16.096  17.349   7.452  0.3603  0.0129 -0.1086
  810YOPS   D3B12211  16.070  17.395   7.906  0.0746  0.0442 -0.1624
  810YOPS   C4B12212  15.596  17.399   8.014  0.1764  0.0452 -0.0609
  811YOPS   CNO12213   1.975  15.836   6.106  0.2213  0.0797  0.1067
  811YOPS   PO412214   2.351  15.785   6.067 -0.1073  0.0833  0.0963
  811YOPS   GL112215   2.219  15.707   6.514  0.2091 -0.0034 -0.4269
  811YOPS   GL212216   2.518  15.633   6.597 -0.0911 -0.0390  0.0294
  811YOPS   C1A12217   2.084  15.562   6.857  0.0904 -0.2247 -0.0581
  811YOPS   D2A12218   2.091  15.424   7.288 -0.2322 -0.4545 -0.2135
  811YOPS   C3A12219   2.097  15.406   7.578  0.0775 -0.2661 -0.1195
  811YOPS   C4A12220   2.371  15.469   7.836 -0.0031 -0.0012 -0.0776
  811YOPS   C1B12221   2.493  15.753   7.045 -0.0123 -0.0131  0.1684
  811YOPS   C2B12222   2.626  15.765   7.559  0.0382  0.2066 -0.0162
  811YOPS   D3B12223   2.422  16.053   7.842  0.2081  0.0494 -0.3644
  811YOPS   C4B12224   2.096  15.923   7.929  0.0012  0.2850 -0.0744
  812YOPS   CNO12225   3.971   2.489   5.707 -0.0531  0.1498 -0.5500
  812YOPS   PO412226   3.598   2.500   5.770 -0.0089 -0.0608 -0.0480
  812YOPS   GL112227   3.609   2.520   6.243  0.0632 -0.2772 -0.0032
  812YOPS   GL212228   3.271   2.554   6.344  0.2084 -0.1177 -0.1049
  812YOPS   C1A12229   3.758   2.690   6.647 -0.3048 -0.0064 -0.0871
  812YOPS   D2A12230   3.540   2.993   6.975  0.0670 -0.0093  0.0504
  812YOPS   C3A12231   3.587   3.094   7.408  0.0865 -0.3935  0.1405
  812YOPS   C4A12232   3.951   3.027   7.633 -0.2681  0.0330 -0.2790
  812YOPS   C1B12233   3.216   2.585   6.795 -0.1887  0.4016 -0.1774
  812YOPS   C2B12234   3.440   2.516   7.171  0.0184  0.0135  0.4075
  812YOPS   D3B12235   3.685   2.577   7.597  0.0668  0.0185 -0.0730
  812YOPS   C4B12236   3.515   2.907   7.936 -0.1405 -0.1542  0.2239
  813YOPS   CNO12237  16.031  12.196   6.171  0.2749  0.1595  0.3091
  813YOPS   PO412238  16.401  11.855   6.191  0.0539  0.5743  0.2919
  813YOPS   GL112239  16.249  11.917   6.544 -0.2680 -0.1955 -0.0949
  813YOPS   GL212240  16.207  12.147   6.695  0.0525  0.1343 -0.1729
  813YOPS   C1A12241  16.246  11.628   6.905 -0.1111 -0.2333  0.2136
  813YOPS   D2A12242  16.381  11.556   7.272 -0.1939  0.2750  0.1573
  813YOPS   C3A12243  16.258  11.902   7.560  0.1529 -0.0734 -0.2023
  813YOPS   C4A12244  15.953  11.700   7.854  0.1606 -0.4885  0.0154
  813YOPS   C1B12245  16.319  12.181   7.102 -0.3298  0.4099  0.0177
  813YOPS   C2B12246  16.433  12.364   7.480 -0.0646  0.0088  0.0650
  813YOPS   D3B12247  16.429  12.265   7.824  0.0442 -0.0800 -0.2268
  813YOPS   C4B12248  16.167  12.133   8.138  0.1777  0.3497 -0.0602
  814YOPS   CNO12249  10.693  13.918   6.426 -0.3723 -0.1876  0.1171
  814YOPS   PO412250  11.035  14.051   6.614  0.0241 -0.0395  0.0609
  814YOPS   GL112251  10.845  14.030   6.943  0.3998  0.3266  0.0622
  814YOPS   GL212252  10.561  13.757   6.950  0.0613  0.4086  0.0765
  814YOPS   C1A12253  10.804  14.229   7.273 -0.2010  0.1229 -0.4217
  814YOPS   D2A12254  10.928  14.351   7.641  0.0841  0.3504 -0.0391
  814YOPS   C3A12255  10.911  14.290   8.094  0.3595  0.0797  0.1082
  814YOPS   C4A12256  10.763  14.501   8.480 -0.0279 -0.1282  0.1124
  814YOPS   C1B12257  10.535  13.757   7.314  0.1536  0.3702  0.1150
  814YOPS   C2B12258  10.525  14.073   7.682 -0.2665  0.1019 -0.1501
  814YOPS   D3B12259  10.253  14.126   7.990 -0.1652 -0.1476  0.3076
  814YOPS   C4B12260  10.337  14.387   8.239 -0.0395 -0.1212 -0.0471
  815YOPS   CNO12261   1.589  16.552   5.439 -0.1868  0.0668 -0.2299
  815YOPS   PO412262   1.821  16.638   5.847 -0.0400  0.0831  0.0261
  815YOPS   GL112263   2.061  16.710   6.271 -0.0849  0.0259 -0.0924
  815YOPS   GL212264   2.411  16.815   6.222 -0.1775  0.1796  0.1033
  815YOPS   C1A12265   2.109  16.740   6.638  0.3604  0.0455  0.2783
  815YOPS   D2A12266   2.014  16.473   7.009 -0.0826 -0.0393  0.0234
  815YOPS   C3A12267   2.025  16.079   7.022  0.0390 -0.2091  0.1044
  815YOPS   C4A12268   2.187  15.921   7.442 -0.2257 -0.0252 -0.0254
  815YOPS   C1B12269   2.599  16.924   6.633 -0.2190 -0.1449  0.0242
  815YOPS   C2B12270   2.701  17.188   7.046  0.0782 -0.1826  0.0145
  815YOPS   D3B12271   2.655  17.205   7.479  0.0979 -0.0286 -0.0997
  815YOPS   C4B12272   2.398  16.889   7.769 -0.1511 -0.1224  0.0904
  816YOPS   CNO12273  16.790   3.159   6.011 -0.1243 -0.0421 -0.1821
  816YOPS   PO412274  16.519   3.320   6.221 -0.1627  0.0409 -0.0475
  816YOPS   GL112275  16.636   3.564   6.548 -0.0870 -0.1861 -0.0094
  816YOPS   GL212276  16.519   3.889   6.722  0.1161  0.0807  0.1072
  816YOPS   C1A12277  16.877   3.479   6.950 -0.0085  0.1355  0.0570
  816YOPS   D2A12278  16.617   3.336   7.328  0.2167  0.1192  0.1747
  816YOPS   C3A12279  16.522   3.298   7.733  0.3687 -0.1610  0.0837
  816YOPS   C4A12280  16.750   3.515   8.021  0.0043 -0.1815 -0.0092
  816YOPS   C1B12281  16.528   3.842   7.133  0.1546 -0.0973 -0.3254
  816YOPS   C2B12282  16.748   3.805   7.534  0.1491  0.2143 -0.1196
  816YOPS   D3B12283  17.038   3.551   7.628 -0.2130 -0.1895 -0.2066
  816YOPS   C4B12284  17.430   3.663   7.377 -0.0494  0.0618 -0.2699
  817YOPS   CNO12285   9.051  10.615   6.117 -0.1790 -0.1051 -0.0056
  817YOPS   PO412286   9.360  10.411   6.366  0.1702  0.2024 -0.0717
  817YOPS   GL112287   9.530  10.383   6.797 -0.2208  0.0877 -0.0606
  817YOPS   GL212288   9.784  10.427   7.036  0.0797  0.0698 -0.0028
  817YOPS   C1A12289   9.406  10.132   7.075 -0.0689  0.0229 -0.0926
  817YOPS   D2A12290   9.311  10.106   7.561 -0.1035 -0.3051 -0.0362
  817YOPS   C3A12291   9.201  10.249   7.933  0.2849 -0.1558  0.1481
  817YOPS   C4A12292   8.798  10.271   8.297  0.0740 -0.1232 -0.2966
  817YOPS   C1B12293   9.669  10.491   7.395 -0.1193 -0.1568  0.0657
  817YOPS   C2B12294   9.713  10.449   7.805 -0.1824 -0.0667 -0.1353
  817YOPS   D3B12295   9.614  10.493   8.304 -0.3433  0.3924 -0.0321
  817YOPS   C4B12296   9.953  10.672   8.527 -0.1271  0.1401  0.1811
  818YOPS   CNO12297   4.216   9.717   6.297 -0.2406  0.1407  0.0489
  818YOPS   PO412298   4.208   9.259   6.411 -0.2522  0.0147 -0.0087
  818YOPS   GL112299   3.969   9.112   6.805 -0.3941  0.3440 -0.4967
  818YOPS   GL212300   4.193   9.150   7.101  0.1868  0.1166  0.0681
  818YOPS   C1A12301   3.685   8.983   7.078 -0.1006  0.0999 -0.4876
  818YOPS   D2A12302   3.493   9.046   7.489 -0.0910 -0.0441  0.1885
  818YOPS   C3A12303   3.153   8.922   7.678 -0.1061  0.2936 -0.1502
  818YOPS   C4A12304   3.057   9.008   8.079 -0.2454  0.4591 -0.1206
  818YOPS   C1B12305   3.987   9.102   7.568  0.0544  0.0284 -0.0859
  818YOPS   C2B12306   3.705   9.219   7.939  0.0983 -0.1464  0.1181
  818YOPS   D3B12307   3.658   9.573   8.242  0.2973 -0.1061 -0.2241
  818YOPS   C4B12308   3.559   9.550   8.708  0.1825  0.1468 -0.2687
  819YOPS   CNO12309   3.534   6.060   6.141  0.2678 -0.4086 -0.1784
  819YOPS   PO412310   3.654   6.443   6.307  0.1454  0.1580 -0.1777
  819YOPS   GL112311   3.700   6.616   6.765 -0.2799  0.2201  0.0063
  819YOPS   GL212312   3.415   6.673   6.927 -0.2763 -0.1887 -0.1630
  819YOPS   C1A12313   3.856   6.387   7.172  0.2220 -0.0715  0.2345
  819YOPS   D2A12314   3.943   6.253   7.607  0.1162  0.2586  0.1101
  819YOPS   C3A12315   3.915   6.220   7.972  0.4262  0.4747  0.2697
  819YOPS   C4A12316   3.811   6.077   8.427 -0.0308 -0.1178  0.0367
  819YOPS   C1B12317   3.483   6.660   7.410 -0.2047 -0.2603 -0.2228
  819YOPS   C2B12318   3.573   6.531   7.746 -0.0489 -0.1898  0.1781
  819YOPS   D3B12319   3.369   6.445   8.096 -0.0369 -0.1655 -0.0268
  819YOPS   C4B12320   3.649   6.587   8.479  0.0639 -0.2476  0.0404
  820YOPS   CNO12321   3.761   9.508   6.425  0.3660  0.1300  0.1170
  820YOPS   PO412322   3.382   9.805   6.509 -0.0744  0.2283 -0.1538
  820YOPS   GL112323   3.224   9.961   6.947  0.1017  0.3255  0.0254
  820YOPS   GL212324   3.226  10.299   7.157 -0.0192 -0.1680 -0.2534
  820YOPS   C1A12325   3.220   9.858   7.410 -0.0095 -0.1327 -0.0821
  820YOPS   D2A12326   3.050   9.583   7.618  0.1258  0.3116  0.3001
  820YOPS   C3A12327   3.259   9.394   7.880 -0.0970 -0.4024 -0.1993
  820YOPS   C4A12328   3.129   9.600   8.206  0.1495  0.1308 -0.1194
  820YOPS   C1B12329   3.145  10.328   7.566  0.0296  0.2113 -0.0704
  820YOPS   C2B12330   3.360  10.428   7.917 -0.3849 -0.0055 -0.0724
  820YOPS   D3B12331   3.278  10.588   8.362  0.5404 -0.2140  0.0938
  820YOPS   C4B12332   2.972  10.962   8.498  0.2874 -0.0307 -0.0756
  821YOPS   CNO12333   1.686   4.400   6.006  0.1732 -0.1053 -0.0237
  821YOPS   PO412334   1.421   4.621   6.259  0.3476  0.0022 -0.0746
  821YOPS   GL112335   1.704   4.477   6.525 -0.1539 -0.1786 -0.1513
  821YOPS   GL212336   1.979   4.180   6.572 -0.0077  0.0573 -0.0054
  821YOPS   C1A12337   1.644   4.414   6.985 -0.2988  0.1619  0.2523
  821YOPS   D2A12338   1.678   4.419   7.443  0.0314  0.1664 -0.1999
  821YOPS   C3A12339   1.746   4.473   7.928  0.0911 -0.0456  0.0895
  821YOPS   C4A12340   1.719   4.825   8.037  0.1001  0.0954  0.1689
  821YOPS   C1B12341   2.096   4.100   6.940  0.0665 -0.0605 -0.0396
  821YOPS   C2B12342   2.094   4.143   7.461  0.2231  0.0784 -0.1667
  821YOPS   D3B12343   2.016   4.086   8.024 -0.2398  0.0871 -0.2065
  821YOPS   C4B12344   2.286   3.988   8.313 -0.0964  0.1772 -0.1305
  822YOPS   CNO12345   5.187   8.136   5.692  0.0068 -0.0507  0.1259
  822YOPS   PO412346   5.418   8.280   6.069  0.4198 -0.1978 -0.2143
  822YOPS   GL112347   5.535   8.144   6.460 -0.1594 -0.0775 -0.3045
  822YOPS   GL212348   5.487   7.763   6.520  0.2590 -0.0153 -0.0240
  822YOPS   C1A12349   5.365   8.182   6.941  0.4190 -0.2154 -0.1406
  822YOPS   D2A12350   5.262   8.160   7.252  0.1752 -0.2887  0.0215
  822YOPS   C3A12351   5.480   8.310   7.668 -0.2672  0.1370  0.1954
  822YOPS   C4A12352   5.760   8.488   7.978  0.0037 -0.0611  0.0060
  822YOPS   C1B12353   5.546   7.436   6.774  0.2040 -0.0464 -0.0373
  822YOPS   C2B12354   5.945   7.386   7.070  0.1624  0.0372  0.0286
  822YOPS   D3B12355   5.839   7.351   7.489 -0.0253 -0.0376 -0.3616
  822YOPS   C4B12356   5.973   7.467   7.882  0.0337  0.4450  0.1319
  823YOPS   CNO12357   5.604  11.956   6.344 -0.0155 -0.0390  0.3842
  823YOPS   PO412358   5.841  11.528   6.318  0.3497  0.1060 -0.1944
  823YOPS   GL112359   5.732  11.434   6.592 -0.3369  0.0464  0.1262
  823YOPS   GL212360   6.068  11.168   6.606  0.3036 -0.0836 -0.0376
  823YOPS   C1A12361   5.751  11.380   7.086 -0.1209  0.2451 -0.0309
  823YOPS   D2A12362   5.960  11.297   7.384 -0.1625 -0.1471  0.1545
  823YOPS   C3A12363   6.161  10.963   7.481  0.2206 -0.2186  0.0685
  823YOPS   C4A12364   6.180  10.880   7.917  0.0952  0.1054  0.0241
  823YOPS   C1B12365   6.109  10.971   6.951  0.0031  0.0228  0.0413
  823YOPS   C2B12366   6.214  10.523   7.143  0.0805  0.1522 -0.0943
  823YOPS   D3B12367   6.157  10.437   7.594 -0.0106 -0.1065 -0.2265
  823YOPS   C4B12368   6.395  10.345   7.826  0.0223 -0.1701 -0.0357
  824YOPS   CNO12369  12.102   1.339   5.508 -0.1080  0.0809 -0.0976
  824YOPS   PO412370  11.904   1.299   5.825 -0.0802 -0.0216  0.1192
  824YOPS   GL112371  11.982   1.329   6.277 -0.2517  0.2634  0.0084
  824YOPS   GL212372  12.151   1.061   6.454 -0.0015  0.0422 -0.1952
  824YOPS   C1A12373  11.840   1.422   6.714 -0.2807 -0.0147  0.2366
  824YOPS   D2A12374  12.012   1.448   7.123  0.1650 -0.0437  0.0857
  824YOPS   C3A12375  12.098   1.548   7.507 -0.1265  0.0435  0.1891
  824YOPS   C4A12376  12.161   1.608   7.919  0.0516  0.0771  0.0150
  824YOPS   C1B12377  12.224   1.074   6.876 -0.1356  0.1411  0.1465
  824YOPS   C2B12378  12.284   1.051   7.336 -0.2104 -0.4804  0.2482
  824YOPS   D3B12379  12.425   1.245   7.610 -0.0239 -0.0832  0.2044
  824YOPS   C4B12380  12.277   1.161   8.051  0.0155  0.1431 -0.2028
  825YOPS   CNO12381   8.308  15.665   6.056  0.3400  0.2786 -0.2563
  825YOPS   PO412382   8.596  15.486   6.159 -0.1530  0.0357  0.0512
  825YOPS   GL112383   8.660  15.250   6.535  0.2508 -0.0698 -0.0878
  825YOPS   GL212384   8.890  15.546   6.671 -0.2827  0.2702  0.0805
  825YOPS   C1A12385   8.435  15.439   6.899 -0.0071  0.0857 -0.0433
  825YOPS   D2A12386   8.346  15.556   7.356  0.0934  0.0687 -0.1156
  825YOPS   C3A12387   8.200  15.635   7.828 -0.3832  0.2378  0.2537
  825YOPS   C4A12388   7.917  15.844   8.015  0.0474 -0.4486  0.1933
  825YOPS   C1B12389   8.836  15.674   7.099  0.1497  0.2388  0.0272
  825YOPS   C2B12390   8.886  15.843   7.469 -0.1561  0.0039  0.2015
  825YOPS   D3B12391   8.817  16.152   7.794  0.1100 -0.0785 -0.1081
  825YOPS   C4B12392   9.027  16.513   7.838 -0.2709  0.5117 -0.0565
  826YOPS   CNO12393   8.200   2.476   6.048 -0.4903  0.1189 -0.0018
  826YOPS   PO412394   8.443   2.301   6.317  0.0272  0.3839 -0.1205
  826YOPS   GL112395   8.202   2.029   6.513  0.0085  0.0244 -0.1839
  826YOPS   GL212396   7.944   2.031   6.450 -0.2223 -0.1179 -0.1491
  826YOPS   C1A12397   7.920   1.843   6.887 -0.3213  0.2491 -0.2565
  826YOPS   D2A12398   7.785   1.596   7.195 -0.3262 -0.1086  0.4365
  826YOPS   C3A12399   7.871   1.598   7.572 -0.0916  0.1924  0.1893
  826YOPS   C4A12400   7.603   1.250   7.669 -0.2002  0.1982 -0.3745
  826YOPS   C1B12401   7.693   2.226   6.703  0.1500  0.1270 -0.1385
  826YOPS   C2B12402   7.692   2.266   7.118 -0.0471 -0.0223  0.0194
  826YOPS   D3B12403   7.756   2.479   7.414  0.0773 -0.1773 -0.0187
  826YOPS   C4B12404   7.538   2.365   7.602  0.1966  0.0136 -0.0064
  827YOPS   CNO12405   0.664   6.016   5.887 -0.0183  0.0034  0.1453
  827YOPS   PO412406   0.265   5.844   5.986 -0.3494 -0.4161  0.0353
  827YOPS   GL112407   0.046   5.785   6.547  0.3350 -0.1865  0.0317
  827YOPS   GL212408  -0.039   5.427   6.622  0.0624 -0.1346  0.1848
  827YOPS   C1A12409   0.047   6.018   6.914  0.0382  0.2156  0.1264
  827YOPS   D2A12410  -0.324   5.953   7.225  0.0732  0.2641  0.3462
  827YOPS   C3A12411  -0.712   5.966   7.428  0.3554  0.0213  0.0642
  827YOPS   C4A12412  -0.999   6.210   7.781 -0.0603  0.0370  0.6058
  827YOPS   C1B12413  -0.379   5.521   6.934 -0.1823  0.0121  0.0829
  827YOPS   C2B12414  -0.471   5.469   7.346 -0.1594 -0.1103  0.1139
  827YOPS   D3B12415  -0.580   5.332   7.716  0.1361  0.2222  0.0007
  827YOPS   C4B12416  -0.594   4.947   7.847 -0.0406  0.0941  0.0388
  828YOPS   CNO12417   8.080   9.755   5.411 -0.0442  0.2095 -0.1951
  828YOPS   PO412418   8.130   9.838   5.886  0.0234 -0.2850 -0.3133
  828YOPS   GL112419   8.236   9.958   6.343  0.1146  0.1023  0.1937
  828YOPS   GL212420   8.263  10.263   6.433  0.1037 -0.1595  0.2751
  828YOPS   C1A12421   8.170   9.907   6.811 -0.3670 -0.0466 -0.1511
  828YOPS   D2A12422   8.235   9.683   7.040  0.1450  0.1704  0.0391
  828YOPS   C3A12423   8.407   9.787   7.452 -0.2289 -0.0238 -0.2353
  828YOPS   C4A12424   8.558  10.231   7.567 -0.1873 -0.2392  0.1560
  828YOPS   C1B12425   8.513  10.368   6.755 -0.2609  0.1851 -0.0265
  828YOPS   C2B12426   8.741  10.431   7.169  0.0764 -0.0366  0.0588
  828YOPS   D3B12427   8.726  10.839   7.291 -0.1650 -0.0575 -0.0457
  828YOPS   C4B12428   8.815  11.117   6.865 -0.2719 -0.0071 -0.0078
  829YOPS   CNO12429   3.235   8.367   6.018 -0.1847  0.2487  0.0239
  829YOPS   PO412430   3.291   7.939   6.278  0.0119  0.0087 -0.0772
  829YOPS   GL112431   3.627   7.906   6.703 -0.0352  0.3859  0.1347
  829YOPS   GL212432   3.861   8.158   6.768  0.1844 -0.2170  0.2130
  829YOPS   C1A12433   3.510   7.719   6.997 -0.0893 -0.3000  0.0128
  829YOPS   D2A12434   3.237   7.536   7.263 -0.1874 -0.3144  0.3092
  829YOPS   C3A12435   3.133   7.523   7.660  0.0347  0.1783  0.1900
  829YOPS   C4A12436   3.473   7.430   7.965 -0.1012 -0.2397  0.2344
  829YOPS   C1B12437   3.787   8.098   7.210  0.0029 -0.0709 -0.1616
  829YOPS   C2B12438   3.776   8.183   7.577 -0.1192  0.2332 -0.1086
  829YOPS   D3B12439   3.815   8.288   8.074  0.2766  0.1072 -0.0782
  829YOPS   C4B12440   3.537   8.411   8.458 -0.0223 -0.1807  0.2993
  830YOPS   CNO12441   4.649   2.114   5.495 -0.0072 -0.0534 -0.0006
  830YOPS   PO412442   4.998   1.955   5.695  0.0537  0.1315  0.4452
  830YOPS   GL112443   5.117   2.294   6.040 -0.2033 -0.0370  0.0257
  830YOPS   GL212444   4.926   2.675   6.140  0.4692 -0.0939  0.2414
  830YOPS   C1A12445   5.308   2.484   6.395  0.1470 -0.1028  0.0025
  830YOPS   D2A12446   5.389   2.568   6.920  0.0415 -0.0944  0.4011
  830YOPS   C3A12447   5.597   2.497   7.291 -0.3200 -0.1025 -0.2829
  830YOPS   C4A12448   5.283   2.280   7.420 -0.0607  0.2483 -0.0258
  830YOPS   C1B12449   4.855   2.747   6.612  0.2717  0.1561 -0.2142
  830YOPS   C2B12450   5.033   3.015   6.941 -0.1840 -0.2798 -0.0058
  830YOPS   D3B12451   5.329   3.031   7.365  0.2143  0.2821 -0.2276
  830YOPS   C4B12452   5.356   2.775   7.694 -0.0452 -0.1155  0.3158
  831YOPS   CNO12453  10.999  15.243   5.859  0.2702  0.0297  0.0709
  831YOPS   PO412454  11.074  15.723   6.106 -0.1168  0.2084  0.4097
  831YOPS   GL112455  11.127  15.614   6.600  0.1790 -0.0024  0.1267
  831YOPS   GL212456  10.926  15.423   6.720 -0.1998 -0.2589 -0.1312
  831YOPS   C1A12457  11.162  15.748   7.105 -0.0173 -0.1546  0.0082
  831YOPS   D2A12458  11.132  15.556   7.435 -0.4546  0.1476  0.1933
  831YOPS   C3A12459  11.349  15.591   7.816  0.1341  0.0035  0.0572
  831YOPS   C4A12460  11.177  15.529   8.204  0.1115  0.0350  0.1903
  831YOPS   C1B12461  10.899  15.208   7.048 -0.0447  0.0233 -0.2376
  831YOPS   C2B12462  10.934  14.984   7.406 -0.0727  0.0816  0.0564
  831YOPS   D3B12463  11.063  15.166   7.848 -0.2109 -0.3504  0.2760
  831YOPS   C4B12464  10.760  15.304   8.169  0.0650  0.2604  0.0259
  832YOPS   CNO12465  11.304  12.854   5.841 -0.1012  0.0392  0.0083
  832YOPS   PO412466  11.576  12.850   6.197 -0.0107  0.2256 -0.0255
  832YOPS   GL112467  11.442  12.779   6.701 -0.2263 -0.1704 -0.1301
  832YOPS   GL212468  11.638  12.986   6.919 -0.1509 -0.1413  0.1207
  832YOPS   C1A12469  11.223  12.613   7.027 -0.0002  0.0140 -0.0319
  832YOPS   D2A12470  11.016  12.350   7.354 -0.1013 -0.1610  0.0112
  832YOPS   C3A12471  10.967  12.389   7.746  0.2996 -0.0054  0.0608
  832YOPS   C4A12472  11.132  12.821   7.744  0.0322  0.0392 -0.0319
  832YOPS   C1B12473  11.571  12.838   7.415 -0.0905 -0.1551 -0.0880
  832YOPS   C2B12474  11.844  12.599   7.822  0.2491  0.1794 -0.0779
  832YOPS   D3B12475  12.257  12.528   8.033 -0.1031 -0.2676  0.3052
  832YOPS   C4B12476  12.050  12.473   8.477 -0.1000 -0.2402  0.2037
  833YOPS   CNO12477   2.168  12.065   5.611  0.2921 -0.0590  0.2451
  833YOPS   PO412478   2.325  12.193   5.885 -0.0397 -0.1850 -0.1811
  833YOPS   GL112479   2.193  12.174   6.287 -0.0651 -0.0291  0.0549
  833YOPS   GL212480   2.322  12.382   6.526  0.0928  0.1791 -0.1493
  833YOPS   C1A12481   1.808  12.070   6.560  0.2390  0.1160  0.2916
  833YOPS   D2A12482   1.659  12.210   7.017  0.2393 -0.0064  0.0093
  833YOPS   C3A12483   1.633  12.400   7.403  0.0216 -0.2172  0.1946
  833YOPS   C4A12484   1.581  12.628   7.815 -0.1101 -0.1377  0.1452
  833YOPS   C1B12485   2.214  12.287   6.958 -0.2896  0.1222 -0.2487
  833YOPS   C2B12486   2.149  12.263   7.298  0.2979 -0.0779  0.0400
  833YOPS   D3B12487   2.007  12.463   7.709  0.1096 -0.0565 -0.0478
  833YOPS   C4B12488   1.946  12.308   8.088  0.0881  0.2136 -0.1104
  834YOPS   CNO12489  13.594  16.511   6.613 -0.1330 -0.0030  0.0501
  834YOPS   PO412490  14.028  16.586   6.553 -0.4667 -0.1409  0.2633
  834YOPS   GL112491  13.934  16.667   6.906 -0.0330 -0.0973 -0.1252
  834YOPS   GL212492  13.644  16.811   7.039 -0.1593 -0.3427  0.0260
  834YOPS   C1A12493  13.668  16.325   7.153  0.0158 -0.1312 -0.1706
  834YOPS   D2A12494  13.324  16.088   7.295 -0.4251  0.1292 -0.4455
  834YOPS   C3A12495  12.976  16.074   7.623  0.1182  0.3792 -0.2788
  834YOPS   C4A12496  12.662  15.709   7.606  0.0010  0.0970 -0.0520
  834YOPS   C1B12497  13.785  16.782   7.406 -0.3149 -0.1422  0.2019
  834YOPS   C2B12498  13.690  16.836   7.816 -0.1036 -0.5358  0.1302
  834YOPS   D3B12499  13.927  16.721   8.188 -0.2521 -0.1317  0.2039
  834YOPS   C4B12500  13.776  16.935   8.519 -0.1018 -0.0274 -0.2898
  835POPE   NH312501   6.938   3.782   6.349 -0.0401 -0.0972 -0.0358
  835POPE   PO412502   7.096   3.337   6.103 -0.0393  0.0221  0.2200
  835POPE   GL112503   7.100   3.286   6.495  0.0824  0.0080 -0.2512
  835POPE   GL212504   6.885   3.247   6.591  0.3130 -0.1532  0.0752
  835POPE   C1A12505   7.425   3.069   6.751  0.1539  0.1096 -0.0058
  835POPE   D2A12506   7.565   2.870   7.133  0.0233 -0.0572  0.2900
  835POPE   C3A12507   7.420   2.930   7.576  0.1997  0.2149 -0.0604
  835POPE   C4A12508   7.076   3.019   7.851  0.0415 -0.3966  0.0280
  835POPE   C1B12509   6.771   3.286   6.974 -0.0909  0.0616 -0.0099
  835POPE   C2B12510   6.821   3.315   7.455  0.3363  0.0358  0.0738
  835POPE   C3B12511   7.094   3.569   7.697  0.0773 -0.0411 -0.5252
  835POPE   C4B12512   7.178   3.420   8.120 -0.0218  0.2120 -0.0064
  836POPE   NH312513   0.885  11.748   5.994 -0.0268 -0.0044 -0.3378
  836POPE   PO412514   0.733  11.568   6.452 -0.0918  0.0358  0.2361
  836POPE   GL112515   0.725  11.464   6.866 -0.2212 -0.2409  0.2948
  836POPE   GL212516   0.398  11.430   6.900 -0.0141  0.1192  0.2775
  836POPE   C1A12517   0.892  11.628   7.211 -0.0620 -0.0694  0.1078
  836POPE   D2A12518   0.784  11.858   7.560 -0.1227  0.1111 -0.0270
  836POPE   C3A12519   0.968  11.926   7.956 -0.3042 -0.0718  0.4742
  836POPE   C4A12520   1.218  11.863   8.326 -0.0762 -0.0656  0.0860
  836POPE   C1B12521   0.489  11.480   7.450 -0.1038  0.1072  0.1134
  836POPE   C2B12522   0.386  11.563   7.946  0.1251 -0.0075 -0.0041
  836POPE   C3B12523   0.134  11.734   8.185  0.0638  0.0170  0.1950
  836POPE   C4B12524  -0.041  11.940   7.867 -0.4107 -0.0613  0.0940
  837POPE   NH312525   6.198  12.089   6.218  0.0324 -0.1410  0.1660
  837POPE   PO412526   6.323  12.423   6.479  0.0668 -0.0339  0.1478
  837POPE   GL112527   6.644  12.538   6.752  0.1466  0.0207  0.0967
  837POPE   GL212528   6.858  12.479   6.668  0.1462  0.2676  0.2812
  837POPE   C1A12529   6.732  12.596   7.185 -0.0065 -0.3836 -0.0244
  837POPE   D2A12530   6.918  12.540   7.553 -0.1930 -0.2285  0.1686
  837POPE   C3A12531   6.885  12.419   7.944 -0.1729  0.1008  0.0365
  837POPE   C4A12532   6.708  12.162   8.192 -0.1129  0.2060 -0.2634
  837POPE   C1B12533   7.010  12.255   7.027 -0.1008 -0.2928  0.1876
  837POPE   C2B12534   7.283  12.157   7.385 -0.0687 -0.2380  0.1157
  837POPE   C3B12535   7.337  12.381   7.727  0.0910  0.2603  0.2332
  837POPE   C4B12536   7.386  12.372   8.078  0.2369 -0.0072 -0.0923
  838POPE   NH312537   3.433  10.291   6.630  0.0702  0.1880  0.3000
  838POPE   PO412538   3.167  10.467   6.270 -0.0023 -0.0307  0.1105
  838POPE   GL112539   2.953  10.705   6.485  0.0309 -0.2317  0.0872
  838POPE   GL212540   3.265  10.803   6.663  0.0242 -0.1282  0.1120
  838POPE   C1A12541   2.694  10.787   6.842  0.0018  0.1176 -0.4094
  838POPE   D2A12542   2.340  10.881   7.056  0.0080 -0.2482  0.1599
  838POPE   C3A12543   2.235  10.849   7.396 -0.0075 -0.3628  0.1477
  838POPE   C4A12544   2.285  10.982   7.806  0.0753  0.1303  0.2365
  838POPE   C1B12545   3.146  10.857   7.103 -0.0134  0.3407 -0.3498
  838POPE   C2B12546   3.227  10.829   7.499 -0.1752 -0.3127  0.1086
  838POPE   C3B12547   3.037  10.867   7.954 -0.1017  0.0035  0.4679
  838POPE   C4B12548   2.642  10.905   8.136  0.0434 -0.2369  0.2671
  839POPE   NH312549   6.052   5.159   6.120  0.2251 -0.3913  0.0284
  839POPE   PO412550   5.982   5.544   6.328  0.2535 -0.1527 -0.1684
  839POPE   GL112551   6.351   5.371   6.490  0.0742  0.0034 -0.0316
  839POPE   GL212552   6.411   5.178   6.740  0.2021 -0.0539  0.1171
  839POPE   C1A12553   6.631   5.620   6.739 -0.0454  0.2170 -0.0439
  839POPE   D2A12554   6.584   5.687   7.194  0.1710 -0.3612 -0.2681
  839POPE   C3A12555   6.617   6.155   7.234 -0.0031  0.0769 -0.1223
  839POPE   C4A12556   6.645   6.485   6.883 -0.2126 -0.1185 -0.0283
  839POPE   C1B12557   6.260   5.344   7.207  0.0828  0.1751 -0.1095
  839POPE   C2B12558   6.309   5.475   7.626 -0.0465 -0.4577  0.2923
  839POPE   C3B12559   6.269   5.538   8.039  0.1902 -0.2101 -0.1675
  839POPE   C4B12560   6.073   5.563   8.368 -0.0956 -0.0671  0.1086
  840POPE   NH312561   2.813  15.663   6.126 -0.0675  0.1397  0.2039
  840POPE   PO412562   3.146  16.107   6.077 -0.1974 -0.0000  0.0585
  840POPE   GL112563   3.259  16.290   6.528 -0.0266  0.0974  0.2026
  840POPE   GL212564   3.252  16.569   6.541  0.0532  0.0038  0.2743
  840POPE   C1A12565   3.396  16.451   7.024  0.0237 -0.0876 -0.0899
  840POPE   D2A12566   3.312  16.450   7.438 -0.1024  0.2667 -0.0354
  840POPE   C3A12567   3.387  16.761   7.722  0.0690  0.2399  0.0039
  840POPE   C4A12568   3.274  16.770   8.113 -0.3968  0.2015 -0.4124
  840POPE   C1B12569   2.906  16.568   6.815 -0.3283  0.0752 -0.0942
  840POPE   C2B12570   2.685  16.702   7.030 -0.2734  0.1616  0.1357
  840POPE   C3B12571   2.344  16.888   7.157  0.0111  0.1730 -0.2714
  840POPE   C4B12572   1.898  17.020   6.965 -0.0375 -0.1253  0.2380
  841POPE   NH312573   2.947  16.551   6.102  0.3097  0.3500 -0.2417
  841POPE   PO412574   2.605  16.523   5.848 -0.0085  0.0530 -0.2046
  841POPE   GL112575   2.584  16.352   6.357 -0.0009  0.3446 -0.2238
  841POPE   GL212576   2.638  16.072   6.371  0.2186  0.0559  0.2588
  841POPE   C1A12577   2.481  16.271   6.794  0.5083 -0.0447 -0.0430
  841POPE   D2A12578   2.521  16.311   7.226  0.1179 -0.1901 -0.1456
  841POPE   C3A12579   2.244  16.510   7.476 -0.2245 -0.2212  0.2014
  841POPE   C4A12580   1.921  16.675   7.885  0.0823  0.2249  0.3643
  841POPE   C1B12581   2.882  15.972   6.679  0.0581  0.3753 -0.1080
  841POPE   C2B12582   2.940  16.080   7.167 -0.2303  0.0695 -0.0039
  841POPE   C3B12583   2.982  16.101   7.629  0.0835  0.1223 -0.0767
  841POPE   C4B12584   3.265  16.269   7.989  0.0736  0.1473 -0.2225
  842POPE   NH312585  11.639   0.990   6.118  0.1609 -0.0288  0.0990
  842POPE   PO412586  11.092   1.029   5.936  0.2807 -0.1632  0.2190
  842POPE   GL112587  11.146   1.155   6.287  0.0504 -0.4768  0.1170
  842POPE   GL212588  11.395   1.287   6.474  0.0354 -0.2850  0.1365
  842POPE   C1A12589  10.992   1.137   6.699 -0.1651  0.0292  0.0894
  842POPE   D2A12590  10.786   1.278   7.001 -0.0825  0.1745  0.1610
  842POPE   C3A12591  10.481   1.500   6.864 -0.1129 -0.1217  0.0767
  842POPE   C4A12592  10.496   1.812   6.599 -0.2561 -0.2394 -0.3229
  842POPE   C1B12593  11.387   1.277   6.950  0.1704 -0.1696 -0.0606
  842POPE   C2B12594  11.200   1.313   7.351  0.1592  0.0991 -0.1445
  842POPE   C3B12595  11.133   1.341   7.778 -0.1474  0.0474  0.3873
  842POPE   C4B12596  11.325   1.357   8.159  0.2810 -0.1588  0.0431
  843POPE   NH312597   6.815   8.888   6.027 -0.0723  0.1870  0.1716
  843POPE   PO412598   6.924   8.661   6.396  0.1399 -0.1025 -0.1594
  843POPE   GL112599   6.719   8.580   6.744 -0.1087  0.0624 -0.0508
  843POPE   GL212600   6.350   8.645   6.721 -0.3053  0.0210 -0.1130
  843POPE   C1A12601   6.806   8.410   7.174  0.1514  0.0658  0.2009
  843POPE   D2A12602   7.051   8.399   7.482 -0.1999 -0.0843 -0.1333
  843POPE   C3A12603   6.971   8.655   7.683 -0.1132  0.1628 -0.1485
  843POPE   C4A12604   7.075   8.835   8.088  0.1988  0.0345 -0.1118
  843POPE   C1B12605   6.199   8.501   7.054  0.0097  0.0355  0.0613
  843POPE   C2B12606   6.073   8.390   7.494 -0.0207  0.2847 -0.1442
  843POPE   C3B12607   6.272   8.437   7.825  0.2002  0.3971  0.0339
  843POPE   C4B12608   6.511   8.732   7.961  0.0943  0.2331 -0.1254
  844POPE   NH312609   1.792   1.377   5.937 -0.0038  0.1406  0.2000
  844POPE   PO412610   1.620   1.786   5.932 -0.2263  0.1679  0.0531
  844POPE   GL112611   1.746   1.970   6.369 -0.0269 -0.2329 -0.1999
  844POPE   GL212612   1.626   2.301   6.486  0.0479 -0.0875 -0.2161
  844POPE   C1A12613   1.863   1.806   6.811  0.0758 -0.3056  0.1382
  844POPE   D2A12614   1.818   1.468   7.137 -0.0231 -0.1523 -0.1025
  844POPE   C3A12615   1.915   1.654   7.504 -0.1886 -0.0491  0.0577
  844POPE   C4A12616   2.056   1.779   7.922  0.0178 -0.1563 -0.3866
  844POPE   C1B12617   1.659   2.258   6.896  0.2753 -0.3387  0.0202
  844POPE   C2B12618   1.850   2.075   7.229  0.2876  0.0727  0.0484
  844POPE   C3B12619   1.945   2.143   7.602 -0.2511  0.2449 -0.0451
  844POPE   C4B12620   2.365   2.261   7.737  0.2427 -0.0812 -0.0353
  845POPE   NH312621  14.075  13.022   6.353 -0.2777  0.0419 -0.3249
  845POPE   PO412622  14.325  12.651   6.297  0.0033  0.2984 -0.0149
  845POPE   GL112623  14.525  12.537   6.683  0.2560  0.1733  0.0414
  845POPE   GL212624  14.819  12.362   6.818 -0.3659 -0.0834  0.0477
  845POPE   C1A12625  14.753  12.822   7.075 -0.4599 -0.0799  0.1341
  845POPE   D2A12626  14.875  13.009   7.461  0.2483  0.2312 -0.0856
  845POPE   C3A12627  14.682  13.329   7.542 -0.0606 -0.1231  0.0143
  845POPE   C4A12628  14.726  13.713   7.302 -0.1013 -0.1351  0.1305
  845POPE   C1B12629  15.124  12.493   7.080 -0.1653 -0.0034  0.1357
  845POPE   C2B12630  15.371  12.642   7.448 -0.3805  0.0155 -0.0190
  845POPE   C3B12631  15.378  12.994   7.627 -0.0466 -0.2670  0.3663
  845POPE   C4B12632  15.302  13.298   7.877  0.0922 -0.0263 -0.0845
  846POPE   NH312633   6.956  15.373   5.963  0.2838  0.0889  0.2788
  846POPE   PO412634   7.048  15.011   6.190  0.1943 -0.0250  0.1944
  846POPE   GL112635   6.906  14.930   6.580  0.0834 -0.0820 -0.0882
  846POPE   GL212636   6.615  15.194   6.794  0.0060  0.2008 -0.0184
  846POPE   C1A12637   6.963  14.857   7.045 -0.0119 -0.1247 -0.3187
  846POPE   D2A12638   6.963  14.873   7.497  0.2922 -0.1284  0.1238
  846POPE   C3A12639   7.463  14.955   7.607 -0.0817  0.1390 -0.0471
  846POPE   C4A12640   7.774  14.938   7.964  0.0233  0.0447 -0.0071
  846POPE   C1B12641   6.587  15.207   7.292  0.2332  0.2140  0.1632
  846POPE   C2B12642   6.617  15.255   7.735 -0.2224  0.1331 -0.1372
  846POPE   C3B12643   6.600  15.550   7.964  0.1151  0.1150  0.2394
  846POPE   C4B12644   6.724  15.870   8.327 -0.2003  0.0381 -0.1095
  847POPE   NH312645   7.922  13.732   6.642  0.0966 -0.2215 -0.0982
  847POPE   PO412646   8.127  14.153   6.529 -0.0669 -0.0978 -0.1659
  847POPE   GL112647   8.078  14.320   6.858  0.0496 -0.3772  0.1999
  847POPE   GL212648   7.893  14.574   6.700 -0.1486  0.0721 -0.1854
  847POPE   C1A12649   8.121  14.541   7.186 -0.1592  0.2430 -0.2503
  847POPE   D2A12650   7.912  14.649   7.566  0.0248  0.0556  0.1706
  847POPE   C3A12651   7.919  14.460   7.966 -0.1908  0.0492  0.1341
  847POPE   C4A12652   7.837  14.352   8.378  0.1602  0.0657  0.0979
  847POPE   C1B12653   7.707  14.809   7.008 -0.0978  0.1177 -0.1153
  847POPE   C2B12654   7.572  15.246   7.127 -0.1943 -0.0936  0.1520
  847POPE   C3B12655   7.648  15.479   7.335  0.0125  0.0175 -0.0253
  847POPE   C4B12656   7.868  15.820   7.459  0.0314  0.2574  0.1523
  848POPE   NH312657  13.897  14.858   5.982  0.1100  0.0719  0.1794
  848POPE   PO412658  13.599  15.117   6.132  0.0522 -0.0857 -0.1351
  848POPE   GL112659  13.550  15.124   6.541 -0.1376  0.1041  0.1447
  848POPE   GL212660  13.303  15.309   6.542  0.0613  0.1939 -0.2194
  848POPE   C1A12661  13.849  15.047   6.866 -0.1289  0.1022 -0.2326
  848POPE   D2A12662  13.702  14.801   7.227  0.2699 -0.1568  0.0470
  848POPE   C3A12663  13.932  14.503   7.334 -0.0256  0.2622 -0.1007
  848POPE   C4A12664  14.367  14.483   7.490 -0.0607 -0.0527 -0.1061
  848POPE   C1B12665  13.351  15.067   6.986 -0.1123  0.2097 -0.3055
  848POPE   C2B12666  13.105  14.914   7.347  0.3682 -0.0543 -0.0451
  848POPE   C3B12667  12.960  14.751   7.784  0.0502  0.2224 -0.2200
  848POPE   C4B12668  12.849  14.889   8.171 -0.0741 -0.0807  0.0770
  849POPE   NH312669   2.560  13.572   6.300  0.0754 -0.1723  0.3238
  849POPE   PO412670   2.209  13.891   6.234  0.3116  0.0911 -0.0355
  849POPE   GL112671   2.154  13.720   6.613 -0.2658 -0.0749 -0.2813
  849POPE   GL212672   2.085  13.916   6.784  0.0800  0.1895  0.0457
  849POPE   C1A12673   2.470  13.525   6.961 -0.1035 -0.0068 -0.1280
  849POPE   D2A12674   2.476  13.523   7.464 -0.1615 -0.1626  0.0357
  849POPE   C3A12675   2.719  13.563   7.768 -0.1840 -0.1192 -0.2463
  849POPE   C4A12676   2.569  13.624   8.213 -0.2161 -0.0319 -0.0993
  849POPE   C1B12677   2.090  13.978   7.280 -0.2640  0.0225  0.1601
  849POPE   C2B12678   2.194  13.992   7.669 -0.0695 -0.0626 -0.0968
  849POPE   C3B12679   2.141  14.137   8.037 -0.0324 -0.1022 -0.0204
  849POPE   C4B12680   1.897  13.881   8.334 -0.1429 -0.1851 -0.2471
  850POPE   NH312681  17.084   5.146   5.998  0.1380  0.0239  0.0365
  850POPE   PO412682  16.850   4.972   6.260  0.4046  0.0615 -0.0402
  850POPE   GL112683  16.747   4.827   6.607  0.0821 -0.1581 -0.0541
  850POPE   GL212684  16.583   5.038   6.719 -0.0981  0.0697 -0.0889
  850POPE   C1A12685  16.822   4.732   7.027  0.1047  0.2962 -0.1023
  850POPE   D2A12686  16.932   5.053   7.504 -0.0639  0.1190 -0.4237
  850POPE   C3A12687  16.833   5.141   7.944  0.2592 -0.0743 -0.0268
  850POPE   C4A12688  16.488   5.267   8.335 -0.2514 -0.3346 -0.0282
  850POPE   C1B12689  16.476   5.032   7.188  0.2300  0.1509  0.0579
  850POPE   C2B12690  16.437   5.185   7.589 -0.1560 -0.0713  0.1413
  850POPE   C3B12691  16.190   5.220   7.969 -0.1020  0.0248 -0.1326
  850POPE   C4B12692  15.872   5.177   8.324 -0.0535 -0.0121 -0.1355
  851POPE   NH312693   4.783  17.624   6.238 -0.4952  0.0920  0.4134
  851POPE   PO412694   4.369  17.571   6.226  0.0350 -0.2495  0.0303
  851POPE   GL112695   4.013  17.634   6.536  0.1337 -0.2108 -0.0142
  851POPE   GL212696   3.998  17.380   6.678 -0.4074 -0.0026 -0.4904
  851POPE   C1A12697   3.872  17.833   6.851  0.2567  0.0902 -0.0022
  851POPE   D2A12698   3.801  18.236   7.095 -0.0661  0.2817  0.2607
  851POPE   C3A12699   3.688  18.155   7.517 -0.0712  0.1865  0.1959
  851POPE   C4A12700   3.988  18.304   7.860  0.0297 -0.1541 -0.0625
  851POPE   C1B12701   3.820  17.326   7.096 -0.0799 -0.2069  0.2594
  851POPE   C2B12702   3.818  17.651   7.495  0.0891 -0.3036  0.1420
  851POPE   C3B12703   3.507  17.738   7.730  0.3673  0.2138  0.3570
  851POPE   C4B12704   3.237  17.619   8.062 -0.3300 -0.0149  0.2407
  852POPE   NH312705   6.691   2.974   6.170 -0.0913 -0.1330  0.1079
  852POPE   PO412706   6.317   2.707   6.262  0.1195 -0.0151  0.1925
  852POPE   GL112707   6.103   2.498   6.430 -0.0163  0.2068  0.0638
  852POPE   GL212708   6.233   2.218   6.525 -0.0143  0.0517 -0.0771
  852POPE   C1A12709   5.696   2.236   6.621  0.3915  0.2128 -0.0445
  852POPE   D2A12710   5.520   2.096   6.946 -0.1870 -0.2704 -0.1340
  852POPE   C3A12711   5.637   1.936   7.413 -0.2721  0.0200  0.4813
  852POPE   C4A12712   5.490   1.962   7.842  0.0787  0.1460 -0.0484
  852POPE   C1B12713   6.022   2.062   7.053 -0.0031 -0.1133 -0.0759
  852POPE   C2B12714   5.934   1.604   6.929  0.1026 -0.3022 -0.0942
  852POPE   C3B12715   5.663   1.449   7.253  0.0642 -0.2182  0.1196
  852POPE   C4B12716   5.405   1.455   7.685 -0.4056  0.1706  0.1149
  853POPE   NH312717   3.955   3.390   5.668  0.1032  0.1868 -0.0968
  853POPE   PO412718   4.211   3.057   5.929  0.0016 -0.1950 -0.0518
  853POPE   GL112719   4.208   3.165   6.334  0.1297  0.1126 -0.3270
  853POPE   GL212720   4.429   3.002   6.471  0.0487 -0.0157 -0.3744
  853POPE   C1A12721   3.883   3.172   6.576 -0.0526 -0.1081 -0.1741
  853POPE   D2A12722   3.709   3.464   6.718 -0.1942 -0.5078  0.1768
  853POPE   C3A12723   3.696   3.519   7.169 -0.0490  0.0301  0.2359
  853POPE   C4A12724   3.835   3.487   7.614  0.1892  0.1265 -0.2711
  853POPE   C1B12725   4.408   2.758   6.877  0.0882 -0.1043  0.0787
  853POPE   C2B12726   4.481   2.847   7.289  0.3257  0.0320 -0.0759
  853POPE   C3B12727   4.430   2.980   7.605  0.0688  0.0276 -0.3127
  853POPE   C4B12728   4.242   2.821   7.953 -0.1260 -0.1729 -0.2001
  854POPE   NH312729   8.158  13.094   5.943  0.0510  0.0379 -0.2505
  854POPE   PO412730   8.133  13.316   6.254 -0.2934 -0.1591  0.2012
  854POPE   GL112731   8.282  13.128   6.700 -0.2546  0.0401 -0.2260
  854POPE   GL212732   8.016  13.249   6.785  0.0930  0.0330  0.1062
  854POPE   C1A12733   8.384  13.037   7.105 -0.0929  0.0975  0.1712
  854POPE   D2A12734   8.482  13.037   7.452  0.1740  0.0896  0.1344
  854POPE   C3A12735   8.433  12.811   7.850  0.1474  0.1055  0.1477
  854POPE   C4A12736   8.056  12.977   8.073 -0.2010  0.1050  0.1012
  854POPE   C1B12737   8.009  13.360   7.102  0.2181 -0.2798  0.1256
  854POPE   C2B12738   7.871  13.792   7.308  0.1795 -0.5868 -0.0212
  854POPE   C3B12739   8.009  13.812   7.679  0.0069  0.3378  0.5565
  854POPE   C4B12740   8.064  13.989   8.031  0.1342 -0.0391  0.1566
  855POPE   NH312741   7.776   5.770   6.114 -0.0277  0.2259 -0.3146
  855POPE   PO412742   7.506   6.048   5.868  0.1308 -0.1472  0.1459
  855POPE   GL112743   7.784   6.284   6.076 -0.0377  0.0307 -0.0057
  855POPE   GL212744   7.998   6.248   6.220  0.0812 -0.2967 -0.0094
  855POPE   C1A12745   7.969   6.723   6.282 -0.0317  0.1816 -0.2722
  855POPE   D2A12746   8.119   7.059   6.294 -0.0324 -0.1658  0.1680
  855POPE   C3A12747   8.101   7.442   6.624 -0.1271 -0.2371 -0.0300
  855POPE   C4A12748   8.104   7.919   6.519 -0.0123 -0.0185  0.0905
  855POPE   C1B12749   8.207   6.292   6.531  0.0061  0.1193  0.0104
  855POPE   C2B12750   8.255   6.471   6.890 -0.1274  0.1354 -0.0792
  855POPE   C3B12751   8.294   6.540   7.289 -0.0420 -0.0512  0.2332
  855POPE   C4B12752   8.674   6.665   7.531 -0.0489  0.0266  0.1339
  856POPE   NH312753  11.839   6.911   5.779  0.0924 -0.0239  0.2538
  856POPE   PO412754  12.063   7.190   5.999  0.0057 -0.0491  0.1591
  856POPE   GL112755  12.141   7.418   6.416 -0.1540  0.4948  0.2396
  856POPE   GL212756  12.316   7.184   6.578  0.0423  0.1313 -0.1251
  856POPE   C1A12757  11.988   7.451   6.850 -0.2032 -0.1775 -0.1818
  856POPE   D2A12758  12.042   7.491   7.296 -0.2457 -0.0118 -0.1971
  856POPE   C3A12759  11.934   7.864   7.565 -0.3458  0.1823 -0.1681
  856POPE   C4A12760  12.019   8.231   7.818  0.0315  0.3292 -0.0064
  856POPE   C1B12761  12.273   7.085   7.053  0.0018 -0.1847 -0.0456
  856POPE   C2B12762  12.192   7.019   7.494 -0.2221  0.2892  0.0190
  856POPE   C3B12763  12.510   7.016   7.753  0.2053 -0.1655  0.1837
  856POPE   C4B12764  12.648   6.960   8.233 -0.2044  0.0445  0.0002
  857POPE   NH312765  11.802  12.086   6.130 -0.1756 -0.2517 -0.2291
  857POPE   PO412766  11.852  11.611   6.189 -0.1438 -0.0486 -0.0517
  857POPE   GL112767  12.058  11.468   6.533  0.2680 -0.0106 -0.2269
  857POPE   GL212768  12.373  11.417   6.547 -0.2406  0.0916 -0.0877
  857POPE   C1A12769  12.129  11.541   7.081 -0.2242 -0.0088 -0.2453
  857POPE   D2A12770  12.209  11.440   7.423  0.1407  0.3404  0.1583
  857POPE   C3A12771  11.921  11.491   7.766 -0.0617  0.2021  0.2855
  857POPE   C4A12772  11.574  11.591   8.017  0.0164 -0.0988  0.1719
  857POPE   C1B12773  12.613  11.309   6.997 -0.1048 -0.1148 -0.0651
  857POPE   C2B12774  12.794  11.292   7.449  0.0923  0.1125  0.1425
  857POPE   C3B12775  12.551  11.299   7.778  0.0540 -0.0167  0.1569
  857POPE   C4B12776  12.563  11.078   8.143  0.1113  0.3522 -0.2584
  858POPE   NH312777   8.735  16.635   5.928  0.1284 -0.0573  0.1245
  858POPE   PO412778   8.998  16.875   6.187  0.3920  0.1745  0.0965
  858POPE   GL112779   9.174  16.798   6.505  0.0880 -0.2862 -0.3597
  858POPE   GL212780   9.345  16.542   6.725 -0.1229 -0.2063  0.0064
  858POPE   C1A12781   9.148  16.940   6.944  0.5623  0.2538  0.0186
  858POPE   D2A12782   9.230  17.078   7.311  0.2780 -0.1243  0.2950
  858POPE   C3A12783   9.224  16.932   7.658  0.1055 -0.1994 -0.3192
  858POPE   C4A12784   9.030  17.044   8.008 -0.0238 -0.1479  0.2584
  858POPE   C1B12785   9.546  16.287   7.002 -0.2039  0.0041 -0.0257
  858POPE   C2B12786   9.823  16.271   7.422 -0.1258 -0.0215  0.1753
  858POPE   C3B12787   9.856  16.182   7.878 -0.0727 -0.1090  0.0262
  858POPE   C4B12788   9.898  16.292   8.341  0.0790 -0.0245 -0.0846
  859POPE   NH312789  11.025  13.574   6.269  0.1031 -0.2536 -0.0420
  859POPE   PO412790  11.422  13.768   6.420  0.0579 -0.1855 -0.0758
  859POPE   GL112791  11.294  13.718   6.792 -0.0636  0.1457 -0.1757
  859POPE   GL212792  11.029  13.605   6.818  0.2722  0.1993 -0.0806
  859POPE   C1A12793  11.455  13.460   7.091 -0.0485  0.2392 -0.0873
  859POPE   D2A12794  11.818  13.283   7.341  0.1629 -0.0875  0.0289
  859POPE   C3A12795  11.838  13.097   7.754  0.3845  0.0626 -0.1100
  859POPE   C4A12796  11.943  13.418   8.121 -0.0178 -0.0809  0.1020
  859POPE   C1B12797  11.001  13.636   7.273  0.2304  0.2167  0.0455
  859POPE   C2B12798  10.980  13.808   7.675  0.2158 -0.2496 -0.1674
  859POPE   C3B12799  10.767  13.794   8.040 -0.2721  0.0601 -0.1016
  859POPE   C4B12800  10.500  13.883   8.363  0.0558  0.2929  0.2074
  860POPE   NH312801   4.207   2.616   6.178 -0.2878 -0.0187 -0.0988
  860POPE   PO412802   4.501   2.336   6.265  0.1031  0.0491 -0.1471
  860POPE   GL112803   4.331   2.313   6.640  0.1340  0.2390 -0.0634
  860POPE   GL212804   4.019   2.276   6.741 -0.0460  0.3366 -0.2516
  860POPE   C1A12805   4.413   2.325   7.127 -0.4359  0.3386 -0.1409
  860POPE   D2A12806   4.819   2.130   7.464 -0.1974 -0.1166 -0.2454
  860POPE   C3A12807   5.015   2.219   7.840  0.4793  0.1137 -0.1100
  860POPE   C4A12808   5.312   2.451   8.136  0.1422  0.2945 -0.1106
  860POPE   C1B12809   3.966   2.617   7.106 -0.1894  0.1057 -0.0546
  860POPE   C2B12810   4.027   3.058   7.134 -0.0455 -0.1879 -0.0015
  860POPE   C3B12811   4.195   3.491   7.261  0.0463  0.0975 -0.2619
  860POPE   C4B12812   4.473   3.864   7.270  0.1976 -0.1133 -0.0908
  861POPE   NH312813   8.330   4.942   6.247 -0.0776 -0.3097  0.2811
  861POPE   PO412814   8.153   4.490   6.227  0.1474 -0.1812 -0.3582
  861POPE   GL112815   8.169   4.461   6.655 -0.0933 -0.1585 -0.1822
  861POPE   GL212816   8.135   4.735   6.719 -0.0883 -0.3770 -0.0915
  861POPE   C1A12817   8.278   4.452   7.158 -0.0108 -0.3503  0.2006
  861POPE   D2A12818   8.351   4.354   7.594  0.3446  0.1735 -0.0334
  861POPE   C3A12819   8.572   4.494   7.908 -0.1533  0.2715 -0.2687
  861POPE   C4A12820   8.877   4.425   8.206 -0.1551  0.0684 -0.0554
  861POPE   C1B12821   8.277   4.952   6.954 -0.0320  0.0085 -0.1038
  861POPE   C2B12822   8.411   5.023   7.396  0.0580  0.1672  0.2511
  861POPE   C3B12823   8.495   4.999   7.780 -0.3194 -0.2654 -0.3223
  861POPE   C4B12824   8.589   4.883   8.191  0.2503 -0.1646 -0.1897
  862POPE   NH312825   5.291   4.109   6.245 -0.2058  0.0291  0.0479
  862POPE   PO412826   4.865   4.253   6.249 -0.0357 -0.0369 -0.1025
  862POPE   GL112827   4.833   4.192   6.616 -0.0580  0.1209  0.3260
  862POPE   GL212828   4.553   4.295   6.726  0.1953  0.1249 -0.0289
  862POPE   C1A12829   4.914   3.973   7.035 -0.0560  0.2342  0.0248
  862POPE   D2A12830   5.187   3.982   7.426 -0.2390  0.1919 -0.3301
  862POPE   C3A12831   4.754   3.761   7.692 -0.0848  0.0910  0.2593
  862POPE   C4A12832   4.573   3.766   8.083  0.2255 -0.1314  0.1586
  862POPE   C1B12833   4.625   4.349   7.167  0.1097  0.2115  0.1850
  862POPE   C2B12834   4.709   4.271   7.572 -0.1095  0.1207  0.0688
  862POPE   C3B12835   4.872   4.213   7.984 -0.5064 -0.0700 -0.0629
  862POPE   C4B12836   4.873   4.149   8.431 -0.2747 -0.1052 -0.1878
  863POPE   NH312837  10.138   7.732   5.825  0.1468  0.0220 -0.3958
  863POPE   PO412838  10.352   7.904   6.242 -0.1137  0.1166 -0.3097
  863POPE   GL112839  10.540   7.681   6.625  0.4277 -0.2294 -0.0489
  863POPE   GL212840  10.770   7.885   6.651 -0.0988 -0.1934 -0.0621
  863POPE   C1A12841  10.564   7.528   7.008  0.0732 -0.0695  0.0741
  863POPE   D2A12842  10.176   7.453   7.219  0.1220 -0.0864  0.1791
  863POPE   C3A12843  10.058   7.160   7.601  0.0606  0.1091  0.2560
  863POPE   C4A12844  10.377   6.998   8.008 -0.1977 -0.4164  0.3372
  863POPE   C1B12845  10.779   8.066   7.009  0.2077  0.1646  0.1493
  863POPE   C2B12846  10.724   7.860   7.370 -0.1344  0.0544 -0.2121
  863POPE   C3B12847  10.460   7.973   7.816  0.0473  0.1881 -0.2172
  863POPE   C4B12848  10.444   8.235   8.243  0.0054 -0.0880 -0.1073
  864YOPE   NH312849   5.461   9.437   6.373 -0.2745  0.4825  0.0849
  864YOPE   PO412850   5.068   9.517   6.564  0.0403 -0.1839 -0.2271
  864YOPE   GL112851   5.294   9.386   6.888  0.3113 -0.0442  0.0797
  864YOPE   GL212852   5.101   9.298   7.161  0.1076 -0.3163 -0.1101
  864YOPE   C1A12853   5.709   9.477   7.102 -0.3182 -0.1129 -0.2615
  864YOPE   D2A12854   6.030   9.644   7.332 -0.2263 -0.1164 -0.1062
  864YOPE   C3A12855   6.450   9.508   7.343 -0.0276  0.0237  0.1222
  864YOPE   C4A12856   6.766   9.550   7.219 -0.1393 -0.1239  0.1945
  864YOPE   C1B12857   5.019   9.365   7.609  0.0493  0.0057 -0.0233
  864YOPE   C2B12858   5.216   9.433   7.962  0.1165 -0.3014  0.3790
  864YOPE   D3B12859   5.303   9.622   8.310  0.1126  0.1092  0.0828
  864YOPE   C4B12860   5.582   9.726   8.704 -0.1088  0.1230  0.0873
  865YOPE   NH312861  11.168   2.411   6.031 -0.1329 -0.1055 -0.1115
  865YOPE   PO412862  10.967   2.053   6.062 -0.0015  0.2564  0.1837
  865YOPE   GL112863  10.869   2.253   6.484 -0.0639  0.0904 -0.2049
  865YOPE   GL212864  10.806   2.621   6.398 -0.2744  0.1253 -0.1542
  865YOPE   C1A12865  10.679   2.313   6.926 -0.1567 -0.0320  0.2637
  865YOPE   D2A12866  10.426   2.041   7.191 -0.2356  0.2442  0.0054
  865YOPE   C3A12867  10.605   2.075   7.502 -0.2631 -0.0481 -0.2324
  865YOPE   C4A12868  10.767   1.724   7.823  0.3435 -0.2197 -0.0530
  865YOPE   C1B12869  10.965   2.733   6.797  0.2334  0.3386  0.1749
  865YOPE   C2B12870  11.051   2.853   7.221 -0.1142 -0.3588  0.2473
  865YOPE   D3B12871  11.228   2.762   7.576 -0.1011 -0.1298 -0.2502
  865YOPE   C4B12872  11.564   2.838   7.878  0.0466 -0.0467  0.3173
  866YOPE   NH312873   9.377  14.162   6.702 -0.3124 -0.2605 -0.2162
  866YOPE   PO412874   9.609  13.842   6.731  0.0511 -0.1412  0.0055
  866YOPE   GL112875   9.376  13.940   7.142 -0.0648  0.0599  0.0408
  866YOPE   GL212876   9.365  13.621   7.195  0.1425  0.1052  0.0095
  866YOPE   C1A12877   9.372  14.048   7.504  0.2085 -0.0463  0.3315
  866YOPE   D2A12878   9.379  14.189   7.939 -0.0943 -0.0060  0.0543
  866YOPE   C3A12879   9.007  14.002   8.294  0.0735  0.0900  0.2108
  866YOPE   C4A12880   8.735  14.045   8.583 -0.1097 -0.2323 -0.1907
  866YOPE   C1B12881   9.308  13.281   7.515 -0.4560  0.0590  0.6536
  866YOPE   C2B12882   9.446  13.214   7.927 -0.1745  0.0840 -0.0809
  866YOPE   D3B12883   9.304  13.079   8.288 -0.3453  0.0496 -0.1374
  866YOPE   C4B12884   9.563  12.827   8.574  0.1094 -0.0543 -0.1364
  867YOPE   NH312885   8.684   1.855   6.229 -0.0501  0.2579 -0.0597
  867YOPE   PO412886   9.151   1.932   6.349  0.0475 -0.3134 -0.1190
  867YOPE   GL112887   8.873   2.185   6.651  0.1446  0.0791  0.2357
  867YOPE   GL212888   8.712   1.905   6.703  0.0559 -0.5524  0.1784
  867YOPE   C1A12889   8.791   2.327   7.022  0.0556  0.3495  0.1597
  867YOPE   D2A12890   8.762   2.499   7.416 -0.1858 -0.0213  0.1380
  867YOPE   C3A12891   8.623   2.115   7.662 -0.3170  0.0057 -0.1409
  867YOPE   C4A12892   8.503   1.990   8.099  0.1602 -0.0367  0.2929
  867YOPE   C1B12893   8.879   1.880   7.116  0.1787  0.0537 -0.0483
  867YOPE   C2B12894   9.107   1.760   7.480 -0.2078 -0.0360  0.2945
  867YOPE   D3B12895   9.507   1.869   7.696 -0.1262 -0.1092  0.0627
  867YOPE   C4B12896   9.775   2.161   7.987 -0.0337  0.0390 -0.3106
  868YOPE   NH312897   3.259  10.960   6.096 -0.2246 -0.0620 -0.3199
  868YOPE   PO412898   3.642  11.317   6.018  0.4573 -0.1860  0.0195
  868YOPE   GL112899   3.807  11.475   6.465  0.1284 -0.3055 -0.2092
  868YOPE   GL212900   3.688  11.736   6.657  0.0499  0.2193  0.0650
  868YOPE   C1A12901   4.097  11.473   6.758 -0.0211 -0.0079  0.1103
  868YOPE   D2A12902   4.100  11.369   7.198 -0.1425  0.0225 -0.1694
  868YOPE   C3A12903   3.769  11.212   7.406 -0.3271 -0.0083  0.1044
  868YOPE   C4A12904   3.659  10.986   7.761 -0.0667 -0.2069  0.0804
  868YOPE   C1B12905   3.632  11.708   7.110  0.1419  0.2704  0.0459
  868YOPE   C2B12906   3.484  11.813   7.500  0.2712 -0.1062  0.0765
  868YOPE   D3B12907   3.365  11.833   7.943  0.0522 -0.2415  0.0644
  868YOPE   C4B12908   3.311  12.035   8.394 -0.2675  0.0002 -0.2569
  869YOPE   NH312909   4.449   3.992   6.332 -0.1382 -0.3466  0.5650
  869YOPE   PO412910   4.284   3.627   6.070  0.0481 -0.0934  0.0620
  869YOPE   GL112911   4.379   3.579   6.530 -0.2491  0.3143 -0.3579
  869YOPE   GL212912   4.490   3.795   6.785  0.0989 -0.2094 -0.2437
  869YOPE   C1A12913   4.464   3.308   6.923  0.1242 -0.1346  0.1497
  869YOPE   D2A12914   4.672   3.323   7.325  0.0135  0.2124  0.0929
  869YOPE   C3A12915   4.905   3.041   7.599 -0.0083 -0.1286 -0.2640
  869YOPE   C4A12916   4.834   2.760   7.883 -0.1053 -0.0754 -0.1787
  869YOPE   C1B12917   4.085   3.779   6.914  0.3468 -0.0583 -0.1296
  869YOPE   C2B12918   3.655   3.913   6.883  0.0959 -0.5602  0.3212
  869YOPE   D3B12919   3.486   3.945   7.239 -0.3193 -0.1180 -0.0161
  869YOPE   C4B12920   3.427   3.778   7.567 -0.1850  0.0043 -0.1888
  870YOPE   NH312921  17.530  11.556   6.393 -0.0763  0.3313 -0.1042
  870YOPE   PO412922  17.918  11.424   6.477 -0.2054  0.2661 -0.0924
  870YOPE   GL112923  17.927  11.776   6.648 -0.1712 -0.0390  0.0941
  870YOPE   GL212924  18.266  11.922   6.720 -0.2097 -0.2295  0.0870
  870YOPE   C1A12925  17.858  12.102   6.853  0.4031  0.3190 -0.0827
  870YOPE   D2A12926  18.164  12.351   6.974  0.2231 -0.1307  0.1517
  870YOPE   C3A12927  18.115  12.646   7.327 -0.0707  0.2126  0.2108
  870YOPE   C4A12928  18.004  12.939   7.727  0.0357  0.3483 -0.1044
  870YOPE   C1B12929  18.330  11.863   7.148 -0.0661 -0.0028 -0.2821
  870YOPE   C2B12930  18.252  12.158   7.603  0.0754 -0.0802 -0.3000
  870YOPE   D3B12931  18.239  12.486   7.897  0.1046  0.1237 -0.0986
  870YOPE   C4B12932  18.288  12.698   8.288 -0.2801 -0.1409  0.1846
  871YOPE   NH312933   1.006  11.129   6.465  0.2952 -0.1595 -0.0505
  871YOPE   PO412934   0.907  10.765   6.322 -0.0020 -0.3831  0.0689
  871YOPE   GL112935   1.176  10.741   6.732  0.1600  0.0856 -0.1566
  871YOPE   GL212936   1.231  10.341   6.710  0.1528 -0.0684  0.0253
  871YOPE   C1A12937   1.436  10.803   7.010  0.1225 -0.1174 -0.2028
  871YOPE   D2A12938   1.265  10.882   7.463  0.0353 -0.2019 -0.0155
  871YOPE   C3A12939   1.408  11.133   7.798  0.1431 -0.1824 -0.1388
  871YOPE   C4A12940   1.818  11.169   7.937 -0.1404 -0.0221  0.0530
  871YOPE   C1B12941   0.872  10.481   6.985 -0.0837 -0.3828  0.2280
  871YOPE   C2B12942   0.714  10.687   7.290 -0.0011  0.1928 -0.1518
  871YOPE   D3B12943   0.850  10.662   7.747 -0.1080  0.1341 -0.3447
  871YOPE   C4B12944   1.062  10.798   8.189 -0.1108  0.1543  0.0419
  872YOPE   NH312945   3.920  16.374   5.997 -0.0886  0.1115 -0.2257
  872YOPE   PO412946   4.238  16.573   6.284 -0.0734 -0.0508 -0.0680
  872YOPE   GL112947   4.398  16.592   6.727 -0.0114 -0.0983 -0.1115
  872YOPE   GL212948   4.581  16.889   6.729 -0.0698  0.0602  0.0757
  872YOPE   C1A12949   4.351  16.359   7.193  0.1024  0.2080  0.1402
  872YOPE   D2A12950   4.300  16.251   7.728 -0.1027  0.2075 -0.0811
  872YOPE   C3A12951   4.435  16.534   8.011  0.1867 -0.0324 -0.2022
  872YOPE   C4A12952   4.638  16.736   8.298  0.0763 -0.0383  0.4160
  872YOPE   C1B12953   4.628  16.858   7.155  0.1058  0.2046  0.0805
  872YOPE   C2B12954   4.564  16.855   7.512  0.1813 -0.0800 -0.1848
  872YOPE   D3B12955   4.383  17.005   8.007  0.0120 -0.0617 -0.2687
  872YOPE   C4B12956   4.255  17.008   8.400 -0.2200  0.3121  0.0110
  873YOPE   NH312957  17.460   2.296   6.228  0.2852 -0.0319 -0.0418
  873YOPE   PO412958  17.959   2.271   6.176  0.1800 -0.1073 -0.3573
  873YOPE   GL112959  18.232   2.060   6.377 -0.0325  0.0443 -0.3071
  873YOPE   GL212960  18.350   2.252   6.564 -0.0400  0.2780  0.1049
  873YOPE   C1A12961  18.441   1.645   6.535  0.2470  0.0523 -0.1438
  873YOPE   D2A12962  18.411   1.231   6.422 -0.1470  0.1753 -0.0034
  873YOPE   C3A12963  18.583   0.852   6.665  0.1951 -0.2380  0.0052
  873YOPE   C4A12964  18.839   0.894   7.148  0.2010  0.1261  0.0070
  873YOPE   C1B12965  18.617   2.192   6.934 -0.0759  0.0563 -0.3563
  873YOPE   C2B12966  18.718   1.979   7.370 -0.0929 -0.1132 -0.2565
  873YOPE   D3B12967  18.781   1.572   7.554 -0.1362 -0.0170  0.1092
  873YOPE   C4B12968  18.788   1.060   7.632  0.0384  0.0465 -0.0596
  874YOPE   NH312969  12.584  13.714   6.358 -0.2425 -0.0297  0.3387
  874YOPE   PO412970  13.093  13.632   6.487 -0.2724  0.2246  0.2073
  874YOPE   GL112971  13.022  13.703   6.807  0.0631  0.2325  0.1063
  874YOPE   GL212972  12.717  13.807   6.830  0.0452  0.0612 -0.0525
  874YOPE   C1A12973  13.266  13.719   7.189  0.1282 -0.0425  0.0916
  874YOPE   D2A12974  13.221  14.024   7.477  0.0732  0.0061 -0.1690
  874YOPE   C3A12975  13.202  14.227   7.894  0.1109 -0.0022 -0.0595
  874YOPE   C4A12976  13.197  14.479   8.236  0.2016 -0.0164  0.0193
  874YOPE   C1B12977  12.772  13.909   7.220  0.1987 -0.0061 -0.0132
  874YOPE   C2B12978  12.537  13.825   7.602 -0.0265 -0.1249  0.2396
  874YOPE   D3B12979  12.335  13.871   8.119 -0.0313 -0.0001  0.0688
  874YOPE   C4B12980  12.032  13.958   8.326 -0.0580  0.0617 -0.0268
  875YOPE   NH312981   8.641   6.454   5.683 -0.0968 -0.2314 -0.4637
  875YOPE   PO412982   8.939   6.670   5.882  0.2467  0.0621  0.0610
  875YOPE   GL112983   8.809   6.752   6.213  0.1873  0.0449 -0.1382
  875YOPE   GL212984   8.437   6.726   6.142  0.0461  0.1568  0.0379
  875YOPE   C1A12985   8.904   6.726   6.634 -0.1633 -0.1010 -0.2369
  875YOPE   D2A12986   9.138   6.710   7.094 -0.1004  0.1214 -0.0618
  875YOPE   C3A12987   9.214   6.770   7.496 -0.0041 -0.3221  0.1276
  875YOPE   C4A12988   9.388   6.979   7.810 -0.1151 -0.1729 -0.2973
  875YOPE   C1B12989   8.381   6.769   6.540 -0.1554 -0.0049 -0.2776
  875YOPE   C2B12990   8.259   6.975   6.834 -0.3317 -0.1049 -0.2598
  875YOPE   D3B12991   8.230   7.050   7.212  0.1176  0.2023  0.1252
  875YOPE   C4B12992   8.126   6.896   7.585  0.1980  0.1139 -0.0925
  876YOPE   NH312993   7.926   9.426   5.697 -0.0699  0.0863  0.0278
  876YOPE   PO412994   7.733   9.102   6.048 -0.1427  0.1493  0.2241
  876YOPE   GL112995   7.638   9.145   6.468 -0.0232  0.2407  0.0759
  876YOPE   GL212996   7.603   8.832   6.512  0.0358 -0.1992  0.1890
  876YOPE   C1A12997   7.567   9.366   6.752  0.0809  0.0150 -0.4086
  876YOPE   D2A12998   7.707   9.579   7.081  0.0811  0.0275 -0.1752
  876YOPE   C3A12999   7.769   9.581   7.597 -0.0724  0.1673  0.0878
  876YOPE   C4A13000   7.596   9.581   7.929  0.2052 -0.1267  0.0824
  876YOPE   C1B13001   7.565   8.834   6.894 -0.0359  0.0417  0.1618
  876YOPE   C2B13002   7.587   9.095   7.197 -0.0998  0.0677  0.0218
  876YOPE   D3B13003   7.903   8.975   7.556 -0.0035  0.2523 -0.2391
  876YOPE   C4B13004   8.191   8.763   7.930 -0.0482 -0.0858 -0.1579
  877YOPE   NH313005   2.107   7.018   6.276 -0.3044 -0.0471 -0.0699
  877YOPE   PO413006   1.892   6.742   6.399 -0.1129 -0.1576 -0.2795
  877YOPE   GL113007   2.095   6.493   6.681  0.2146 -0.0475 -0.2128
  877YOPE   GL213008   2.128   6.127   6.700  0.1338  0.0925 -0.2038
  877YOPE   C1A13009   2.304   6.544   7.080  0.1469 -0.1895 -0.1207
  877YOPE   D2A13010   2.386   6.610   7.462  0.1068 -0.2349 -0.1508
  877YOPE   C3A13011   2.440   6.483   7.918 -0.2680 -0.0564  0.0070
  877YOPE   C4A13012   2.286   6.509   8.379  0.1289  0.0208 -0.3488
  877YOPE   C1B13013   2.022   6.150   7.106  0.3576  0.3366  0.0140
  877YOPE   C2B13014   1.951   6.367   7.615 -0.0964 -0.2688 -0.2312
  877YOPE   D3B13015   2.088   6.202   8.015 -0.1025  0.1149  0.4066
  877YOPE   C4B13016   2.002   6.059   8.479 -0.1160  0.1711 -0.1092
  878YOPE   NH313017  14.014   8.968   6.225 -0.2645  0.1788 -0.0932
  878YOPE   PO413018  14.295   8.587   6.144 -0.1899 -0.2120  0.4036
  878YOPE   GL113019  14.356   8.780   6.538  0.1348  0.4525  0.1349
  878YOPE   GL213020  14.062   8.687   6.749 -0.0292 -0.4771  0.0068
  878YOPE   C1A13021  14.481   8.919   6.936 -0.0194 -0.0290 -0.1900
  878YOPE   D2A13022  14.575   9.222   7.332  0.1152  0.1114 -0.0422
  878YOPE   C3A13023  14.595   9.247   7.680 -0.0983  0.1852  0.2211
  878YOPE   C4A13024  14.674   8.929   8.029 -0.1385 -0.0978 -0.2567
  878YOPE   C1B13025  14.113   8.737   7.188  0.0978  0.0460  0.0907
  878YOPE   C2B13026  14.251   8.812   7.670 -0.1231 -0.1487  0.0658
  878YOPE   D3B13027  14.409   8.517   8.065 -0.2826 -0.2211 -0.1304
  878YOPE   C4B13028  14.516   8.131   8.113 -0.3333 -0.0285  0.0842
  879YOPE   NH313029  13.141  13.130   6.503  0.3282 -0.1092  0.2651
  879YOPE   PO413030  12.758  13.220   6.369  0.0532 -0.1318 -0.0818
  879YOPE   GL113031  12.788  13.029   6.879  0.1257 -0.3131  0.1589
  879YOPE   GL213032  12.749  13.267   6.954  0.3721 -0.1524  0.1476
  879YOPE   C1A13033  12.863  12.954   7.429 -0.0075 -0.2018  0.2666
  879YOPE   D2A13034  12.858  13.095   7.873 -0.1000 -0.1231 -0.1940
  879YOPE   C3A13035  12.724  12.723   8.197 -0.1657  0.0332  0.1271
  879YOPE   C4A13036  12.553  12.398   8.486  0.3753  0.1685  0.1272
  879YOPE   C1B13037  12.799  13.407   7.260  0.0563 -0.0200  0.0748
  879YOPE   C2B13038  12.981  13.541   7.606 -0.2004 -0.3318 -0.0029
  879YOPE   D3B13039  12.912  13.790   7.912 -0.1554  0.0500  0.0800
  879YOPE   C4B13040  12.790  13.720   8.268 -0.1324 -0.3843 -0.0112
  880YOPE   NH313041   8.535  10.097   5.974  0.1070 -0.0956 -0.1022
  880YOPE   PO413042   8.849  10.186   6.206  0.0817 -0.0543 -0.0876
  880YOPE   GL113043   8.743   9.869   6.520  0.0634  0.1924  0.0754
  880YOPE   GL213044   8.878   9.592   6.589  0.1097 -0.0223 -0.0870
  880YOPE   C1A13045   8.671   9.932   6.979 -0.0290  0.1449 -0.0283
  880YOPE   D2A13046   8.940   9.897   7.308 -0.2081  0.1038  0.2099
  880YOPE   C3A13047   8.919   9.858   7.707  0.3350 -0.1286 -0.0978
  880YOPE   C4A13048   8.586   9.888   7.959 -0.0501  0.1700 -0.0573
  880YOPE   C1B13049   9.243   9.667   6.800  0.0835 -0.2715 -0.1624
  880YOPE   C2B13050   9.329   9.643   7.227 -0.1437  0.1716  0.2282
  880YOPE   D3B13051   9.563   9.480   7.447  0.2261 -0.0704  0.1745
  880YOPE   C4B13052   9.934   9.321   7.623 -0.0197  0.0996  0.2953
  881YOPE   NH313053  12.413   3.299   5.935 -0.1470  0.0966 -0.0774
  881YOPE   PO413054  12.716   3.336   6.286 -0.0168 -0.1433  0.1691
  881YOPE   GL113055  12.592   3.439   6.648 -0.2534 -0.3955  0.1159
  881YOPE   GL213056  12.530   3.818   6.566 -0.0636  0.0688  0.1048
  881YOPE   C1A13057  12.428   3.349   7.046  0.0216  0.0597 -0.0454
  881YOPE   D2A13058  12.362   3.330   7.542  0.0413  0.1522  0.0843
  881YOPE   C3A13059  12.537   3.028   7.750 -0.0871 -0.0774 -0.1320
  881YOPE   C4A13060  12.651   2.902   8.110 -0.0428  0.0980 -0.0581
  881YOPE   C1B13061  12.172   3.737   6.760 -0.1598 -0.0788 -0.0402
  881YOPE   C2B13062  11.926   3.749   7.134 -0.1144 -0.0040 -0.2122
  881YOPE   D3B13063  11.964   3.925   7.530 -0.1647  0.2654 -0.1961
  881YOPE   C4B13064  12.220   4.310   7.700 -0.2009 -0.1757  0.1679
  882YOPE   NH313065  11.946   2.232   5.891  0.3067 -0.0226  0.2248
  882YOPE   PO413066  11.541   2.033   5.970  0.3504 -0.1737 -0.3480
  882YOPE   GL113067  11.561   1.783   6.379  0.1008  0.1238  0.2226
  882YOPE   GL213068  11.389   2.068   6.467  0.0819  0.1321 -0.1198
  882YOPE   C1A13069  11.575   1.798   6.844  0.1057  0.1551  0.0686
  882YOPE   D2A13070  11.609   1.740   7.283 -0.0921  0.3455 -0.2130
  882YOPE   C3A13071  11.737   1.899   7.708  0.3873  0.2317 -0.0460
  882YOPE   C4A13072  12.033   2.106   8.050  0.2355 -0.1781 -0.2580
  882YOPE   C1B13073  11.241   2.265   6.768 -0.0416 -0.1393  0.1876
  882YOPE   C2B13074  11.098   2.367   7.200  0.0474 -0.0888  0.1671
  882YOPE   D3B13075  10.711   2.561   7.513 -0.1459  0.2423  0.0497
  882YOPE   C4B13076  10.717   2.832   7.797  0.0255 -0.2148 -0.0499
  883YOPE   NH313077  12.426   5.993   5.782 -0.2376  0.2252 -0.0970
  883YOPE   PO413078  12.079   6.377   5.846  0.0672  0.1195 -0.0711
  883YOPE   GL113079  12.001   6.581   6.157 -0.2319 -0.1183  0.1285
  883YOPE   GL213080  12.150   6.797   6.291  0.0256  0.1992 -0.0698
  883YOPE   C1A13081  11.858   6.393   6.573  0.0179 -0.0240 -0.0874
  883YOPE   D2A13082  11.781   6.149   6.917 -0.1031 -0.1647 -0.2188
  883YOPE   C3A13083  11.769   6.191   7.349 -0.2447  0.0283 -0.1049
  883YOPE   C4A13084  11.519   6.244   7.736  0.3236  0.0870  0.1364
  883YOPE   C1B13085  12.324   6.727   6.708  0.0552 -0.0320  0.1260
  883YOPE   C2B13086  12.530   6.607   7.085  0.2392  0.2418  0.1674
  883YOPE   D3B13087  12.661   6.632   7.496 -0.0885 -0.1007 -0.0879
  883YOPE   C4B13088  12.443   6.534   7.929 -0.2179 -0.2974  0.0961
  884YOPE   NH313089   6.100  12.932   6.666  0.1093 -0.1481  0.0666
  884YOPE   PO413090   6.059  13.383   6.475  0.1809 -0.0402 -0.0033
  884YOPE   GL113091   5.971  13.258   7.027 -0.0071  0.2245 -0.0301
  884YOPE   GL213092   6.049  12.931   7.126  0.2154 -0.2081  0.2612
  884YOPE   C1A13093   5.889  13.449   7.368  0.3276 -0.2627 -0.1324
  884YOPE   D2A13094   5.861  13.411   7.775  0.2723 -0.2564  0.3567
  884YOPE   C3A13095   5.628  13.669   7.977 -0.0480  0.0760 -0.0421
  884YOPE   C4A13096   5.379  13.642   8.352  0.2482 -0.0272 -0.1604
  884YOPE   C1B13097   6.032  12.524   7.378 -0.1391  0.1545  0.0068
  884YOPE   C2B13098   6.307  12.234   7.669  0.0567  0.1386 -0.3395
  884YOPE   D3B13099   6.417  11.923   7.788 -0.0429  0.2329 -0.0094
  884YOPE   C4B13100   6.635  11.673   8.083  0.0939 -0.3206  0.2204
  885YOPE   NH313101   0.519   2.686   6.228  0.1709 -0.0771  0.0462
  885YOPE   PO413102   0.873   2.446   6.205  0.0284  0.1521 -0.0742
  885YOPE   GL113103   0.992   2.459   6.580 -0.0050 -0.0524 -0.2276
  885YOPE   GL213104   0.809   2.678   6.697 -0.2975 -0.0685 -0.0345
  885YOPE   C1A13105   1.165   2.422   6.981 -0.2101  0.0898  0.1316
  885YOPE   D2A13106   1.282   2.260   7.319 -0.0067  0.0337  0.0357
  885YOPE   C3A13107   1.546   2.373   7.624  0.0286 -0.1499  0.4462
  885YOPE   C4A13108   1.651   2.333   8.060 -0.0468 -0.2871 -0.0466
  885YOPE   C1B13109   0.896   2.812   7.167 -0.1608 -0.0306 -0.1556
  885YOPE   C2B13110   0.994   2.675   7.517  0.0481  0.1837  0.1286
  885YOPE   D3B13111   1.051   2.322   7.735  0.2800 -0.2460  0.1505
  885YOPE   C4B13112   0.995   1.875   7.970 -0.1481 -0.0843 -0.0831
  886YOPE   NH313113  14.884   3.476   6.046  0.3379  0.0639 -0.0542
  886YOPE   PO413114  15.063   3.137   5.852  0.0853  0.2245  0.2268
  886YOPE   GL113115  14.992   2.968   6.189  0.1007  0.1575 -0.2691
  886YOPE   GL213116  15.034   3.200   6.389  0.0502 -0.1219  0.0786
  886YOPE   C1A13117  14.734   2.820   6.550 -0.3765  0.2498 -0.0345
  886YOPE   D2A13118  14.519   2.850   6.900  0.0391  0.3410  0.0860
  886YOPE   C3A13119  14.394   2.427   7.208 -0.0122 -0.0964  0.0244
  886YOPE   C4A13120  14.108   2.242   7.592 -0.0661  0.1055  0.0935
  886YOPE   C1B13121  15.191   3.417   6.716  0.0598  0.2365 -0.2040
  886YOPE   C2B13122  15.185   3.412   7.194  0.2053  0.0783  0.1219
  886YOPE   D3B13123  15.136   3.512   7.623 -0.1947  0.0123 -0.1214
  886YOPE   C4B13124  15.169   3.501   8.091 -0.0420 -0.0802  0.2062
  887YOPE   NH313125  13.915  16.134   6.421  0.1747 -0.0509 -0.1915
  887YOPE   PO413126  13.526  15.953   6.553  0.3004  0.1051  0.0558
  887YOPE   GL113127  13.623  15.863   6.945 -0.0497 -0.1200 -0.0028
  887YOPE   GL213128  13.600  15.535   6.894 -0.0032 -0.1476 -0.0730
  887YOPE   C1A13129  13.622  15.757   7.382  0.0075  0.1238 -0.4154
  887YOPE   D2A13130  13.360  15.893   7.877  0.2747  0.1985  0.1530
  887YOPE   C3A13131  12.889  15.850   8.141  0.0843  0.1335 -0.0269
  887YOPE   C4A13132  12.691  15.990   8.406 -0.0095 -0.4761 -0.2000
  887YOPE   C1B13133  13.630  15.292   7.329  0.1222  0.1701  0.2930
  887YOPE   C2B13134  13.487  15.007   7.625 -0.4061 -0.2443  0.3085
  887YOPE   D3B13135  13.334  15.036   8.076 -0.0656 -0.0132  0.3525
  887YOPE   C4B13136  13.274  14.924   8.484 -0.1923  0.5118 -0.1498
  888YOPE   NH313137   8.032   5.963   5.728 -0.0788 -0.0449 -0.2182
  888YOPE   PO413138   8.351   6.102   5.495  0.0754 -0.1263  0.0127
  888YOPE   GL113139   8.473   6.121   5.969 -0.1919  0.1101  0.0525
  888YOPE   GL213140   8.350   5.863   6.148 -0.1243 -0.3553 -0.1978
  888YOPE   C1A13141   8.640   6.302   6.380 -0.0694 -0.1196  0.1241
  888YOPE   D2A13142   8.696   6.202   6.847 -0.2514 -0.0811  0.4521
  888YOPE   C3A13143   8.786   6.328   7.184  0.0534  0.0937  0.0676
  888YOPE   C4A13144   9.195   6.263   7.336  0.0935 -0.1224 -0.1584
  888YOPE   C1B13145   8.524   5.835   6.550 -0.1436  0.0106  0.1057
  888YOPE   C2B13146   8.805   5.668   6.836 -0.1754 -0.0662  0.0494
  888YOPE   D3B13147   8.900   5.868   7.184 -0.2022  0.3887 -0.0602
  888YOPE   C4B13148   8.883   5.993   7.573  0.1026  0.0527  0.2984
  889YOPE   NH313149   6.910   0.535   6.372 -0.1586 -0.2778 -0.2406
  889YOPE   PO413150   7.293   0.650   6.203  0.1641 -0.2037 -0.4271
  889YOPE   GL113151   7.366   0.722   6.605 -0.2636  0.0478  0.0783
  889YOPE   GL213152   7.564   1.070   6.551  0.1435  0.1254 -0.0542
  889YOPE   C1A13153   7.116   0.524   6.952  0.0488  0.3054  0.0451
  889YOPE   D2A13154   7.022   0.502   7.414 -0.2191 -0.2601  0.5986
  889YOPE   C3A13155   7.387   0.495   7.594  0.1081 -0.1162  0.0199
  889YOPE   C4A13156   7.432   0.089   7.614 -0.0462  0.1806 -0.0749
  889YOPE   C1B13157   7.640   0.895   6.968 -0.1012 -0.1962  0.0101
  889YOPE   C2B13158   7.410   0.805   7.228 -0.0987 -0.1478 -0.1469
  889YOPE   D3B13159   7.199   0.952   7.691  0.1644  0.1468  0.0609
  889YOPE   C4B13160   7.386   0.770   8.079  0.0713 -0.0597 -0.0263
  890YOPE   NH313161  17.361   0.549   5.921  0.4011  0.0867  0.4162
  890YOPE   PO413162  16.863   0.676   6.043  0.0242  0.1089 -0.0919
  890YOPE   GL113163  16.645   0.523   6.395 -0.0470  0.0942  0.0697
  890YOPE   GL213164  16.351   0.688   6.535 -0.2635 -0.2261 -0.3422
  890YOPE   C1A13165  16.824   0.527   6.848  0.1502  0.2740  0.1040
  890YOPE   D2A13166  16.723   0.606   7.261 -0.3827 -0.0048  0.0775
  890YOPE   C3A13167  16.928   0.464   7.639 -0.2300  0.0280  0.3053
  890YOPE   C4A13168  16.722   0.378   7.940 -0.1256  0.1238  0.0236
  890YOPE   C1B13169  16.252   0.531   6.957 -0.1276  0.0198 -0.2046
  890YOPE   C2B13170  16.212   0.434   7.484  0.3214 -0.0470 -0.0206
  890YOPE   D3B13171  16.284   0.486   7.808  0.0148  0.0934 -0.0061
  890YOPE   C4B13172  16.365   0.565   8.246  0.0610 -0.0885  0.1063
  891YOPE   NH313173   4.951   6.433   6.192 -0.2193  0.1262  0.1742
  891YOPE   PO413174   4.994   6.829   6.269 -0.1190  0.2294  0.0197
  891YOPE   GL113175   4.787   6.687   6.698  0.0414 -0.1409  0.3061
  891YOPE   GL213176   4.957   6.339   6.738  0.2108  0.1072  0.0457
  891YOPE   C1A13177   4.699   6.927   7.039  0.4051  0.3070  0.2557
  891YOPE   D2A13178   4.699   6.851   7.528 -0.0155 -0.2076  0.0166
  891YOPE   C3A13179   4.953   6.858   7.795 -0.3779 -0.0405 -0.1895
  891YOPE   C4A13180   4.943   6.904   8.289 -0.0659  0.1206  0.2934
  891YOPE   C1B13181   4.881   6.515   7.186  0.1234 -0.0533  0.2731
  891YOPE   C2B13182   5.178   6.555   7.465 -0.0197  0.0084  0.0911
  891YOPE   D3B13183   5.509   6.687   7.709 -0.1335  0.3123  0.0102
  891YOPE   C4B13184   5.626   6.814   8.141 -0.2096 -0.0847 -0.0986
  892YOPE   NH313185   5.514   9.852   6.101 -0.2496 -0.3299 -0.5074
  892YOPE   PO413186   5.959  10.012   6.163  0.0560 -0.0978 -0.1248
  892YOPE   GL113187   5.807   9.869   6.597 -0.2299  0.2684 -0.0007
  892YOPE   GL213188   5.554   9.800   6.700  0.1107 -0.1193  0.5613
  892YOPE   C1A13189   6.098   9.589   6.820 -0.1113 -0.0657 -0.0758
  892YOPE   D2A13190   6.510   9.365   6.830 -0.0285  0.3840  0.1838
  892YOPE   C3A13191   6.546   9.018   7.091 -0.0045 -0.1701  0.5437
  892YOPE   C4A13192   6.564   8.769   7.351 -0.1172 -0.1291  0.2014
  892YOPE   C1B13193   5.755  10.032   7.054  0.1686 -0.2447  0.1376
  892YOPE   C2B13194   5.831  10.191   7.370 -0.1172  0.2299  0.0897
  892YOPE   D3B13195   6.025   9.997   7.787  0.1938  0.1576 -0.0464
  892YOPE   C4B13196   6.144   9.920   8.225 -0.1220 -0.2274 -0.0590
  893YOPE   NH313197  17.245   6.451   5.892  0.3838 -0.2899  0.1277
  893YOPE   PO413198  17.142   6.149   6.229 -0.1259  0.0341  0.1446
  893YOPE   GL113199  17.124   6.452   6.503  0.2026  0.2436  0.1820
  893YOPE   GL213200  17.271   6.713   6.401 -0.0706 -0.0555  0.0555
  893YOPE   C1A13201  16.847   6.459   6.956 -0.0100  0.0871  0.0323
  893YOPE   D2A13202  16.778   6.412   7.313 -0.4298  0.0233  0.1850
  893YOPE   C3A13203  16.961   6.697   7.615  0.0284  0.2568  0.3758
  893YOPE   C4A13204  17.028   7.001   7.914 -0.1341 -0.3211  0.1126
  893YOPE   C1B13205  17.383   6.688   6.876  0.2367 -0.0154 -0.3085
  893YOPE   C2B13206  17.301   6.409   7.230 -0.0322 -0.2093  0.5147
  893YOPE   D3B13207  17.414   6.234   7.678  0.3293  0.0166 -0.3008
  893YOPE   C4B13208  17.471   6.090   8.123  0.3273  0.1057  0.0518
  894YOPE   NH313209   3.885   9.964   6.634  0.0427 -0.2305 -0.0344
  894YOPE   PO413210   4.271  10.148   6.613  0.2739  0.0094  0.0601
  894YOPE   GL113211   4.351  10.482   6.876  0.1741  0.1756  0.0108
  894YOPE   GL213212   4.675  10.488   6.907 -0.0282  0.1082 -0.1648
  894YOPE   C1A13213   4.487  10.643   7.298  0.2930  0.0554  0.1165
  894YOPE   D2A13214   4.537  10.642   7.670 -0.0198  0.0015 -0.0749
  894YOPE   C3A13215   4.729  10.847   7.924 -0.0067 -0.1532  0.0739
  894YOPE   C4A13216   5.041  10.918   8.172 -0.0407 -0.2115 -0.2274
  894YOPE   C1B13217   4.834  10.295   7.421 -0.0475 -0.1032 -0.0177
  894YOPE   C2B13218   5.039  10.097   7.828  0.1524 -0.0355 -0.0452
  894YOPE   D3B13219   5.258  10.143   8.232 -0.1426  0.3928 -0.1190
  894YOPE   C4B13220   5.619  10.088   8.273  0.1264 -0.0302 -0.1421
  895YOPE   NH313221  14.028   1.330   6.265  0.0382  0.1522  0.0676
  895YOPE   PO413222  14.028   1.790   6.343  0.0498  0.1712 -0.1744
  895YOPE   GL113223  14.213   2.057   6.603 -0.0585  0.4079  0.0798
  895YOPE   GL213224  14.300   2.399   6.682 -0.2498 -0.0743 -0.0582
  895YOPE   C1A13225  14.041   2.152   7.056 -0.0905  0.2645 -0.3169
  895YOPE   D2A13226  13.641   1.921   7.342 -0.1365 -0.2543 -0.0946
  895YOPE   C3A13227  13.615   1.948   7.864  0.2350 -0.1630 -0.1657
  895YOPE   C4A13228  13.575   1.835   8.176  0.4336  0.0331 -0.2716
  895YOPE   C1B13229  13.864   2.435   6.604  0.0766  0.0488  0.0708
  895YOPE   C2B13230  13.441   2.483   6.482 -0.0215 -0.0734 -0.1513
  895YOPE   D3B13231  13.073   2.750   6.566 -0.1695 -0.3046 -0.2660
  895YOPE   C4B13232  12.702   2.837   6.795 -0.0854 -0.0548  0.2753
  896YOPE   NH313233   0.812   6.591   6.409  0.3399 -0.0594  0.1210
  896YOPE   PO413234   0.501   6.819   6.157  0.2402 -0.0615 -0.0024
  896YOPE   GL113235   0.394   6.859   6.616 -0.4017  0.1485  0.1369
  896YOPE   GL213236   0.419   7.175   6.636 -0.4115  0.2339  0.0302
  896YOPE   C1A13237   0.254   6.638   6.991  0.0605 -0.3435  0.0958
  896YOPE   D2A13238  -0.058   6.487   7.210  0.4253 -0.0114  0.0063
  896YOPE   C3A13239   0.063   6.137   7.525 -0.1763  0.3937 -0.1009
  896YOPE   C4A13240   0.053   5.959   7.961  0.0732  0.0119  0.2124
  896YOPE   C1B13241   0.428   7.156   7.014  0.1987  0.1589 -0.1430
  896YOPE   C2B13242   0.493   6.997   7.364 -0.1233 -0.2118  0.1017
  896YOPE   D3B13243   0.266   6.748   7.570  0.2785  0.1189  0.0597
  896YOPE   C4B13244   0.036   7.058   7.621 -0.0662 -0.0906 -0.0976
  897YOPE   NH313245   2.685  14.072   6.034  0.2593  0.2363  0.2867
  897YOPE   PO413246   2.529  14.269   6.309 -0.2752 -0.0314 -0.0798
  897YOPE   GL113247   2.298  14.347   6.693  0.1187  0.1159  0.1901
  897YOPE   GL213248   2.486  14.700   6.749  0.1427  0.0383 -0.0742
  897YOPE   C1A13249   2.211  14.415   7.103  0.2823  0.1145 -0.2028
  897YOPE   D2A13250   2.259  14.723   7.435 -0.0533  0.1548  0.0852
  897YOPE   C3A13251   2.104  14.580   7.831  0.1740  0.3153  0.0594
  897YOPE   C4A13252   2.070  14.623   8.264  0.0588  0.1543  0.1613
  897YOPE   C1B13253   2.679  14.644   7.050 -0.2809  0.1853 -0.2023
  897YOPE   C2B13254   2.785  14.733   7.469  0.0270  0.1104  0.0220
  897YOPE   D3B13255   2.948  14.801   7.880  0.0082 -0.1277  0.1409
  897YOPE   C4B13256   3.131  14.492   8.155  0.0541 -0.0660  0.0436
  898YOPE   NH313257   7.361   2.927   6.132  0.0812 -0.0536 -0.2205
  898YOPE   PO413258   7.179   2.555   6.007 -0.3735  0.2199  0.0705
  898YOPE   GL113259   6.988   2.712   6.467  0.0192 -0.1496 -0.2310
  898YOPE   GL213260   6.738   2.458   6.533 -0.2130 -0.2195  0.0311
  898YOPE   C1A13261   7.001   2.810   6.903 -0.0360  0.3108  0.0173
  898YOPE   D2A13262   7.090   2.976   7.227  0.1738  0.0208 -0.0224
  898YOPE   C3A13263   7.373   3.389   7.322 -0.0477  0.0872  0.2543
  898YOPE   C4A13264   7.539   3.352   7.749 -0.1969  0.0162 -0.0408
  898YOPE   C1B13265   6.506   2.308   6.985  0.0066  0.0741  0.1566
  898YOPE   C2B13266   6.610   2.343   7.418 -0.0221 -0.2336 -0.3707
  898YOPE   D3B13267   6.268   2.417   7.808 -0.1435  0.0589 -0.1747
  898YOPE   C4B13268   5.715   2.396   7.752 -0.3695  0.0407  0.1691
  899YOPE   NH313269   5.144   8.560   6.421  0.2289  0.1995 -0.2149
  899YOPE   PO413270   4.762   8.442   6.588 -0.0784 -0.0849 -0.1847
  899YOPE   GL113271   4.700   8.265   6.962 -0.0232 -0.1602  0.0047
  899YOPE   GL213272   4.765   7.931   6.994 -0.2658  0.3863 -0.2330
  899YOPE   C1A13273   4.770   8.306   7.464  0.0421  0.1383  0.5148
  899YOPE   D2A13274   4.964   8.267   7.813  0.0774  0.0213 -0.1831
  899YOPE   C3A13275   4.796   8.285   8.273  0.1115 -0.0681 -0.2853
  899YOPE   C4A13276   4.632   8.399   8.801  0.1585  0.1165 -0.0707
  899YOPE   C1B13277   4.723   7.792   7.474 -0.0903  0.1964  0.0566
  899YOPE   C2B13278   4.819   7.805   8.029  0.0132 -0.0149 -0.1237
  899YOPE   D3B13279   4.995   7.830   8.452 -0.0808  0.4135  0.2520
  899YOPE   C4B13280   4.971   7.988   8.812  0.1095 -0.1979  0.0884
  900YOPE   NH313281  14.195   4.326   5.882  0.0723  0.1393  0.0521
  900YOPE   PO413282  14.372   3.975   6.011  0.0594 -0.3249 -0.0767
  900YOPE   GL113283  14.255   3.901   6.418  0.3229  0.3924 -0.0775
  900YOPE   GL213284  14.248   4.293   6.372  0.1816 -0.2416 -0.0049
  900YOPE   C1A13285  14.193   3.723   6.800 -0.1353 -0.2505  0.0790
  900YOPE   D2A13286  14.218   3.686   7.222  0.2050 -0.3066  0.0737
  900YOPE   C3A13287  13.887   3.827   7.427 -0.1042  0.0472 -0.2791
  900YOPE   C4A13288  13.784   4.005   7.808  0.0823  0.2725  0.4316
  900YOPE   C1B13289  14.393   4.457   6.866  0.0286  0.2148  0.1072
  900YOPE   C2B13290  14.350   4.593   7.352  0.0111 -0.1021  0.1411
  900YOPE   D3B13291  14.202   4.760   7.772 -0.3208  0.0288 -0.1081
  900YOPE   C4B13292  13.876   5.022   8.010 -0.0747  0.0195  0.1080
  901YOPE   NH313293  12.452  16.254   6.267  0.1208 -0.1908 -0.2730
  901YOPE   PO413294  12.141  16.460   6.493  0.1995  0.1738  0.1503
  901YOPE   GL113295  12.280  16.360   6.894  0.0981  0.1116  0.0406
  901YOPE   GL213296  12.677  16.360   6.911  0.1422  0.1392  0.1302
  901YOPE   C1A13297  12.254  16.511   7.366  0.1077 -0.1709 -0.2695
  901YOPE   D2A13298  12.502  16.345   7.701  0.0035  0.0685 -0.0296
  901YOPE   C3A13299  12.442  16.073   7.914 -0.0050 -0.1337 -0.0354
  901YOPE   C4A13300  12.300  15.636   7.942  0.1316 -0.1244  0.1199
  901YOPE   C1B13301  12.833  16.394   7.310 -0.0959 -0.2691  0.0767
  901YOPE   C2B13302  12.982  16.586   7.761  0.2910 -0.0738 -0.5008
  901YOPE   D3B13303  13.222  16.692   8.123 -0.1333  0.0748 -0.1712
  901YOPE   C4B13304  13.351  16.616   8.527  0.1132 -0.2102 -0.0936
  902YOPE   NH313305  16.346   5.087   6.222 -0.0889 -0.0513 -0.1048
  902YOPE   PO413306  15.802   5.048   6.065  0.2702 -0.1599 -0.3235
  902YOPE   GL113307  15.534   5.284   6.417  0.0724 -0.0946  0.2075
  902YOPE   GL213308  15.278   5.491   6.345  0.0521  0.1923 -0.1646
  902YOPE   C1A13309  15.502   5.191   6.841 -0.0616  0.0387  0.1324
  902YOPE   D2A13310  15.358   5.220   7.284 -0.2283 -0.0674  0.0258
  902YOPE   C3A13311  15.243   5.359   7.739  0.1219 -0.0416 -0.0444
  902YOPE   C4A13312  14.824   5.502   7.908  0.0384  0.0077 -0.2798
  902YOPE   C1B13313  15.160   5.513   6.838 -0.2515 -0.1013  0.1411
  902YOPE   C2B13314  15.015   5.635   7.287 -0.0729  0.2578  0.3302
  902YOPE   D3B13315  14.793   5.966   7.463  0.1909  0.1507  0.0089
  902YOPE   C4B13316  14.814   6.197   7.739 -0.1014 -0.0073  0.0093
  903YOPE   NH313317   5.263  17.404   6.223  0.0352 -0.2704  0.2639
  903YOPE   PO413318   5.374  17.775   6.062 -0.1776  0.2740 -0.1723
  903YOPE   GL113319   5.264  17.994   6.486 -0.0084  0.2254 -0.0001
  903YOPE   GL213320   5.512  18.134   6.611  0.1786 -0.0325 -0.2187
  903YOPE   C1A13321   4.999  18.215   6.842  0.2335  0.0948  0.0678
  903YOPE   D2A13322   4.898  18.125   7.269 -0.2305  0.2044 -0.4373
  903YOPE   C3A13323   4.493  18.265   7.523 -0.1079 -0.3268 -0.0041
  903YOPE   C4A13324   4.570  18.457   7.918 -0.0207 -0.1210  0.2755
  903YOPE   C1B13325   5.465  18.319   6.933 -0.0525 -0.0880  0.3020
  903YOPE   C2B13326   5.394  18.356   7.324  0.1050 -0.0409 -0.1321
  903YOPE   D3B13327   5.602  18.477   7.741 -0.0726 -0.0055  0.0948
  903YOPE   C4B13328   5.816  18.770   7.987  0.0914  0.0056  0.0635
  904YOPE   NH313329   7.375  12.822   6.293 -0.0264  0.2696 -0.1930
  904YOPE   PO413330   7.803  12.754   6.247 -0.1932  0.1552  0.0568
  904YOPE   GL113331   7.696  12.788   6.679  0.2185  0.2647 -0.0649
  904YOPE   GL213332   7.328  12.624   6.736  0.1717 -0.0914 -0.0705
  904YOPE   C1A13333   7.856  12.879   7.081 -0.1764  0.0228  0.0782
  904YOPE   D2A13334   8.017  12.884   7.514 -0.0358  0.3085  0.1449
  904YOPE   C3A13335   8.171  13.308   7.670 -0.1050  0.1221  0.3046
  904YOPE   C4A13336   8.033  13.493   8.098  0.0554  0.2841  0.0085
  904YOPE   C1B13337   7.396  12.678   7.220 -0.1412 -0.1052 -0.1644
  904YOPE   C2B13338   7.291  12.883   7.683 -0.1094  0.0572 -0.0439
  904YOPE   D3B13339   7.143  13.221   7.837 -0.0054  0.1199  0.1314
  904YOPE   C4B13340   7.287  13.583   8.056 -0.0837 -0.0063 -0.0641
  905YOPE   NH313341   1.832   4.893   6.212 -0.1506  0.0429 -0.3045
  905YOPE   PO413342   2.137   4.521   6.260  0.0401 -0.0281 -0.0592
  905YOPE   GL113343   2.435   4.459   6.575  0.3019  0.1374  0.2307
  905YOPE   GL213344   2.610   4.618   6.844 -0.1225 -0.2246  0.1298
  905YOPE   C1A13345   2.610   4.153   6.844  0.1753  0.0528  0.1905
  905YOPE   D2A13346   2.497   3.977   7.161 -0.1050  0.3737 -0.2339
  905YOPE   C3A13347   2.522   3.985   7.641  0.0903 -0.0919  0.0484
  905YOPE   C4A13348   2.606   3.717   8.015  0.3271  0.1184 -0.3675
  905YOPE   C1B13349   2.479   4.457   7.226 -0.0964 -0.0989  0.2436
  905YOPE   C2B13350   2.394   4.484   7.688  0.0655 -0.0784  0.3332
  905YOPE   D3B13351   2.608   4.273   7.996 -0.3244  0.0319  0.0382
  905YOPE   C4B13352   2.745   4.089   8.308 -0.2553 -0.2329  0.0395
  906YOPE   NH313353  14.939   1.118   6.052 -0.1351 -0.0298 -0.0147
  906YOPE   PO413354  15.319   0.969   6.153 -0.2054  0.0418 -0.2838
  906YOPE   GL113355  15.563   0.809   6.457 -0.0583  0.1232 -0.1204
  906YOPE   GL213356  15.482   0.958   6.750 -0.3352  0.1222 -0.2180
  906YOPE   C1A13357  15.773   0.507   6.739  0.0713 -0.0273  0.2028
  906YOPE   D2A13358  15.782   0.540   7.242 -0.1045 -0.0291 -0.0684
  906YOPE   C3A13359  15.592   0.758   7.491  0.1188 -0.0821  0.2647
  906YOPE   C4A13360  15.559   0.863   7.953  0.1838  0.0327 -0.1633
  906YOPE   C1B13361  15.654   1.234   7.073 -0.3324  0.2079 -0.0150
  906YOPE   C2B13362  15.739   1.297   7.448  0.1946  0.1594 -0.1274
  906YOPE   D3B13363  15.720   1.371   7.837 -0.2020  0.3029  0.0829
  906YOPE   C4B13364  15.687   1.293   8.238  0.1986 -0.1546 -0.0306
  907YOPE   NH313365  10.266   9.332   6.474  0.0504 -0.1371 -0.0191
  907YOPE   PO413366  10.693   9.271   6.322  0.3990 -0.0171 -0.2353
  907YOPE   GL113367  10.835   9.385   6.712 -0.0262 -0.2000 -0.0792
  907YOPE   GL213368  10.970   9.665   6.806 -0.0208  0.1471  0.0771
  907YOPE   C1A13369  10.874   9.198   7.124 -0.0777 -0.0287  0.0620
  907YOPE   D2A13370  11.077   9.194   7.502 -0.1334 -0.1197  0.3180
  907YOPE   C3A13371  11.535   9.046   7.678  0.1393 -0.0270  0.0069
  907YOPE   C4A13372  11.891   8.773   7.876  0.0430  0.1745 -0.1188
  907YOPE   C1B13373  11.014   9.613   7.266  0.2463 -0.0971 -0.1610
  907YOPE   C2B13374  11.078   9.682   7.767  0.1249  0.1487  0.1488
  907YOPE   D3B13375  11.138   9.968   7.978  0.0727  0.2542 -0.0206
  907YOPE   C4B13376  11.406  10.323   8.031 -0.0608  0.1242  0.1475
  908YOPE   NH313377   7.218   7.943   6.217  0.0203  0.3902  0.0880
  908YOPE   PO413378   6.809   7.670   6.092  0.3297 -0.1474 -0.1047
  908YOPE   GL113379   6.920   7.677   6.590  0.0622  0.2446 -0.1104
  908YOPE   GL213380   6.770   7.418   6.584  0.1328 -0.3700  0.2321
  908YOPE   C1A13381   6.873   7.479   7.064 -0.1388 -0.1959 -0.0801
  908YOPE   D2A13382   6.678   7.212   7.414  0.0357  0.0860  0.0638
  908YOPE   C3A13383   6.431   7.277   7.782  0.0471 -0.0723  0.0528
  908YOPE   C4A13384   6.407   7.520   8.140  0.0546  0.0086  0.2719
  908YOPE   C1B13385   6.735   7.065   6.947 -0.1375 -0.0838 -0.0600
  908YOPE   C2B13386   6.828   6.689   7.266  0.0421  0.1321 -0.1002
  908YOPE   D3B13387   6.891   6.355   7.611  0.2571  0.2790  0.1419
  908YOPE   C4B13388   6.649   5.990   7.680 -0.2882  0.0830 -0.1675
  909YOPE   NH313389   5.876   8.421   6.141 -0.3542  0.5238 -0.0150
  909YOPE   PO413390   5.573   8.745   6.311 -0.0442 -0.0781  0.0439
  909YOPE   GL113391   5.520   8.715   6.708 -0.1856 -0.1562  0.1024
  909YOPE   GL213392   5.807   8.572   6.722  0.1588  0.1240  0.0642
  909YOPE   C1A13393   5.480   8.939   7.115  0.1449 -0.3815  0.0019
  909YOPE   D2A13394   5.473   9.187   7.424  0.2009 -0.1308 -0.2766
  909YOPE   C3A13395   5.757   9.321   7.705 -0.0513 -0.4155 -0.3212
  909YOPE   C4A13396   6.151   9.492   7.799  0.0616  0.0234 -0.4939
  909YOPE   C1B13397   5.697   8.523   7.160 -0.0519 -0.1879 -0.1721
  909YOPE   C2B13398   5.639   8.742   7.585  0.4422  0.0872  0.1438
  909YOPE   D3B13399   5.417   8.995   7.921 -0.2141  0.1540  0.1229
  909YOPE   C4B13400   5.349   9.114   8.262  0.2513  0.2619 -0.0636
  910YOPE   NH313401   2.613   2.382   6.248  0.3070 -0.3036 -0.0635
  910YOPE   PO413402   3.019   2.157   6.366 -0.1600 -0.1868  0.1240
  910YOPE   GL113403   3.131   2.057   6.738 -0.0884  0.1113 -0.1496
  910YOPE   GL213404   3.398   1.775   6.769  0.1533  0.1749 -0.0874
  910YOPE   C1A13405   2.969   1.939   7.022  0.3041  0.1403 -0.2154
  910YOPE   D2A13406   2.980   1.922   7.498 -0.0581 -0.0736 -0.0750
  910YOPE   C3A13407   3.059   1.536   7.684  0.1675  0.0338  0.0576
  910YOPE   C4A13408   3.407   1.316   7.820 -0.0513 -0.1128 -0.1862
  910YOPE   C1B13409   3.514   2.003   7.046  0.2017 -0.1422  0.1835
  910YOPE   C2B13410   3.443   2.124   7.439 -0.1549 -0.2260 -0.4245
  910YOPE   D3B13411   3.464   1.867   7.864 -0.2060 -0.3528  0.0255
  910YOPE   C4B13412   3.214   1.644   8.169 -0.0308 -0.1907  0.2100
  911YOPE   NH313413  15.312   3.966   6.007  0.0618 -0.2075  0.0579
  911YOPE   PO413414  14.861   3.909   5.815 -0.1952  0.2045  0.0618
  911YOPE   GL113415  14.856   3.926   6.289  0.1463  0.3070  0.2167
  911YOPE   GL213416  15.041   3.787   6.405  0.1464 -0.2566  0.1287
  911YOPE   C1A13417  14.637   4.070   6.660 -0.0697 -0.1920  0.0688
  911YOPE   D2A13418  14.592   4.012   7.161  0.0884  0.0099 -0.0903
  911YOPE   C3A13419  14.295   4.110   7.487 -0.2468  0.0761  0.0153
  911YOPE   C4A13420  14.265   3.994   7.956 -0.1197 -0.0339 -0.0224
  911YOPE   C1B13421  15.084   3.876   6.837  0.0908  0.0334 -0.2047
  911YOPE   C2B13422  15.041   3.891   7.286 -0.1491  0.2699 -0.2798
  911YOPE   D3B13423  14.734   3.798   7.673  0.0612 -0.1664  0.3602
  911YOPE   C4B13424  14.659   3.623   7.987 -0.2762 -0.0204  0.1097
  912YOPE   NH313425   8.116   4.015   6.366  0.1622  0.0473  0.1127
  912YOPE   PO413426   8.358   3.757   6.140 -0.0237  0.1126  0.3114
  912YOPE   GL113427   8.661   3.457   6.435  0.1403  0.0128  0.0299
  912YOPE   GL213428   8.817   3.616   6.747  0.0107  0.0887 -0.1521
  912YOPE   C1A13429   8.589   3.141   6.664 -0.0754  0.2629  0.0562
  912YOPE   D2A13430   8.654   2.940   6.982 -0.1114  0.0967  0.1652
  912YOPE   C3A13431   8.956   3.082   7.308 -0.1347 -0.2359  0.0275
  912YOPE   C4A13432   9.082   3.183   7.691  0.2187 -0.2636 -0.0251
  912YOPE   C1B13433   8.733   3.478   7.155 -0.0560 -0.0073  0.0258
  912YOPE   C2B13434   8.501   3.406   7.557  0.1551  0.2111 -0.1765
  912YOPE   D3B13435   8.129   3.378   7.912 -0.1390 -0.0839  0.1153
  912YOPE   C4B13436   7.788   3.165   8.143 -0.0353 -0.1751 -0.1018
  913YOPE   NH313437  17.060   0.296   6.256  0.1583 -0.2203 -0.1049
  913YOPE   PO413438  17.277   0.035   5.998  0.2861 -0.1730 -0.3973
  913YOPE   GL113439  17.418  -0.019   6.484  0.2879  0.0477 -0.0463
  913YOPE   GL213440  17.225   0.210   6.743 -0.1394  0.0538  0.3166
  913YOPE   C1A13441  17.317  -0.359   6.810 -0.1097  0.0324  0.1220
  913YOPE   D2A13442  17.274  -0.377   7.211 -0.0250 -0.1107  0.0553
  913YOPE   C3A13443  17.543  -0.182   7.639 -0.0107  0.2119  0.1225
  913YOPE   C4A13444  17.866  -0.043   7.898  0.0095  0.2026  0.0860
  913YOPE   C1B13445  17.398   0.164   7.101  0.0125 -0.0568  0.0127
  913YOPE   C2B13446  17.401   0.315   7.516 -0.0553  0.0643 -0.1489
  913YOPE   D3B13447  17.406   0.152   7.960  0.1208 -0.1893  0.0983
  913YOPE   C4B13448  17.169   0.034   8.332  0.0165 -0.0967  0.1822
  914YOPE   NH313449  11.597   6.145   5.892  0.0386 -0.1173 -0.2486
  914YOPE   PO413450  11.936   5.741   5.842 -0.0474  0.1689  0.2211
  914YOPE   GL113451  11.881   5.964   6.310 -0.0542  0.0081 -0.0648
  914YOPE   GL213452  12.163   6.119   6.305 -0.1092  0.3463 -0.0815
  914YOPE   C1A13453  11.608   5.878   6.550 -0.1237  0.0924 -0.1963
  914YOPE   D2A13454  11.311   5.860   6.978 -0.5584  0.2068 -0.1833
  914YOPE   C3A13455  11.390   5.913   7.344  0.0059 -0.0563  0.0797
  914YOPE   C4A13456  11.556   5.741   7.627  0.2219  0.0557 -0.0204
  914YOPE   C1B13457  12.328   6.099   6.678  0.1790  0.1471  0.2416
  914YOPE   C2B13458  12.351   6.156   7.085  0.4653 -0.1163  0.0410
  914YOPE   D3B13459  12.536   6.145   7.513 -0.3182 -0.0749  0.1409
  914YOPE   C4B13460  12.546   6.040   7.889 -0.2955  0.1784 -0.2022
  915YOPE   NH313461   0.521  17.037   6.198  0.0683 -0.1344 -0.3031
  915YOPE   PO413462   0.115  16.779   6.276  0.0296 -0.0601  0.0702
  915YOPE   GL113463   0.367  16.646   6.528 -0.2160 -0.0372 -0.0385
  915YOPE   GL213464   0.648  16.383   6.525  0.2595 -0.0763 -0.0819
  915YOPE   C1A13465   0.566  16.711   6.881 -0.2344  0.3377 -0.5913
  915YOPE   D2A13466   0.753  16.914   7.142 -0.0967 -0.1390  0.0643
  915YOPE   C3A13467   0.931  16.996   7.473 -0.1508  0.0380 -0.0210
  915YOPE   C4A13468   1.045  17.075   7.909 -0.0111  0.0169 -0.0954
  915YOPE   C1B13469   0.363  16.210   6.939 -0.1357 -0.2119 -0.0067
  915YOPE   C2B13470   0.308  16.336   7.323 -0.3434  0.1647 -0.1775
  915YOPE   D3B13471   0.257  16.392   7.664  0.0572 -0.0145 -0.0413
  915YOPE   C4B13472   0.204  16.672   8.045  0.0536  0.0187 -0.0908
  916YOPE   NH313473  13.770  17.448   6.369  0.1514  0.1068 -0.3993
  916YOPE   PO413474  13.593  17.091   6.601  0.0444  0.2201 -0.1118
  916YOPE   GL113475  13.672  17.375   6.908  0.0310 -0.1536  0.1029
  916YOPE   GL213476  13.932  17.317   6.846 -0.1912 -0.1996  0.0925
  916YOPE   C1A13477  13.376  17.584   7.159  0.0805 -0.1286  0.0872
  916YOPE   D2A13478  13.233  17.671   7.517  0.0682 -0.1001  0.0290
  916YOPE   C3A13479  13.538  17.706   7.825  0.0338  0.0008  0.1527
  916YOPE   C4A13480  13.615  17.338   8.123  0.2949  0.0837  0.1566
  916YOPE   C1B13481  13.924  17.244   7.304 -0.2557 -0.1505  0.0906
  916YOPE   C2B13482  13.889  17.256   7.637 -0.0166  0.3127 -0.4213
  916YOPE   D3B13483  14.047  17.138   7.976 -0.0279 -0.2651  0.0647
  916YOPE   C4B13484  14.347  16.994   8.285 -0.0293 -0.2089  0.0110
  917YOPE   NH313485  15.824   1.065   5.997  0.2225 -0.2046 -0.1244
  917YOPE   PO413486  16.220   1.048   6.066 -0.0042 -0.1709 -0.2186
  917YOPE   GL113487  16.169   1.139   6.473 -0.1718 -0.0970  0.1364
  917YOPE   GL213488  16.236   1.463   6.474 -0.3745 -0.0547  0.2558
  917YOPE   C1A13489  15.999   0.976   6.779  0.2559 -0.0906  0.0154
  917YOPE   D2A13490  16.088   0.945   7.201  0.0303 -0.0591  0.1778
  917YOPE   C3A13491  16.023   0.930   7.695  0.1752  0.0891 -0.0542
  917YOPE   C4A13492  16.182   1.038   8.107 -0.2614  0.0270  0.0299
  917YOPE   C1B13493  16.203   1.455   6.870 -0.0718 -0.2201  0.1420
  917YOPE   C2B13494  16.173   1.463   7.315  0.0534  0.0035 -0.1708
  917YOPE   D3B13495  16.226   1.437   7.746 -0.1888  0.0522 -0.2036
  917YOPE   C4B13496  16.459   1.529   8.132 -0.0227 -0.1532 -0.1037
  918YOPE   NH313497  17.735  10.702   5.983 -0.0077 -0.3461 -0.0631
  918YOPE   PO413498  17.516  10.493   6.298  0.2638 -0.3086  0.5103
  918YOPE   GL113499  17.571  10.463   6.722  0.3249 -0.1528  0.0427
  918YOPE   GL213500  17.853  10.540   6.815  0.1779  0.0093 -0.0255
  918YOPE   C1A13501  17.520  10.740   7.106  0.0856 -0.0672 -0.0629
  918YOPE   D2A13502  17.780  10.965   7.507 -0.1498 -0.0855  0.0528
  918YOPE   C3A13503  17.603  10.907   7.850  0.1759  0.0885 -0.0104
  918YOPE   C4A13504  17.467  10.719   8.216 -0.0750 -0.0922 -0.1616
  918YOPE   C1B13505  18.124  10.442   7.072 -0.0138  0.1746 -0.0681
  918YOPE   C2B13506  18.165  10.402   7.503  0.3048  0.0647 -0.0789
  918YOPE   D3B13507  18.280  10.453   7.900 -0.1717 -0.3617  0.2502
  918YOPE   C4B13508  18.466  10.631   8.222 -0.1094  0.0139  0.2983
  919YOPE   NH313509  17.168   8.347   6.415  0.0966  0.1606  0.0051
  919YOPE   PO413510  16.665   8.363   6.290  0.1347  0.2944  0.0824
  919YOPE   GL113511  16.488   7.965   6.567 -0.1491 -0.0706  0.0316
  919YOPE   GL213512  16.222   8.007   6.628  0.1450 -0.0466  0.4031
  919YOPE   C1A13513  16.540   7.952   7.025 -0.1883  0.3510  0.0731
  919YOPE   D2A13514  16.366   7.957   7.465  0.1845 -0.0576 -0.1142
  919YOPE   C3A13515  16.342   8.157   7.810  0.0003  0.1364  0.0202
  919YOPE   C4A13516  16.598   8.525   8.038 -0.1009 -0.0702 -0.0268
  919YOPE   C1B13517  16.097   8.139   6.932  0.1544 -0.2071  0.0451
  919YOPE   C2B13518  16.001   8.311   7.355  0.0302  0.1257  0.1310
  919YOPE   D3B13519  15.852   8.347   7.723 -0.0434 -0.3129 -0.0109
  919YOPE   C4B13520  16.066   8.525   7.979 -0.2551  0.2926 -0.1861
  920YOPE   NH313521  14.118   6.694   5.766  0.0343 -0.1511 -0.3215
  920YOPE   PO413522  13.732   6.828   5.827 -0.0204 -0.0893 -0.1205
  920YOPE   GL113523  13.580   6.804   6.241 -0.2897 -0.1483 -0.0259
  920YOPE   GL213524  13.529   7.192   6.289  0.0012 -0.0722  0.1871
  920YOPE   C1A13525  13.683   6.735   6.771  0.3037 -0.1409 -0.0170
  920YOPE   D2A13526  13.720   6.653   7.276  0.2800  0.1561 -0.1210
  920YOPE   C3A13527  13.829   6.910   7.643 -0.0593  0.3108 -0.1786
  920YOPE   C4A13528  13.578   6.968   8.025 -0.1819 -0.0089 -0.2236
  920YOPE   C1B13529  13.241   7.175   6.730  0.2702 -0.0218 -0.1803
  920YOPE   C2B13530  13.224   7.262   7.158 -0.0450  0.2044  0.2017
  920YOPE   D3B13531  13.411   7.415   7.515 -0.1177  0.0750  0.1615
  920YOPE   C4B13532  13.596   7.457   7.925  0.2002  0.2295 -0.3304
  921YOPE   NH313533  11.731  10.700   6.176 -0.2060 -0.3947 -0.0879
  921YOPE   PO413534  11.682  11.034   6.521 -0.0980  0.1607 -0.0699
  921YOPE   GL113535  11.844  10.971   6.814  0.1798  0.0924 -0.0482
  921YOPE   GL213536  12.139  11.039   6.846  0.1740  0.1227  0.2780
  921YOPE   C1A13537  11.835  10.995   7.248  0.0136 -0.0226  0.0593
  921YOPE   D2A13538  11.974  10.877   7.612  0.2932  0.1343 -0.4674
  921YOPE   C3A13539  12.078  11.081   8.029  0.3338 -0.0289  0.0892
  921YOPE   C4A13540  12.235  11.344   8.392  0.0834 -0.4303  0.1638
  921YOPE   C1B13541  12.313  10.949   7.251  0.0099 -0.0177  0.0212
  921YOPE   C2B13542  12.584  10.834   7.484  0.0704 -0.0421  0.0451
  921YOPE   D3B13543  12.933  10.855   7.852  0.3305 -0.2021 -0.1279
  921YOPE   C4B13544  13.348  10.906   8.101  0.0835 -0.1735 -0.0074
  922YOPE   NH313545  10.658  17.046   6.267 -0.0506  0.0041 -0.1803
  922YOPE   PO413546  10.885  17.414   6.247 -0.2546  0.0845 -0.2598
  922YOPE   GL113547  10.778  17.672   6.676  0.1145 -0.0451  0.4050
  922YOPE   GL213548  10.760  17.851   6.494  0.0237 -0.1081 -0.0571
  922YOPE   C1A13549  10.551  17.864   7.007  0.3141  0.0369  0.0105
  922YOPE   D2A13550  10.461  17.790   7.492 -0.0456 -0.0504 -0.1401
  922YOPE   C3A13551  10.635  18.086   7.816 -0.1448  0.1233  0.0362
  922YOPE   C4A13552  10.587  18.276   8.168 -0.0461 -0.2358  0.2933
  922YOPE   C1B13553  10.971  18.100   6.838 -0.0102  0.2590  0.0270
  922YOPE   C2B13554  10.860  18.114   7.300 -0.0233 -0.2058  0.0077
  922YOPE   D3B13555  11.053  18.326   7.716 -0.1352 -0.1076  0.2577
  922YOPE   C4B13556  11.112  18.370   8.069 -0.1606 -0.1724 -0.3247
  923YOPE   NH313557  17.488  14.714   5.898 -0.4693  0.0480 -0.1243
  923YOPE   PO413558  17.898  14.706   5.821 -0.2667 -0.0355 -0.4344
  923YOPE   GL113559  17.874  14.431   6.157 -0.2382 -0.2714 -0.5235
  923YOPE   GL213560  17.570  14.265   6.095  0.1680  0.0280  0.0307
  923YOPE   C1A13561  17.786  14.150   6.501 -0.3481 -0.2812  0.1012
  923YOPE   D2A13562  17.500  13.828   6.679 -0.3722  0.4060 -0.1135
  923YOPE   C3A13563  17.575  13.796   7.155  0.0128  0.2156 -0.1998
  923YOPE   C4A13564  17.465  13.758   7.592  0.0399 -0.2821  0.0431
  923YOPE   C1B13565  17.551  14.569   6.530  0.4115  0.2916  0.2374
  923YOPE   C2B13566  17.603  14.818   6.964  0.2492 -0.1736  0.0656
  923YOPE   D3B13567  17.729  14.804   7.420  0.2005 -0.3406 -0.1456
  923YOPE   C4B13568  17.704  14.939   7.807 -0.1840  0.1342  0.1098
  924YOPE   NH313569  12.551  12.898   6.049  0.1477 -0.1828  0.0379
  924YOPE   PO413570  12.268  13.282   6.206 -0.1610 -0.3035 -0.1891
  924YOPE   GL113571  12.246  13.490   6.680  0.0160 -0.0228  0.1626
  924YOPE   GL213572  12.091  13.133   6.906 -0.2294  0.0980  0.1659
  924YOPE   C1A13573  12.312  13.474   7.161  0.2481 -0.0307 -0.1022
  924YOPE   D2A13574  12.305  13.349   7.550 -0.1568 -0.2712 -0.3589
  924YOPE   C3A13575  12.505  13.423   7.982 -0.0754 -0.2043 -0.0388
  924YOPE   C4A13576  12.737  13.247   8.335 -0.0291 -0.4217 -0.2487
  924YOPE   C1B13577  12.373  12.934   7.180 -0.0972 -0.0064 -0.0683
  924YOPE   C2B13578  12.402  12.832   7.667 -0.1383 -0.3316 -0.2666
  924YOPE   D3B13579  12.231  13.042   8.042 -0.1213  0.2137  0.0145
  924YOPE   C4B13580  11.891  12.917   8.315 -0.2787 -0.0978  0.0595
  925YOPE   NH313581   0.575   4.974   6.171  0.1314  0.0056  0.4414
  925YOPE   PO413582   0.489   4.604   6.201  0.0388 -0.1927 -0.0609
  925YOPE   GL113583   0.462   4.252   6.559  0.0817 -0.0918 -0.0592
  925YOPE   GL213584   0.736   4.213   6.646  0.1667 -0.0871 -0.1842
  925YOPE   C1A13585   0.274   4.312   6.944  0.0864 -0.2954  0.0187
  925YOPE   D2A13586   0.224   4.371   7.340  0.1063  0.1711  0.0383
  925YOPE   C3A13587   0.458   4.316   7.796 -0.1283  0.1122  0.2282
  925YOPE   C4A13588   0.324   4.053   8.118 -0.5236  0.3125  0.2412
  925YOPE   C1B13589   0.698   4.156   7.125 -0.0738  0.1582  0.0065
  925YOPE   C2B13590   0.746   3.980   7.563 -0.0022  0.1251 -0.0303
  925YOPE   D3B13591   0.867   4.026   8.004 -0.1311 -0.0193  0.1758
  925YOPE   C4B13592   1.041   4.263   8.449  0.0621 -0.0652 -0.1920
  926YOPE   NH313593  12.418  12.921   6.572  0.1865  0.0896 -0.0486
  926YOPE   PO413594  12.146  12.668   6.232  0.1544 -0.0642  0.1387
  926YOPE   GL113595  12.020  12.484   6.613  0.1097  0.0386 -0.0566
  926YOPE   GL213596  11.649  12.408   6.432 -0.1313  0.3046 -0.0342
  926YOPE   C1A13597  12.006  12.521   7.022 -0.0662 -0.0345 -0.2047
  926YOPE   D2A13598  12.155  12.490   7.418  0.0308 -0.4084  0.0738
  926YOPE   C3A13599  12.376  12.216   7.638  0.1309  0.2081 -0.0069
  926YOPE   C4A13600  12.674  12.235   8.030 -0.2061 -0.5152  0.1380
  926YOPE   C1B13601  11.625  12.185   6.876 -0.1669 -0.1343 -0.2522
  926YOPE   C2B13602  11.549  12.305   7.324 -0.0511  0.1800  0.1229
  926YOPE   D3B13603  11.450  12.385   7.647  0.0258 -0.2299 -0.2354
  926YOPE   C4B13604  11.406  12.575   8.017  0.0707 -0.1006 -0.0142
  927YOPE   NH313605   4.401   8.822   6.645  0.4199  0.1404  0.0708
  927YOPE   PO413606   4.757   8.879   6.323 -0.0874  0.0758  0.0387
  927YOPE   GL113607   4.757   9.145   6.794 -0.4019 -0.1651  0.0023
  927YOPE   GL213608   4.629   9.301   6.812 -0.0541 -0.2179 -0.1780
  927YOPE   C1A13609   4.615   9.068   7.266  0.0120 -0.4923 -0.1707
  927YOPE   D2A13610   4.532   9.251   7.648  0.0100  0.0104  0.0479
  927YOPE   C3A13611   4.460   9.189   7.988  0.1766 -0.1597 -0.0578
  927YOPE   C4A13612   4.095   9.003   8.100 -0.0667  0.0759 -0.1381
  927YOPE   C1B13613   4.574   9.527   7.172 -0.1234 -0.1859 -0.1350
  927YOPE   C2B13614   4.755   9.808   7.492 -0.3394 -0.1947 -0.2346
  927YOPE   D3B13615   4.781   9.660   7.906 -0.0338 -0.1888 -0.3347
  927YOPE   C4B13616   4.766   9.801   8.333  0.0939 -0.1081 -0.3057
  928YOPE   NH313617  17.463  10.023   6.490 -0.0572  0.0222  0.1668
  928YOPE   PO413618  17.572   9.563   6.532 -0.2036 -0.1043  0.2364
  928YOPE   GL113619  17.775   9.882   6.816  0.0022 -0.3945  0.1601
  928YOPE   GL213620  18.069   9.976   6.843  0.2606  0.1013 -0.2988
  928YOPE   C1A13621  17.675  10.180   7.160 -0.2460  0.1022  0.0604
  928YOPE   D2A13622  17.593  10.412   7.515  0.2236 -0.1262  0.4791
  928YOPE   C3A13623  17.766  10.464   7.891 -0.0171 -0.2676  0.2005
  928YOPE   C4A13624  17.837  10.089   8.249 -0.0095 -0.1722 -0.2820
  928YOPE   C1B13625  18.383  10.040   7.225  0.2144 -0.1440 -0.3010
  928YOPE   C2B13626  18.728  10.127   7.623 -0.2325  0.2434 -0.1039
  928YOPE   D3B13627  18.750  10.211   8.088 -0.2771 -0.0674  0.0873
  928YOPE   C4B13628  18.809  10.384   8.438  0.4600  0.0973  0.1360
  929YOPE   NH313629   7.669   4.409   6.168  0.4395 -0.1204 -0.1100
  929YOPE   PO413630   7.596   4.088   6.307  0.0231  0.0342  0.0633
  929YOPE   GL113631   7.747   4.188   6.655  0.3081  0.2109  0.1307
  929YOPE   GL213632   7.765   3.840   6.705  0.2372 -0.1583 -0.0308
  929YOPE   C1A13633   7.812   4.282   7.046 -0.1971  0.0347 -0.0270
  929YOPE   D2A13634   7.897   4.264   7.460 -0.0884 -0.2138 -0.4128
  929YOPE   C3A13635   7.661   4.312   7.737  0.1845 -0.0774 -0.1598
  929YOPE   C4A13636   7.204   4.322   8.009  0.2409 -0.2270  0.1672
  929YOPE   C1B13637   7.649   3.848   7.156  0.1474  0.0435  0.1473
  929YOPE   C2B13638   7.476   3.846   7.580  0.0354 -0.1138  0.2071
  929YOPE   D3B13639   7.452   3.880   8.009 -0.0005  0.0129 -0.0090
  929YOPE   C4B13640   7.565   3.755   8.356 -0.0054  0.2699 -0.3440
  930YOPE   NH313641   3.656   5.591   6.289  0.1302 -0.3163  0.4481
  930YOPE   PO413642   4.003   5.866   6.209  0.3516 -0.0368 -0.5469
  930YOPE   GL113643   3.804   6.072   6.569  0.0373 -0.2061  0.1769
  930YOPE   GL213644   4.123   6.076   6.739  0.1340 -0.0967 -0.1065
  930YOPE   C1A13645   3.555   6.107   6.937  0.0692 -0.1525 -0.3115
  930YOPE   D2A13646   3.502   6.164   7.420  0.1485  0.0500  0.3736
  930YOPE   C3A13647   3.372   6.079   7.730  0.1189  0.0665  0.0582
  930YOPE   C4A13648   3.386   5.922   8.162  0.0105  0.2519 -0.1225
  930YOPE   C1B13649   3.993   5.899   7.210  0.1852  0.2947  0.1677
  930YOPE   C2B13650   3.946   5.743   7.551 -0.3923  0.0525 -0.0394
  930YOPE   D3B13651   3.940   5.731   8.043  0.1776  0.3230 -0.1134
  930YOPE   C4B13652   3.734   5.565   8.403 -0.1666  0.0733  0.0561
  931YOPE   NH313653   5.283  11.549   6.302 -0.1547 -0.2118  0.2474
  931YOPE   PO413654   5.043  11.913   6.241 -0.0906 -0.1719 -0.0246
  931YOPE   GL113655   5.155  11.919   6.670 -0.0964  0.1764 -0.3674
  931YOPE   GL213656   5.366  11.760   6.748 -0.2360 -0.1724 -0.3139
  931YOPE   C1A13657   4.997  12.012   7.108 -0.1481 -0.1153  0.1869
  931YOPE   D2A13658   4.712  12.179   7.376  0.0528 -0.1330 -0.1318
  931YOPE   C3A13659   4.382  12.192   7.562  0.1058  0.1709  0.0750
  931YOPE   C4A13660   4.244  12.220   8.000 -0.0064 -0.0737  0.2888
  931YOPE   C1B13661   5.406  11.766   7.226 -0.2255 -0.0746 -0.0933
  931YOPE   C2B13662   5.476  11.633   7.751  0.0006  0.2586  0.0149
  931YOPE   D3B13663   5.455  11.474   8.202  0.3641  0.4139 -0.2320
  931YOPE   C4B13664   5.791  11.300   8.503 -0.1236 -0.0642  0.0524
  932POPC   NC313665   4.628  13.403   5.511  0.0482  0.0624 -0.1890
  932POPC   PO413666   4.355  13.220   5.899 -0.1947  0.1756 -0.1943
  932POPC   GL113667   4.159  13.050   6.309 -0.0347 -0.0928  0.1142
  932POPC   GL213668   4.286  13.103   6.595  0.0032  0.0956 -0.0488
  932POPC   C1A13669   3.871  12.884   6.642 -0.1530  0.0570  0.0480
  932POPC   D2A13670   3.807  12.831   7.095  0.0121 -0.1411 -0.0012
  932POPC   C3A13671   3.433  12.636   7.284  0.0435 -0.0571  0.1786
  932POPC   C4A13672   3.415  12.739   7.697 -0.0566 -0.0464  0.1814
  932POPC   C1B13673   4.440  13.062   7.033  0.1083 -0.1169 -0.1152
  932POPC   C2B13674   4.630  13.191   7.423 -0.0374  0.0028  0.0989
  932POPC   C3B13675   4.725  13.446   7.786  0.0201  0.2554 -0.1117
  932POPC   C4B13676   4.912  13.651   8.231 -0.1891  0.0753  0.1664
  933POPC   NC313677  15.008  14.591   6.397  0.0322  0.0423 -0.0568
  933POPC   PO413678  15.397  14.457   6.411  0.0385  0.0967 -0.4637
  933POPC   GL113679  15.528  14.433   6.743 -0.0118  0.2563  0.3455
  933POPC   GL213680  15.787  14.631   6.911  0.4041  0.2733 -0.5007
  933POPC   C1A13681  15.532  14.278   7.198  0.1813  0.0615  0.2022
  933POPC   D2A13682  15.922  14.259   7.479 -0.0587  0.0070 -0.2902
  933POPC   C3A13683  16.094  13.883   7.703 -0.2258 -0.2849 -0.4440
  933POPC   C4A13684  16.532  13.844   7.801 -0.2309  0.0341 -0.0804
  933POPC   C1B13685  15.634  14.776   7.327  0.0871  0.0588 -0.0906
  933POPC   C2B13686  15.333  14.955   7.551  0.2083 -0.0549 -0.0955
  933POPC   C3B13687  14.985  14.788   7.858 -0.0326 -0.1503 -0.0813
  933POPC   C4B13688  14.650  14.597   8.009 -0.1141 -0.3009 -0.0743
  934POPC   NC313689   0.942   9.127   6.320  0.3503  0.1482 -0.0469
  934POPC   PO413690   1.143   8.817   6.563 -0.0324  0.0834 -0.0499
  934POPC   GL113691   1.139   8.838   6.905  0.0099 -0.2141  0.4639
  934POPC   GL213692   1.009   8.669   7.047 -0.0215  0.1410 -0.0583
  934POPC   C1A13693   1.409   8.926   7.267 -0.0084  0.0870  0.2024
  934POPC   D2A13694   1.724   8.887   7.493 -0.0150 -0.2837  0.0056
  934POPC   C3A13695   1.800   8.587   7.812  0.3590  0.1261  0.0034
  934POPC   C4A13696   1.701   8.206   8.121  0.1011 -0.0115 -0.1525
  934POPC   C1B13697   1.041   8.733   7.464 -0.1538 -0.1688 -0.3435
  934POPC   C2B13698   1.338   8.805   7.772 -0.2919 -0.2243 -0.1041
  934POPC   C3B13699   1.542   8.731   8.248  0.3588  0.0698  0.1160
  934POPC   C4B13700   1.677   8.450   8.602 -0.2032 -0.0397  0.1368
  935POPC   NC313701  11.280  12.433   6.136  0.1588  0.0899  0.2130
  935POPC   PO413702  11.250  11.925   6.255 -0.3175 -0.1124 -0.0618
  935POPC   GL113703  11.019  11.824   6.692 -0.0600  0.0604  0.3348
  935POPC   GL213704  11.146  11.541   6.805  0.0280  0.2198  0.0580
  935POPC   C1A13705  11.217  12.000   7.070  0.1874  0.0032  0.0678
  935POPC   D2A13706  11.285  11.931   7.543 -0.1164  0.1283 -0.1980
  935POPC   C3A13707  11.129  11.585   7.745  0.3308  0.0539 -0.1253
  935POPC   C4A13708  11.130  11.309   8.150 -0.1709  0.1967 -0.0424
  935POPC   C1B13709  10.789  11.707   7.154  0.0063  0.2083 -0.3046
  935POPC   C2B13710  10.660  11.854   7.523 -0.0357 -0.1606  0.1286
  935POPC   C3B13711  10.712  11.982   7.977  0.1841 -0.1345 -0.4932
  935POPC   C4B13712  10.634  12.203   8.374 -0.2909  0.1682  0.0376
  936POPC   NC313713   1.285   4.120   6.075  0.1442  0.2117 -0.0441
  936POPC   PO413714   0.935   3.924   6.293  0.0630  0.0420 -0.1296
  936POPC   GL113715   0.950   3.707   6.591 -0.1145 -0.1287 -0.0704
  936POPC   GL213716   1.250   3.685   6.623 -0.3052 -0.0515  0.0625
  936POPC   C1A13717   0.746   3.654   6.969 -0.0909  0.1232  0.0269
  936POPC   D2A13718   0.774   3.419   7.389  0.2116 -0.0656 -0.1476
  936POPC   C3A13719   0.533   3.501   7.652 -0.1226 -0.1689  0.1299
  936POPC   C4A13720   0.583   3.582   8.008  0.0645 -0.2062  0.1671
  936POPC   C1B13721   1.243   3.788   7.042  0.1494 -0.3539  0.0260
  936POPC   C2B13722   1.199   3.677   7.431  0.1789 -0.0886 -0.0007
  936POPC   C3B13723   1.028   3.589   7.829  0.1169  0.1330  0.1898
  936POPC   C4B13724   1.187   3.696   8.271  0.1822  0.0910 -0.0196
  937POPC   NC313725   8.666  14.177   6.481  0.0711 -0.1579 -0.0263
  937POPC   PO413726   8.992  13.884   6.544  0.0535 -0.1365  0.2573
  937POPC   GL113727   8.956  13.910   6.885 -0.1962  0.0699  0.3576
  937POPC   GL213728   8.905  14.212   6.980  0.0782  0.0045 -0.2031
  937POPC   C1A13729   8.903  13.836   7.345  0.2796 -0.2126  0.0960
  937POPC   D2A13730   8.967  13.958   7.760 -0.1233  0.1009  0.4295
  937POPC   C3A13731   9.303  13.740   7.933 -0.0298  0.0263 -0.2397
  937POPC   C4A13732   9.512  13.798   8.249 -0.1973  0.2015 -0.2058
  937POPC   C1B13733   9.049  14.387   7.332  0.0776 -0.1339 -0.2672
  937POPC   C2B13734   8.941  14.549   7.738 -0.1563  0.3353 -0.3551
  937POPC   C3B13735   9.058  14.493   8.151 -0.4285  0.1387 -0.0251
  937POPC   C4B13736   8.919  14.501   8.551 -0.1087 -0.0681 -0.0179
  938POPC   NC313737  15.364  15.290   5.921  0.1259 -0.0724 -0.0147
  938POPC   PO413738  15.573  15.597   6.162  0.2927 -0.1844 -0.1551
  938POPC   GL113739  15.688  15.648   6.561 -0.1361  0.0385 -0.0704
  938POPC   GL213740  15.609  15.624   6.794  0.2264 -0.1470  0.0375
  938POPC   C1A13741  15.954  16.060   6.771  0.1938  0.2300 -0.4530
  938POPC   D2A13742  16.106  16.087   7.201  0.0936 -0.2954  0.1881
  938POPC   C3A13743  16.524  15.995   7.153 -0.1433 -0.1208  0.1016
  938POPC   C4A13744  16.788  15.804   7.521 -0.0980  0.0903 -0.1442
  938POPC   C1B13745  15.561  15.749   7.201  0.0457  0.3269  0.1562
  938POPC   C2B13746  15.778  15.963   7.512  0.1339 -0.0471 -0.0325
  938POPC   C3B13747  16.029  15.979   7.788 -0.0840  0.0879 -0.1211
  938POPC   C4B13748  16.126  16.006   8.147 -0.0679  0.2385  0.1697
  939POPC   NC313749  12.350   1.076   6.046 -0.0525  0.0692 -0.0822
  939POPC   PO413750  12.607   0.670   6.109  0.0563  0.1815  0.2604
  939POPC   GL113751  12.656   0.974   6.432 -0.0393 -0.0716  0.1837
  939POPC   GL213752  12.860   0.722   6.611  0.3265 -0.0882 -0.1782
  939POPC   C1A13753  12.696   0.982   7.007  0.0195  0.1660  0.2015
  939POPC   D2A13754  12.896   0.895   7.300 -0.1826  0.1761  0.0747
  939POPC   C3A13755  12.907   0.688   7.613 -0.0213  0.1335  0.0379
  939POPC   C4A13756  13.301   0.601   7.837  0.1916 -0.0377  0.2332
  939POPC   C1B13757  12.974   0.523   7.032 -0.1111  0.1937 -0.2235
  939POPC   C2B13758  12.930   0.261   7.391  0.1163 -0.0745  0.0383
  939POPC   C3B13759  12.905   0.152   7.810  0.1879 -0.2099  0.0940
  939POPC   C4B13760  12.780   0.349   8.090 -0.0550 -0.2560 -0.2235
  940POPC   NC313761  17.132  17.010   6.170  0.2652  0.3864  0.2136
  940POPC   PO413762  17.288  16.571   6.041 -0.0344 -0.0929  0.2760
  940POPC   GL113763  17.454  16.662   6.442 -0.2238  0.0375 -0.3510
  940POPC   GL213764  17.547  16.884   6.566 -0.2686 -0.2884 -0.1000
  940POPC   C1A13765  17.391  16.503   6.848  0.1250  0.1755  0.1086
  940POPC   D2A13766  17.540  16.359   7.221  0.2058 -0.1455  0.0591
  940POPC   C3A13767  17.583  16.599   7.640  0.1455 -0.0726  0.1258
  940POPC   C4A13768  17.507  16.651   8.081 -0.2660  0.2763  0.1215
  940POPC   C1B13769  17.278  16.947   6.974 -0.1090 -0.2452  0.0187
  940POPC   C2B13770  17.290  16.873   7.336  0.1798  0.2312 -0.0690
  940POPC   C3B13771  17.125  16.807   7.823 -0.2317 -0.0378  0.0304
  940POPC   C4B13772  16.950  16.955   8.144 -0.0339  0.1838 -0.1272
  941POPC   NC313773   0.816   1.276   5.884 -0.2228  0.3199 -0.3204
  941POPC   PO413774   0.431   1.081   6.017 -0.0179 -0.0070  0.3326
  941POPC   GL113775   0.622   0.687   6.023  0.1390 -0.1270  0.1344
  941POPC   GL213776   0.312   0.593   6.287 -0.2530  0.1738 -0.1563
  941POPC   C1A13777   0.876   0.464   6.375 -0.3363 -0.2830 -0.0375
  941POPC   D2A13778   0.889   0.007   6.559 -0.2403 -0.3179  0.0477
  941POPC   C3A13779   0.615  -0.028   6.803 -0.1556  0.1351  0.3551
  941POPC   C4A13780   0.477   0.053   7.205 -0.0330 -0.0182  0.0387
  941POPC   C1B13781   0.451   0.409   6.644 -0.0367  0.1500  0.2752
  941POPC   C2B13782   0.552   0.520   6.990 -0.1980 -0.1298 -0.1479
  941POPC   C3B13783   0.712   0.546   7.412 -0.0015  0.3608 -0.2920
  941POPC   C4B13784   1.239   0.567   7.431 -0.1377  0.0285  0.2520
  942POPC   NC313785  17.103  11.794   6.088 -0.0255 -0.0173  0.0252
  942POPC   PO413786  17.064  12.219   6.367 -0.1443  0.2250 -0.0444
  942POPC   GL113787  17.297  12.455   6.668  0.2959  0.2539  0.0364
  942POPC   GL213788  17.115  12.364   6.816  0.1799 -0.1993 -0.0141
  942POPC   C1A13789  17.564  12.483   6.991 -0.3093 -0.3099  0.0582
  942POPC   D2A13790  17.669  12.869   7.192 -0.1357  0.0465 -0.0627
  942POPC   C3A13791  17.868  13.172   7.338  0.2579 -0.0212  0.4786
  942POPC   C4A13792  17.723  13.338   7.717  0.1355 -0.1033  0.2294
  942POPC   C1B13793  17.364  12.033   6.959  0.0798 -0.3886 -0.1236
  942POPC   C2B13794  17.208  11.731   7.252  0.0729 -0.2625 -0.0976
  942POPC   C3B13795  17.324  11.457   7.600  0.0194 -0.1102  0.4657
  942POPC   C4B13796  17.745  11.420   7.730 -0.0924  0.1637  0.0627
  943POPC   NC313797   5.609  16.534   6.305  0.0285 -0.1297 -0.0180
  943POPC   PO413798   6.003  16.376   6.336  0.1293 -0.1753 -0.0699
  943POPC   GL113799   6.264  16.423   6.655  0.0753 -0.0452 -0.0120
  943POPC   GL213800   6.492  16.083   6.693 -0.1692  0.0213  0.0663
  943POPC   C1A13801   6.383  16.572   7.139 -0.0044 -0.1755 -0.2103
  943POPC   D2A13802   6.412  16.826   7.537 -0.2353 -0.1260 -0.0981
  943POPC   C3A13803   6.411  16.772   7.994  0.0900 -0.3253  0.2587
  943POPC   C4A13804   6.447  16.916   8.472 -0.2479 -0.0172 -0.1721
  943POPC   C1B13805   6.712  16.169   7.082 -0.0279  0.1494 -0.5997
  943POPC   C2B13806   6.643  16.390   7.488 -0.1005 -0.0565 -0.2704
  943POPC   C3B13807   6.447  16.285   7.880  0.0207  0.2208 -0.0630
  943POPC   C4B13808   6.580  16.421   8.272 -0.1366 -0.2624 -0.1332
  944POPC   NC313809  15.795   3.375   5.982  0.0653  0.1061  0.4164
  944POPC   PO413810  15.452   3.529   6.174 -0.1104  0.2029 -0.3486
  944POPC   GL113811  15.526   3.715   6.556  0.0878 -0.1043 -0.2464
  944POPC   GL213812  15.446   3.998   6.585  0.1137  0.0091  0.3120
  944POPC   C1A13813  15.566   3.733   7.000  0.0859 -0.0678 -0.1825
  944POPC   D2A13814  15.644   3.565   7.354 -0.5624  0.2157  0.0889
  944POPC   C3A13815  15.662   3.712   7.702  0.2354 -0.0066 -0.0410
  944POPC   C4A13816  15.653   3.632   8.165  0.0026 -0.0435 -0.2667
  944POPC   C1B13817  15.444   4.206   6.985 -0.3420  0.0772  0.2288
  944POPC   C2B13818  15.436   4.125   7.369 -0.1955 -0.1182 -0.0661
  944POPC   C3B13819  15.217   4.009   7.741  0.0688  0.0063  0.1389
  944POPC   C4B13820  14.881   4.065   8.092  0.0619  0.1915 -0.1238
  945POPC   NC313821   6.450  12.839   6.316 -0.0309  0.2780  0.4668
  945POPC   PO413822   6.904  12.959   6.452 -0.0174 -0.2911 -0.4264
  945POPC   GL113823   6.853  13.027   6.813 -0.0988 -0.0694  0.0572
  945POPC   GL213824   6.563  13.048   6.853  0.1555  0.1038 -0.0166
  945POPC   C1A13825   7.013  13.036   7.170  0.1407  0.1279  0.4141
  945POPC   D2A13826   6.756  13.003   7.589 -0.2850 -0.0754 -0.0266
  945POPC   C3A13827   6.483  12.689   7.725 -0.0217 -0.1674 -0.1429
  945POPC   C4A13828   6.063  12.714   7.890 -0.1905 -0.0552  0.1725
  945POPC   C1B13829   6.425  13.219   7.243 -0.0482 -0.0025  0.1847
  945POPC   C2B13830   6.253  13.125   7.637  0.2228 -0.0871  0.2520
  945POPC   C3B13831   6.250  13.162   8.080  0.1972 -0.1061 -0.0244
  945POPC   C4B13832   6.120  12.860   8.443  0.1176  0.0742  0.0579
  946POPC   NC313833   0.199   1.984   5.804  0.2046  0.1335  0.1129
  946POPC   PO413834  -0.312   1.876   5.907 -0.0560  0.0767 -0.1372
  946POPC   GL113835  -0.131   1.855   6.384  0.1428 -0.1970 -0.1175
  946POPC   GL213836  -0.299   1.787   6.678  0.0537  0.1509 -0.0642
  946POPC   C1A13837   0.216   1.907   6.796  0.3375 -0.0102  0.2005
  946POPC   D2A13838   0.341   1.944   7.208  0.0590 -0.0400 -0.0112
  946POPC   C3A13839   0.420   1.605   7.517 -0.2333 -0.1738 -0.2125
  946POPC   C4A13840   0.420   1.292   7.923 -0.2010  0.0009 -0.0480
  946POPC   C1B13841  -0.091   1.770   7.133  0.2535  0.0144  0.2697
  946POPC   C2B13842  -0.149   1.723   7.555  0.0981  0.0438 -0.0158
  946POPC   C3B13843  -0.032   1.559   7.855 -0.2234  0.1082 -0.0534
  946POPC   C4B13844  -0.288   1.336   8.097 -0.2662 -0.3547  0.0548
  947POPC   NC313845   5.166   5.144   6.263 -0.1044 -0.2769  0.0613
  947POPC   PO413846   5.374   5.501   6.405 -0.1009  0.0164 -0.1086
  947POPC   GL113847   5.544   5.615   6.767  0.0808  0.0089  0.0118
  947POPC   GL213848   5.599   5.935   6.788 -0.1538  0.1111  0.1503
  947POPC   C1A13849   5.461   5.589   7.172 -0.0991  0.1218  0.3202
  947POPC   D2A13850   5.304   5.743   7.493  0.0916 -0.1559 -0.2301
  947POPC   C3A13851   5.306   5.919   7.891  0.3032 -0.1201 -0.1787
  947POPC   C4A13852   5.140   6.005   8.296 -0.0371  0.1188 -0.1510
  947POPC   C1B13853   5.611   6.086   7.143  0.2218 -0.0244  0.0027
  947POPC   C2B13854   5.515   6.197   7.550 -0.2094 -0.0186 -0.3164
  947POPC   C3B13855   5.667   6.263   8.015 -0.2122 -0.1230  0.3770
  947POPC   C4B13856   5.637   6.048   8.396  0.1995  0.1320 -0.1230
  948POPC   NC313857   7.552  14.621   5.505  0.0553 -0.1071 -0.1953
  948POPC   PO413858   7.528  14.576   5.971 -0.0134  0.3115  0.0975
  948POPC   GL113859   7.541  14.808   6.341  0.1916  0.1141  0.2884
  948POPC   GL213860   7.430  14.647   6.630  0.1773 -0.1377  0.0720
  948POPC   C1A13861   7.813  15.014   6.566  0.2313 -0.1045  0.0781
  948POPC   D2A13862   8.008  15.371   6.688  0.1725  0.1302 -0.0228
  948POPC   C3A13863   7.970  15.697   6.984 -0.2655  0.0282 -0.0219
  948POPC   C4A13864   7.984  16.138   7.114  0.0648  0.0193  0.3983
  948POPC   C1B13865   7.357  15.024   6.743  0.0072 -0.0248  0.1635
  948POPC   C2B13866   7.474  15.535   6.716  0.2152 -0.0829 -0.0017
  948POPC   C3B13867   7.728  15.963   6.625 -0.1516 -0.0963 -0.2534
  948POPC   C4B13868   8.115  16.292   6.690  0.0011 -0.2848  0.1437
  949POPC   NC313869   8.464   8.631   5.584  0.2712  0.1997 -0.2277
  949POPC   PO413870   8.202   8.957   5.818 -0.0458 -0.1110 -0.1338
  949POPC   GL113871   8.303   8.992   6.241 -0.0558 -0.4312 -0.0867
  949POPC   GL213872   8.065   8.796   6.407 -0.2127 -0.1176  0.1864
  949POPC   C1A13873   8.496   9.040   6.610  0.2393 -0.2148  0.1085
  949POPC   D2A13874   8.571   9.382   6.882  0.0150 -0.0602 -0.0037
  949POPC   C3A13875   8.903   9.386   7.123  0.0218 -0.4257 -0.2851
  949POPC   C4A13876   9.105   9.442   7.653 -0.0516  0.2280 -0.1380
  949POPC   C1B13877   8.275   8.414   6.514  0.0029 -0.0817  0.1608
  949POPC   C2B13878   8.301   8.157   6.842  0.3673 -0.0288 -0.1366
  949POPC   C3B13879   8.379   7.746   6.911 -0.1367  0.0481 -0.0141
  949POPC   C4B13880   8.138   7.496   7.116 -0.0409 -0.2090 -0.0238
  950POPC   NC313881  14.885   0.353   5.656 -0.1448  0.1835  0.1951
  950POPC   PO413882  15.014   0.114   6.080 -0.4999 -0.3069  0.0167
  950POPC   GL113883  15.009   0.216   6.499  0.0688 -0.0861 -0.0709
  950POPC   GL213884  14.757   0.011   6.685 -0.0969  0.0055 -0.0856
  950POPC   C1A13885  15.295   0.185   6.797  0.4337  0.0315 -0.1497
  950POPC   D2A13886  15.443   0.085   7.145  0.2664 -0.1534  0.0545
  950POPC   C3A13887  15.468   0.307   7.567  0.3383  0.0857 -0.3540
  950POPC   C4A13888  15.214   0.527   7.833 -0.2771 -0.2141 -0.2413
  950POPC   C1B13889  14.787   0.124   7.129 -0.2801 -0.0720 -0.0308
  950POPC   C2B13890  14.921   0.217   7.601  0.2496  0.1940 -0.0857
  950POPC   C3B13891  14.937   0.175   8.026 -0.1428  0.1899 -0.1183
  950POPC   C4B13892  15.016   0.213   8.420  0.0856  0.3570 -0.0245
  951POPC   NC313893   1.955   7.614   5.759 -0.0319 -0.1853  0.1632
  951POPC   PO413894   1.796   7.344   6.129  0.3072 -0.1902 -0.0238
  951POPC   GL113895   2.056   7.417   6.598 -0.3394  0.1183  0.1702
  951POPC   GL213896   2.390   7.419   6.594  0.0968 -0.2587 -0.1452
  951POPC   C1A13897   1.828   7.447   6.957  0.1366 -0.0819  0.1572
  951POPC   D2A13898   1.968   7.717   7.377 -0.2431  0.2123 -0.5151
  951POPC   C3A13899   1.579   7.766   7.648  0.1732  0.2099 -0.0390
  951POPC   C4A13900   1.376   7.823   8.023  0.1146 -0.0510 -0.1287
  951POPC   C1B13901   2.330   7.368   7.041  0.2796 -0.0501 -0.0034
  951POPC   C2B13902   2.325   7.506   7.589 -0.0082  0.1129 -0.0732
  951POPC   C3B13903   2.700   7.467   7.901  0.0938  0.0640 -0.1705
  951POPC   C4B13904   2.943   7.165   8.022  0.3985 -0.1344 -0.2547
  952POPC   NC313905  15.246  16.401   6.438 -0.1362 -0.1462 -0.1687
  952POPC   PO413906  15.023  16.690   6.515  0.1850 -0.1184  0.0337
  952POPC   GL113907  14.745  16.595   6.812  0.0050  0.0145  0.1093
  952POPC   GL213908  14.484  16.562   6.829 -0.2025 -0.1429  0.1221
  952POPC   C1A13909  14.682  16.680   7.224 -0.2836 -0.1002 -0.1059
  952POPC   D2A13910  14.700  16.503   7.632 -0.0472  0.1589  0.2034
  952POPC   C3A13911  14.703  16.925   7.771 -0.2603  0.1143 -0.1212
  952POPC   C4A13912  14.922  17.156   8.094 -0.0288 -0.1843 -0.2518
  952POPC   C1B13913  14.224  16.496   7.293  0.4751 -0.0550 -0.0640
  952POPC   C2B13914  13.904  16.336   7.634 -0.0455 -0.0489  0.1670
  952POPC   C3B13915  13.848  15.938   7.810  0.2137  0.2333  0.0353
  952POPC   C4B13916  13.658  15.488   7.839 -0.0546 -0.2870  0.4072
  953POPC   NC313917  17.485   1.466   6.214  0.1922 -0.1301 -0.1070
  953POPC   PO413918  17.102   1.541   5.987  0.1981 -0.0233  0.0421
  953POPC   GL113919  16.970   1.315   6.368  0.3060  0.1759  0.0036
  953POPC   GL213920  16.691   1.069   6.326  0.4271  0.2940  0.0332
  953POPC   C1A13921  16.760   1.404   6.664  0.1349 -0.1770  0.3465
  953POPC   D2A13922  16.701   1.398   7.067  0.1315  0.2186  0.2774
  953POPC   C3A13923  16.601   1.780   7.128  0.4789  0.1442  0.3081
  953POPC   C4A13924  16.597   1.998   7.535 -0.3531  0.3640 -0.0742
  953POPC   C1B13925  16.474   1.016   6.902  0.0248  0.1978  0.1364
  953POPC   C2B13926  16.571   1.082   7.423  0.2526  0.1821 -0.1129
  953POPC   C3B13927  16.730   1.324   7.620 -0.0908 -0.2178 -0.3177
  953POPC   C4B13928  16.950   1.621   7.539 -0.0073  0.0665  0.1344
  954POPC   NC313929   3.652   4.800   5.825 -0.1105  0.1215  0.0696
  954POPC   PO413930   3.546   5.106   6.133  0.2457 -0.0734  0.0030
  954POPC   GL113931   3.343   5.287   6.503 -0.2318  0.0017  0.3329
  954POPC   GL213932   3.728   5.298   6.697 -0.0889  0.0425 -0.1353
  954POPC   C1A13933   3.214   5.252   6.846 -0.1758  0.2499 -0.0060
  954POPC   D2A13934   3.191   5.239   7.341 -0.1818 -0.1409 -0.2706
  954POPC   C3A13935   3.065   5.356   7.731  0.0397 -0.1649  0.2001
  954POPC   C4A13936   2.779   5.210   7.916  0.2476 -0.1665  0.0022
  954POPC   C1B13937   3.533   5.635   6.927 -0.1690 -0.0869 -0.1420
  954POPC   C2B13938   3.448   5.672   7.357 -0.1507 -0.1878  0.1397
  954POPC   C3B13939   3.500   5.566   7.755  0.1687  0.1606 -0.0021
  954POPC   C4B13940   3.728   5.297   7.989 -0.1665  0.2585 -0.0729
  955POPC   NC313941   9.894   3.771   6.088  0.0620  0.0708 -0.1301
  955POPC   PO413942   9.799   4.253   6.039 -0.1047 -0.3014  0.0248
  955POPC   GL113943  10.005   4.187   6.411  0.0407  0.0381 -0.1133
  955POPC   GL213944  10.280   4.065   6.258  0.3283  0.1683  0.0317
  955POPC   C1A13945  10.136   4.469   6.722  0.0752  0.2365 -0.0460
  955POPC   D2A13946  10.208   4.409   7.177  0.1709 -0.2017  0.0594
  955POPC   C3A13947   9.808   4.376   7.398  0.0496 -0.0688 -0.1016
  955POPC   C4A13948   9.474   4.676   7.522 -0.0999  0.0490  0.0984
  955POPC   C1B13949  10.441   4.038   6.649  0.1967 -0.2988 -0.0685
  955POPC   C2B13950  10.439   3.918   7.092  0.1011  0.1002  0.2909
  955POPC   C3B13951  10.278   4.094   7.505 -0.1744  0.0891 -0.3254
  955POPC   C4B13952  10.023   3.914   7.929  0.0603 -0.0297  0.1411
  956POPC   NC313953   2.507   6.932   5.978  0.0920 -0.2108  0.0615
  956POPC   PO413954   2.592   7.014   6.349  0.0763 -0.5008  0.1229
  956POPC   GL113955   2.368   6.906   6.707  0.0430  0.0935  0.3230
  956POPC   GL213956   2.055   6.970   6.868 -0.0501 -0.4020  0.0914
  956POPC   C1A13957   2.564   6.993   7.159 -0.3207  0.0778 -0.2853
  956POPC   D2A13958   2.657   7.068   7.576 -0.0521  0.1339  0.1375
  956POPC   C3A13959   2.374   6.973   7.790 -0.0254 -0.1938 -0.0698
  956POPC   C4A13960   1.972   6.739   7.967 -0.0197 -0.0634  0.3245
  956POPC   C1B13961   2.076   7.016   7.296 -0.0944  0.0060 -0.0208
  956POPC   C2B13962   1.941   7.220   7.596  0.0420  0.0950 -0.0999
  956POPC   C3B13963   1.943   7.380   8.021  0.1704 -0.1131  0.0476
  956POPC   C4B13964   1.625   7.495   8.335  0.0855  0.0880 -0.2552
  957POPC   NC313965   5.909   3.685   5.761  0.1559 -0.0006 -0.1222
  957POPC   PO413966   6.215   3.776   6.054 -0.0426  0.0342  0.0906
  957POPC   GL113967   6.418   3.810   6.380 -0.0068 -0.4045 -0.0306
  957POPC   GL213968   6.433   3.502   6.461  0.0459  0.0763  0.1583
  957POPC   C1A13969   6.400   3.863   6.815 -0.1982  0.0747  0.1063
  957POPC   D2A13970   6.621   3.795   7.197  0.2250 -0.0555 -0.1316
  957POPC   C3A13971   6.453   3.716   7.566  0.1477  0.0808  0.2377
  957POPC   C4A13972   6.333   3.813   8.028  0.1673  0.0854  0.1310
  957POPC   C1B13973   6.265   3.372   6.905 -0.0504 -0.1299 -0.2671
  957POPC   C2B13974   6.290   3.365   7.251 -0.0830 -0.2797  0.0252
  957POPC   C3B13975   6.146   3.350   7.632 -0.2664  0.1473  0.1701
  957POPC   C4B13976   6.050   3.410   7.989  0.1630  0.4332  0.3569
  958POPC   NC313977  16.362   9.686   6.069 -0.0363  0.0531 -0.1240
  958POPC   PO413978  15.968   9.399   6.173 -0.0406  0.2372  0.1189
  958POPC   GL113979  16.280   9.496   6.529  0.2797 -0.0061  0.3436
  958POPC   GL213980  16.550   9.669   6.562  0.0468  0.0473 -0.0470
  958POPC   C1A13981  16.149   9.844   6.837  0.0320 -0.0294  0.4262
  958POPC   D2A13982  16.180  10.071   7.254 -0.1370  0.1217  0.1531
  958POPC   C3A13983  15.851   9.975   7.570  0.2095  0.1329 -0.0521
  958POPC   C4A13984  15.798  10.262   8.017  0.1126 -0.1753 -0.0321
  958POPC   C1B13985  16.667   9.686   7.068  0.0128 -0.0219  0.5536
  958POPC   C2B13986  16.688   9.850   7.535  0.0350  0.0436  0.2825
  958POPC   C3B13987  16.919   9.655   7.873 -0.0716  0.1372 -0.1997
  958POPC   C4B13988  17.174   9.789   8.223  0.1318 -0.2916 -0.0377
  959POPC   NC313989  11.159  16.199   6.127  0.1929 -0.1987  0.3762
  959POPC   PO413990  10.771  16.444   6.217  0.0481  0.0944  0.3116
  959POPC   GL113991  10.630  16.581   6.575  0.2966  0.3198  0.0988
  959POPC   GL213992  10.324  16.762   6.623 -0.2787 -0.0083 -0.3139
  959POPC   C1A13993  10.400  16.446   6.968  0.0811  0.2721 -0.3709
  959POPC   D2A13994  10.317  16.480   7.392  0.3412 -0.0347  0.3400
  959POPC   C3A13995  10.538  16.692   7.580  0.2613  0.0954 -0.1825
  959POPC   C4A13996  10.900  16.493   7.736 -0.0432  0.0571  0.3728
  959POPC   C1B13997  10.374  16.894   7.059 -0.0281  0.0767  0.0462
  959POPC   C2B13998  10.240  17.013   7.371 -0.1075 -0.2661 -0.0012
  959POPC   C3B13999  10.285  17.108   7.808  0.3652  0.1272  0.5093
  959POPC   C4B14000  10.258  17.109   8.232  0.2968  0.0524 -0.2942
  960POPC   NC314001   5.795  13.659   6.070 -0.0428 -0.1058  0.0096
  960POPC   PO414002   5.470  13.754   6.373 -0.2415  0.1112 -0.1556
  960POPC   GL114003   5.318  13.891   6.779 -0.1263  0.3620 -0.2041
  960POPC   GL214004   5.038  13.760   6.784 -0.0447  0.1857 -0.1417
  960POPC   C1A14005   5.263  14.047   7.175  0.0609  0.2070 -0.4488
  960POPC   D2A14006   5.233  14.299   7.454  0.3052  0.1289  0.0988
  960POPC   C3A14007   5.437  14.717   7.650  0.0549  0.0096 -0.4010
  960POPC   C4A14008   5.673  15.147   7.724 -0.3138  0.1219 -0.1423
  960POPC   C1B14009   4.834  13.719   7.128 -0.1154  0.0284 -0.0574
  960POPC   C2B14010   4.627  13.906   7.573  0.0416 -0.0378 -0.1104
  960POPC   C3B14011   4.189  13.997   7.658  0.0179  0.1289  0.0608
  960POPC   C4B14012   3.809  13.835   7.820  0.1356  0.0571  0.1998
  961POPC   NC314013   8.055  17.039   5.961 -0.0504 -0.1365  0.0699
  961POPC   PO414014   8.217  16.761   6.059 -0.4379  0.0720 -0.0962
  961POPC   GL114015   8.017  16.752   6.405 -0.0159 -0.0723 -0.1394
  961POPC   GL214016   7.865  17.077   6.414 -0.1268  0.0574  0.1322
  961POPC   C1A14017   7.815  16.701   6.751  0.0004 -0.2485 -0.1375
  961POPC   D2A14018   7.644  16.466   6.849  0.1873 -0.1221 -0.0494
  961POPC   C3A14019   7.670  16.453   7.311 -0.1901  0.1579  0.3260
  961POPC   C4A14020   7.802  16.315   7.737 -0.1114  0.1327 -0.1055
  961POPC   C1B14021   7.919  17.215   6.897 -0.2306  0.0407  0.0158
  961POPC   C2B14022   7.992  17.139   7.321  0.0618  0.1507  0.0101
  961POPC   C3B14023   8.141  17.245   7.747  0.1542 -0.1052 -0.2398
  961POPC   C4B14024   8.157  17.293   8.264  0.2700  0.1820 -0.0697
  962POPC   NC314025  11.377  17.602   6.284  0.1093 -0.2252  0.1172
  962POPC   PO414026  11.828  17.466   6.357  0.0554 -0.1918  0.2025
  962POPC   GL114027  11.690  17.734   6.691  0.1061 -0.1580 -0.2235
  962POPC   GL214028  11.301  17.629   6.812  0.0736 -0.0135  0.1630
  962POPC   C1A14029  11.495  17.982   7.128  0.0152 -0.2958 -0.1149
  962POPC   D2A14030  11.416  18.016   7.518 -0.0233 -0.1182 -0.2742
  962POPC   C3A14031  11.363  17.880   7.914  0.3737  0.0133  0.2021
  962POPC   C4A14032  11.498  17.971   8.355  0.1329 -0.0662  0.0988
  962POPC   C1B14033  11.006  17.663   7.134 -0.0217 -0.1265 -0.1101
  962POPC   C2B14034  10.958  17.769   7.611  0.0243 -0.1792  0.1502
  962POPC   C3B14035  10.932  17.797   8.171 -0.2265 -0.1751  0.0214
  962POPC   C4B14036  11.039  18.057   8.499  0.3216  0.1234  0.3738
  963POPC   NC314037  12.965   9.040   5.644 -0.2851 -0.1596  0.0255
  963POPC   PO414038  12.982   8.725   5.894  0.0884  0.1306 -0.0348
  963POPC   GL114039  13.195   8.519   6.244  0.2200  0.3877 -0.1034
  963POPC   GL214040  13.031   8.728   6.475 -0.0673  0.1407  0.0936
  963POPC   C1A14041  13.246   8.218   6.659 -0.0902  0.0064 -0.1111
  963POPC   D2A14042  13.085   8.120   7.105  0.1979  0.2273  0.1438
  963POPC   C3A14043  12.675   8.042   7.082  0.3018  0.3075 -0.0996
  963POPC   C4A14044  12.310   7.909   6.874 -0.1870 -0.1543  0.1268
  963POPC   C1B14045  12.841   8.636   6.841  0.0953 -0.1038 -0.1273
  963POPC   C2B14046  12.835   8.517   7.274 -0.0501  0.0051 -0.0586
  963POPC   C3B14047  12.988   8.515   7.730  0.1933  0.2271  0.2007
  963POPC   C4B14048  13.319   8.463   7.951 -0.0652 -0.0169 -0.3511
  964POPC   NC314049  14.521   0.133   6.224 -0.0844  0.1747 -0.0684
  964POPC   PO414050  14.930   0.599   6.126  0.0456 -0.0481 -0.1503
  964POPC   GL114051  15.072   0.697   6.525 -0.2566 -0.3500 -0.2228
  964POPC   GL214052  14.947   1.005   6.530  0.4479 -0.0110  0.1131
  964POPC   C1A14053  15.125   0.607   6.872 -0.3826 -0.2335 -0.0142
  964POPC   D2A14054  15.114   0.538   7.217 -0.1783 -0.0293 -0.1466
  964POPC   C3A14055  15.039   0.925   7.467  0.2441 -0.0788 -0.1187
  964POPC   C4A14056  15.273   1.176   7.678  0.0670 -0.0363  0.1988
  964POPC   C1B14057  14.994   1.183   7.014  0.0227  0.2329 -0.0261
  964POPC   C2B14058  15.197   1.409   7.274 -0.1184 -0.1119 -0.1198
  964POPC   C3B14059  15.477   1.683   7.483  0.0987 -0.2242  0.2777
  964POPC   C4B14060  15.588   1.930   7.907  0.2926  0.2311  0.4116
  965POPC   NC314061   9.041  17.353   6.236  0.4007 -0.1833  0.1420
  965POPC   PO414062   9.424  17.132   6.169 -0.3631 -0.1368  0.0959
  965POPC   GL114063   9.356  17.294   6.558  0.0545 -0.0082 -0.0405
  965POPC   GL214064   9.599  17.076   6.691  0.1686  0.2240 -0.2725
  965POPC   C1A14065   9.206  17.506   6.963 -0.1258  0.0142  0.0655
  965POPC   D2A14066   8.931  17.533   7.314 -0.0282  0.1603  0.0435
  965POPC   C3A14067   9.031  17.487   7.709  0.0198 -0.0341 -0.0364
  965POPC   C4A14068   8.946  17.670   8.135  0.2719 -0.2144 -0.0400
  965POPC   C1B14069   9.600  17.266   7.051  0.2803 -0.2208  0.0030
  965POPC   C2B14070   9.760  17.096   7.381  0.0910 -0.0931  0.0475
  965POPC   C3B14071   9.893  16.752   7.556  0.3100 -0.2592 -0.2991
  965POPC   C4B14072  10.079  16.637   7.917  0.0306  0.2839 -0.1149
  966POPC   NC314073   2.059   4.083   6.077 -0.0622  0.1419 -0.0641
  966POPC   PO414074   1.805   3.923   5.841 -0.0256 -0.2588  0.2002
  966POPC   GL114075   1.647   3.759   6.161 -0.1184 -0.3250  0.0026
  966POPC   GL214076   1.635   3.883   6.397 -0.1887 -0.4840  0.2346
  966POPC   C1A14077   1.635   3.393   6.356  0.1144  0.0568  0.3237
  966POPC   D2A14078   1.577   3.374   6.738  0.2082 -0.2402  0.0829
  966POPC   C3A14079   1.590   3.421   7.166 -0.0549  0.0029 -0.0577
  966POPC   C4A14080   1.659   3.360   7.571  0.4209 -0.2155  0.2908
  966POPC   C1B14081   1.637   3.901   6.784 -0.1205  0.0376  0.0170
  966POPC   C2B14082   1.671   3.933   7.285 -0.0966  0.1789 -0.1169
  966POPC   C3B14083   1.618   3.916   7.681 -0.3157  0.1159 -0.2378
  966POPC   C4B14084   1.661   3.718   8.009  0.2166  0.0614  0.0518
  967POPC   NC314085   8.625   5.362   5.361  0.0875  0.0028 -0.0669
  967POPC   PO414086   8.545   5.196   5.809  0.0806  0.0167  0.1117
  967POPC   GL114087   8.806   5.133   6.154  0.1776 -0.1079 -0.1689
  967POPC   GL214088   9.104   5.034   6.139 -0.3217 -0.1231  0.1162
  967POPC   C1A14089   8.814   5.313   6.470 -0.3250 -0.0539  0.0318
  967POPC   D2A14090   8.812   5.112   6.901 -0.0550 -0.0441 -0.0230
  967POPC   C3A14091   8.846   5.317   7.337 -0.0815 -0.1444  0.1740
  967POPC   C4A14092   9.046   5.532   7.653 -0.0577  0.0226  0.1415
  967POPC   C1B14093   9.177   4.906   6.540 -0.1238  0.0741 -0.1372
  967POPC   C2B14094   9.281   4.777   6.938  0.0960  0.0174  0.1236
  967POPC   C3B14095   9.198   4.420   7.136  0.1142 -0.1695  0.0838
  967POPC   C4B14096   9.075   4.204   7.576 -0.3236  0.0811 -0.0005
  968POPC   NC314097  14.203   8.237   5.784  0.1877  0.3652  0.0452
  968POPC   PO414098  13.833   8.067   5.829 -0.2387 -0.1555  0.1398
  968POPC   GL114099  13.757   7.956   6.320 -0.1019 -0.1340 -0.0754
  968POPC   GL214100  13.803   7.637   6.324  0.2171 -0.0573  0.0194
  968POPC   C1A14101  13.782   8.044   6.736  0.0360 -0.1023 -0.0649
  968POPC   D2A14102  14.037   8.243   6.979  0.2760 -0.2586  0.0676
  968POPC   C3A14103  13.881   8.296   7.342 -0.0939 -0.0397  0.0038
  968POPC   C4A14104  13.796   8.466   7.710  0.1201 -0.1494 -0.0974
  968POPC   C1B14105  14.064   7.693   6.689  0.0725 -0.1400  0.3141
  968POPC   C2B14106  13.916   7.598   7.116  0.1189  0.0720 -0.0077
  968POPC   C3B14107  14.153   7.415   7.425 -0.2240 -0.1066  0.0995
  968POPC   C4B14108  14.477   7.093   7.498 -0.1246  0.0348 -0.4425
  969POPC   NC314109  16.300   8.031   6.122 -0.1788  0.0165 -0.0622
  969POPC   PO414110  16.412   7.689   6.033 -0.1285  0.2594  0.2327
  969POPC   GL114111  16.576   7.470   6.454 -0.2138 -0.3759  0.1710
  969POPC   GL214112  16.373   7.526   6.695 -0.0384  0.1297  0.1963
  969POPC   C1A14113  16.727   7.275   6.857  0.3003 -0.1434 -0.2468
  969POPC   D2A14114  16.530   7.545   7.299  0.0410 -0.0469  0.0397
  969POPC   C3A14115  16.246   7.427   7.587  0.0342 -0.0722 -0.0249
  969POPC   C4A14116  15.814   7.296   7.642 -0.0602  0.0837  0.0917
  969POPC   C1B14117  16.080   7.686   7.017 -0.0200 -0.1790 -0.0427
  969POPC   C2B14118  15.901   7.820   7.322  0.0721  0.0730 -0.2312
  969POPC   C3B14119  15.983   7.778   7.758 -0.0615  0.1315 -0.0037
  969POPC   C4B14120  16.307   7.734   8.056 -0.0048  0.0131  0.2087
  970POPC   NC314121  14.833   6.234   5.928 -0.0430  0.2088 -0.0367
  970POPC   PO414122  14.631   6.583   5.819 -0.0527 -0.2002  0.0715
  970POPC   GL114123  14.634   6.503   6.298  0.3560  0.0789 -0.0466
  970POPC   GL214124  14.961   6.643   6.394 -0.2587 -0.0324 -0.0207
  970POPC   C1A14125  14.399   6.436   6.732 -0.1195 -0.2565  0.1496
  970POPC   D2A14126  14.227   6.547   7.139  0.0419  0.0788  0.2764
  970POPC   C3A14127  14.171   6.926   7.140  0.1513  0.1222  0.0560
  970POPC   C4A14128  13.733   7.128   7.104 -0.0575 -0.0868 -0.0058
  970POPC   C1B14129  14.954   6.413   6.719 -0.1174  0.0129 -0.2794
  970POPC   C2B14130  14.798   6.362   7.162 -0.0990 -0.3142 -0.4554
  970POPC   C3B14131  14.590   6.551   7.469  0.0469  0.1912  0.4096
  970POPC   C4B14132  14.353   6.689   7.794 -0.2924 -0.2006 -0.2074
  971YOPC   NC314133   2.895  16.780   5.488 -0.3499 -0.0526  0.3103
  971YOPC   PO414134   2.703  17.053   5.832  0.1790 -0.0064 -0.0938
  971YOPC   GL114135   2.829  17.165   6.196 -0.1280  0.1736  0.1296
  971YOPC   GL214136   3.060  16.976   6.302  0.0592  0.2636  0.4308
  971YOPC   C1A14137   2.801  17.350   6.573 -0.0047  0.2738  0.0279
  971YOPC   D2A14138   2.730  17.671   6.895 -0.0124 -0.1529 -0.3072
  971YOPC   C3A14139   2.625  17.701   7.397 -0.0977  0.2932  0.0925
  971YOPC   C4A14140   3.027  17.830   7.653 -0.0031  0.1021  0.2113
  971YOPC   C1B14141   3.131  16.991   6.782  0.1266  0.0282 -0.0150
  971YOPC   C2B14142   3.067  16.923   7.278  0.2358  0.0834  0.0149
  971YOPC   D3B14143   2.834  16.607   7.527  0.0489  0.0775  0.0555
  971YOPC   C4B14144   2.753  16.571   7.946  0.4962  0.2500 -0.1241
  972YOPC   NC314145  12.150   8.935   6.200 -0.1326 -0.0153  0.1071
  972YOPC   PO414146  12.133   8.401   6.117  0.0319 -0.4013 -0.0764
  972YOPC   GL114147  12.293   8.321   6.556 -0.0223  0.0776 -0.2303
  972YOPC   GL214148  12.606   8.281   6.493  0.2544  0.0961  0.3978
  972YOPC   C1A14149  12.323   8.571   7.011 -0.1694  0.1085 -0.2424
  972YOPC   D2A14150  12.224   8.635   7.453  0.0598  0.1587 -0.0222
  972YOPC   C3A14151  12.457   8.494   7.762  0.0967  0.1496 -0.0991
  972YOPC   C4A14152  12.566   8.416   8.213  0.1010  0.4358  0.0070
  972YOPC   C1B14153  12.819   7.913   6.626 -0.0500  0.0069  0.0291
  972YOPC   C2B14154  13.134   7.708   6.846  0.1239  0.0886 -0.2636
  972YOPC   D3B14155  13.505   7.895   7.160  0.2748  0.0347 -0.0967
  972YOPC   C4B14156  13.704   7.827   7.550 -0.0493  0.1175 -0.2989
  973YOPC   NC314157   5.588  11.197   5.863 -0.0170  0.2328  0.0897
  973YOPC   PO414158   5.509  11.059   6.305  0.2421 -0.1774 -0.1174
  973YOPC   GL114159   5.263  11.188   6.711  0.0186  0.0269  0.1329
  973YOPC   GL214160   5.061  10.903   6.687 -0.0867 -0.0680 -0.0285
  973YOPC   C1A14161   5.276  11.186   7.162  0.0452  0.0145 -0.1124
  973YOPC   D2A14162   5.447  11.221   7.506  0.0972 -0.0648  0.1212
  973YOPC   C3A14163   5.147  11.260   7.742 -0.0867  0.2553  0.1854
  973YOPC   C4A14164   4.972  11.522   7.917 -0.0656 -0.0356 -0.1289
  973YOPC   C1B14165   5.131  10.721   7.060 -0.1787 -0.0198  0.0957
  973YOPC   C2B14166   5.056  10.702   7.470 -0.0462  0.0488 -0.0444
  973YOPC   D3B14167   5.192  10.593   7.844 -0.0411 -0.3094  0.1324
  973YOPC   C4B14168   5.481  10.624   8.192 -0.1843 -0.1250 -0.1433
  974YOPC   NC314169   2.507   1.230   5.567 -0.3915  0.2461  0.1016
  974YOPC   PO414170   2.711   0.896   5.695  0.0769  0.0638 -0.3041
  974YOPC   GL114171   2.622   0.945   6.050  0.0457 -0.1223 -0.0162
  974YOPC   GL214172   2.648   0.765   6.277 -0.1351 -0.0617  0.4744
  974YOPC   C1A14173   2.563   1.281   6.373  0.1243  0.0076  0.1025
  974YOPC   D2A14174   2.834   1.637   6.582  0.1512 -0.3123 -0.0479
  974YOPC   C3A14175   3.110   1.367   6.867 -0.0263 -0.0740  0.0691
  974YOPC   C4A14176   3.312   1.316   7.343 -0.1333  0.1977 -0.0647
  974YOPC   C1B14177   2.264   0.775   6.519  0.0804  0.0096  0.1583
  974YOPC   C2B14178   2.092   0.887   6.906 -0.1256  0.1619 -0.2951
  974YOPC   D3B14179   2.360   1.122   7.297  0.5801 -0.2731 -0.0402
  974YOPC   C4B14180   2.230   1.229   7.709 -0.2687  0.3109 -0.0010
  975YOPC   NC314181  12.113   9.977   6.214  0.0668  0.2717  0.1302
  975YOPC   PO414182  12.527  10.071   6.145  0.1109 -0.0124  0.0939
  975YOPC   GL114183  12.455  10.108   6.544 -0.0823  0.4563  0.2678
  975YOPC   GL214184  12.626  10.343   6.621 -0.1612 -0.1518  0.1085
  975YOPC   C1A14185  12.364   9.996   6.946  0.0425  0.2141  0.1216
  975YOPC   D2A14186  12.486   9.936   7.367 -0.1174  0.0865  0.4044
  975YOPC   C3A14187  12.617   9.878   7.853  0.0748  0.0034 -0.2804
  975YOPC   C4A14188  12.921   9.935   8.168  0.2154  0.1778  0.2238
  975YOPC   C1B14189  13.069  10.519   6.820 -0.0638  0.0610  0.2719
  975YOPC   C2B14190  13.496  10.699   6.868  0.1280  0.0522  0.1635
  975YOPC   D3B14191  13.648  10.759   7.356 -0.2673 -0.2611 -0.0108
  975YOPC   C4B14192  13.715  10.621   7.628  0.0468  0.3637  0.0856
  976YOPC   NC314193  12.067  14.351   5.926  0.0865 -0.1116 -0.1195
  976YOPC   PO414194  11.927  14.408   6.372  0.1525 -0.1887 -0.0359
  976YOPC   GL114195  11.808  14.560   6.694  0.0364 -0.4768 -0.1858
  976YOPC   GL214196  11.647  14.771   6.850 -0.0045  0.0883 -0.0420
  976YOPC   C1A14197  11.884  14.327   7.046 -0.2149 -0.3447  0.0754
  976YOPC   D2A14198  11.797  14.250   7.459 -0.2524 -0.0825  0.3125
  976YOPC   C3A14199  11.418  14.229   7.716  0.0228  0.0355 -0.1759
  976YOPC   C4A14200  11.317  13.986   8.070 -0.0287  0.1346  0.1308
  976YOPC   C1B14201  11.581  14.746   7.359  0.0588  0.1778  0.3738
  976YOPC   C2B14202  11.307  14.718   7.648 -0.1602 -0.1416  0.0338
  976YOPC   D3B14203  11.272  14.639   8.068  0.2854  0.0836  0.1457
  976YOPC   C4B14204  11.268  14.425   8.428 -0.0005 -0.2136  0.0137
  977YOPC   NC314205   7.188  16.772   5.829  0.0206 -0.0319  0.1731
  977YOPC   PO414206   7.163  17.065   6.155  0.1069  0.2922 -0.0703
  977YOPC   GL114207   6.859  17.132   6.403  0.0243  0.1093 -0.3078
  977YOPC   GL214208   7.009  17.280   6.667  0.0395  0.0698 -0.0771
  977YOPC   C1A14209   6.522  17.115   6.671 -0.1298  0.1156  0.1015
  977YOPC   D2A14210   6.452  17.081   7.081  0.2023 -0.0830 -0.0095
  977YOPC   C3A14211   6.311  17.317   7.434  0.1307 -0.0553  0.0883
  977YOPC   C4A14212   6.129  17.134   7.755 -0.3592  0.0914 -0.1158
  977YOPC   C1B14213   6.906  17.243   7.064  0.1315  0.0729  0.2078
  977YOPC   C2B14214   6.939  17.361   7.441  0.0965 -0.0900  0.1888
  977YOPC   D3B14215   6.757  17.252   7.717 -0.3088  0.1544  0.1361
  977YOPC   C4B14216   6.484  17.252   8.090  0.0684 -0.1872 -0.0300
  978YOPC   NC314217   0.880  13.226   5.612  0.0774 -0.0327 -0.0331
  978YOPC   PO414218   0.839  13.544   5.727  0.1076 -0.0053 -0.0307
  978YOPC   GL114219   0.923  13.330   6.125  0.0035  0.2747 -0.2042
  978YOPC   GL214220   0.972  13.051   6.352  0.1412  0.0354 -0.0543
  978YOPC   C1A14221   1.058  13.511   6.517  0.2611  0.0924  0.1796
  978YOPC   D2A14222   0.847  13.916   6.665  0.0642 -0.4227 -0.1502
  978YOPC   C3A14223   0.672  13.957   7.005 -0.2419  0.2007 -0.0855
  978YOPC   C4A14224   0.702  13.797   7.406 -0.2304 -0.3264 -0.1228
  978YOPC   C1B14225   1.004  13.075   6.805 -0.0195 -0.0863 -0.0447
  978YOPC   C2B14226   1.040  13.154   7.281  0.0163  0.1953 -0.1969
  978YOPC   D3B14227   1.169  12.881   7.703 -0.2454 -0.1518  0.0177
  978YOPC   C4B14228   1.169  12.847   8.095  0.0412 -0.2671  0.3726
  979YOPC   NC314229  15.193  10.365   5.477  0.3052 -0.2996  0.0287
  979YOPC   PO414230  15.123  10.438   5.885  0.0102  0.1788 -0.4061
  979YOPC   GL114231  15.218  10.467   6.356  0.0644  0.0271  0.4002
  979YOPC   GL214232  15.242  10.108   6.575 -0.0361 -0.1193  0.1753
  979YOPC   C1A14233  15.286  10.795   6.689 -0.0376  0.0749 -0.0376
  979YOPC   D2A14234  15.560  10.814   7.025 -0.0727  0.0167  0.1496
  979YOPC   C3A14235  15.809  10.451   7.217 -0.1914  0.0353 -0.0725
  979YOPC   C4A14236  16.068  10.480   7.572  0.1842  0.0615 -0.0400
  979YOPC   C1B14237  15.660   9.997   6.829  0.1312 -0.2210  0.2222
  979YOPC   C2B14238  15.760   9.594   7.140  0.1307 -0.0395  0.0069
  979YOPC   D3B14239  16.161   9.549   7.476 -0.0837 -0.1781 -0.0513
  979YOPC   C4B14240  16.406   9.502   7.819 -0.4134 -0.0490  0.1450
  980YOPC   NC314241  14.984  11.698   6.088 -0.2124  0.1507  0.2072
  980YOPC   PO414242  15.346  11.847   6.384 -0.3405  0.0392 -0.0863
  980YOPC   GL114243  15.505  11.554   6.670 -0.2893  0.1752 -0.2455
  980YOPC   GL214244  15.778  11.718   6.843 -0.1118  0.1034  0.2705
  980YOPC   C1A14245  15.410  11.295   6.974 -0.0823 -0.1711  0.0437
  980YOPC   D2A14246  15.488  11.182   7.473 -0.1129  0.0492 -0.2950
  980YOPC   C3A14247  15.633  10.778   7.560 -0.1177 -0.2233  0.2300
  980YOPC   C4A14248  15.517  10.401   7.605 -0.1916  0.0859  0.0369
  980YOPC   C1B14249  15.787  11.771   7.237  0.0632 -0.2135 -0.1257
  980YOPC   C2B14250  15.503  11.650   7.623 -0.2012 -0.1049  0.1927
  980YOPC   D3B14251  15.513  11.918   7.947  0.2081 -0.2145 -0.1501
  980YOPC   C4B14252  15.242  11.874   8.360  0.2777  0.1488  0.2507
  981YOPC   NC314253   7.694   2.509   6.020  0.0607  0.0085  0.1127
  981YOPC   PO414254   7.877   2.913   5.970  0.2664 -0.3353 -0.2370
  981YOPC   GL114255   7.893   2.884   6.382 -0.0060  0.0627 -0.0145
  981YOPC   GL214256   8.051   2.588   6.489 -0.0874  0.2706 -0.0505
  981YOPC   C1A14257   8.114   3.041   6.748  0.0345 -0.1279  0.3253
  981YOPC   D2A14258   8.305   3.162   7.196  0.0925  0.0296 -0.1363
  981YOPC   C3A14259   8.495   2.965   7.467 -0.1310 -0.0857 -0.0092
  981YOPC   C4A14260   8.490   3.007   7.903 -0.1575 -0.0866 -0.2533
  981YOPC   C1B14261   7.932   2.591   6.892 -0.2751 -0.1713 -0.0647
  981YOPC   C2B14262   8.264   2.659   7.166  0.0559  0.0158 -0.1338
  981YOPC   D3B14263   8.253   2.529   7.635  0.3497  0.0144 -0.1343
  981YOPC   C4B14264   8.324   2.440   8.019 -0.0251  0.2477 -0.2495
  982YOPC   NC314265  17.049  10.254   6.195 -0.2727  0.1174  0.2671
  982YOPC   PO414266  16.682  10.003   6.290 -0.0686  0.2637  0.0487
  982YOPC   GL114267  16.846  10.167   6.646  0.0902 -0.1024 -0.0096
  982YOPC   GL214268  17.037  10.369   6.819 -0.0932  0.2337 -0.0952
  982YOPC   C1A14269  16.690  10.237   7.164  0.0193 -0.1344 -0.3150
  982YOPC   D2A14270  16.532  10.424   7.574 -0.0440  0.0790 -0.1114
  982YOPC   C3A14271  16.288  10.062   7.763 -0.3081 -0.0658 -0.0988
  982YOPC   C4A14272  16.148   9.857   8.098  0.1297  0.0093  0.0672
  982YOPC   C1B14273  17.144  10.479   7.211  0.0217 -0.1683  0.3073
  982YOPC   C2B14274  17.040  10.484   7.675 -0.1301  0.0409 -0.0490
  982YOPC   D3B14275  16.755  10.152   7.967  0.0067 -0.1918 -0.3272
  982YOPC   C4B14276  16.575   9.849   8.251 -0.1751 -0.1032  0.0767
  983YOPC   NC314277   5.067  16.095   6.122 -0.4137 -0.0786  0.1050
  983YOPC   PO414278   5.090  16.317   6.455 -0.0928 -0.2255  0.1890
  983YOPC   GL114279   5.089  15.944   6.588 -0.0330 -0.1664  0.2932
  983YOPC   GL214280   5.083  15.916   6.812 -0.1519  0.0537 -0.1869
  983YOPC   C1A14281   4.874  15.462   6.628 -0.2302 -0.0718 -0.2254
  983YOPC   D2A14282   4.649  15.213   6.954 -0.2891  0.0083  0.5445
  983YOPC   C3A14283   4.294  15.070   6.897 -0.1679  0.4434 -0.1143
  983YOPC   C4A14284   3.899  15.081   6.717 -0.2838  0.0953  0.0807
  983YOPC   C1B14285   5.121  15.849   7.260 -0.2605 -0.0628  0.2706
  983YOPC   C2B14286   5.269  15.861   7.693 -0.1618  0.0279  0.1864
  983YOPC   D3B14287   5.469  16.112   7.943 -0.0836  0.1704 -0.4528
  983YOPC   C4B14288   5.485  16.311   8.374 -0.1816  0.0730 -0.0809
  984YOPC   NC314289   0.772  15.358   6.297 -0.2015 -0.0831  0.1973
  984YOPC   PO414290   1.092  14.968   6.239 -0.1330 -0.0523  0.0924
  984YOPC   GL114291   1.189  15.189   6.591 -0.0415  0.1363  0.3155
  984YOPC   GL214292   1.025  15.388   6.732  0.3083 -0.0459  0.0201
  984YOPC   C1A14293   1.377  15.165   6.994  0.0266 -0.3632  0.1087
  984YOPC   D2A14294   1.366  15.030   7.489  0.1381  0.2222 -0.0180
  984YOPC   C3A14295   1.510  15.342   7.755 -0.0088 -0.1624 -0.1135
  984YOPC   C4A14296   1.386  15.654   8.043 -0.0322 -0.2130  0.1146
  984YOPC   C1B14297   1.043  15.524   7.143 -0.0834  0.1851 -0.2316
  984YOPC   C2B14298   1.140  15.712   7.524  0.1035  0.2464  0.0197
  984YOPC   D3B14299   1.152  16.140   7.591 -0.0599 -0.1031 -0.1898
  984YOPC   C4B14300   1.196  16.584   7.718 -0.1543 -0.2071  0.1315
  985YOPC   NC314301  16.875   1.978   5.916 -0.0353 -0.1901 -0.0185
  985YOPC   PO414302  16.605   2.376   5.905  0.2442 -0.2978 -0.2812
  985YOPC   GL114303  16.647   2.222   6.327 -0.4255 -0.0353 -0.0456
  985YOPC   GL214304  16.509   1.919   6.338 -0.0217  0.0870 -0.1467
  985YOPC   C1A14305  16.845   2.009   6.744  0.2275  0.3257 -0.0860
  985YOPC   D2A14306  17.120   1.651   6.873 -0.0693 -0.2198  0.0518
  985YOPC   C3A14307  17.289   1.495   7.241 -0.3008  0.5307 -0.2095
  985YOPC   C4A14308  17.413   1.334   7.577 -0.3048  0.1749 -0.0151
  985YOPC   C1B14309  16.342   1.950   6.741  0.0002  0.0558  0.1762
  985YOPC   C2B14310  16.216   2.095   7.172  0.0210 -0.4144  0.1501
  985YOPC   D3B14311  16.031   1.901   7.591 -0.0975  0.0390  0.3980
  985YOPC   C4B14312  16.001   1.736   8.054  0.0596 -0.0020 -0.0472
  986YOPC   NC314313  17.080   2.739   5.816  0.0530  0.0837  0.1088
  986YOPC   PO414314  17.015   2.525   6.224  0.0727 -0.1100 -0.2096
  986YOPC   GL114315  16.945   2.861   6.486  0.1751  0.3590  0.1792
  986YOPC   GL214316  16.696   3.059   6.608  0.1845 -0.0401 -0.0018
  986YOPC   C1A14317  17.197   3.062   6.703 -0.0762 -0.0393 -0.2576
  986YOPC   D2A14318  17.694   2.988   6.737  0.1970 -0.0784 -0.2492
  986YOPC   C3A14319  17.859   2.952   7.075 -0.2165 -0.1161  0.3514
  986YOPC   C4A14320  17.831   2.898   7.492  0.0958 -0.2991  0.2193
  986YOPC   C1B14321  16.883   2.936   7.040  0.2023 -0.0574  0.0278
  986YOPC   C2B14322  16.876   2.837   7.443 -0.1103 -0.0934 -0.1314
  986YOPC   D3B14323  17.123   2.957   7.769 -0.1224 -0.0795 -0.2019
  986YOPC   C4B14324  17.196   3.229   8.108  0.0051 -0.2607 -0.0431
  987YOPC   NC314325  10.018   1.958   6.163  0.2003  0.4005 -0.3869
  987YOPC   PO414326   9.899   2.301   6.373 -0.0241 -0.1018 -0.1063
  987YOPC   GL114327   9.585   2.413   6.769  0.0081  0.1319  0.0419
  987YOPC   GL214328   9.304   2.286   6.860  0.2189 -0.0134 -0.1851
  987YOPC   C1A14329   9.667   2.614   7.245  0.2383 -0.0486  0.1332
  987YOPC   D2A14330   9.714   2.566   7.701  0.0459  0.3978 -0.0522
  987YOPC   C3A14331   9.880   2.653   8.048 -0.2370  0.0087 -0.4592
  987YOPC   C4A14332   9.804   2.703   8.429  0.0243 -0.0667  0.0967
  987YOPC   C1B14333   9.222   2.253   7.375  0.3500 -0.0012 -0.2057
  987YOPC   C2B14334   9.310   2.322   7.774 -0.0776 -0.3095  0.0344
  987YOPC   D3B14335   9.355   2.746   8.023  0.0872 -0.0796  0.1915
  987YOPC   C4B14336   9.271   3.149   8.221 -0.3606 -0.0359 -0.1220
  988YOPC   NC314337   2.137   8.435   5.896  0.0162  0.0578 -0.1000
  988YOPC   PO414338   1.870   8.293   6.262 -0.0553  0.0312  0.1416
  988YOPC   GL114339   1.891   8.411   6.780  0.1366  0.0300 -0.2323
  988YOPC   GL214340   1.800   8.758   6.932 -0.3556 -0.0335 -0.1300
  988YOPC   C1A14341   1.846   8.130   7.094 -0.1225 -0.1160  0.0059
  988YOPC   D2A14342   1.913   8.198   7.586 -0.1429 -0.0922  0.1856
  988YOPC   C3A14343   2.028   7.920   7.877 -0.1190 -0.0612 -0.1224
  988YOPC   C4A14344   2.356   7.732   8.114 -0.0279  0.0906 -0.0679
  988YOPC   C1B14345   2.068   8.607   7.202  0.2416 -0.2357  0.3934
  988YOPC   C2B14346   2.329   8.575   7.528  0.2993  0.0619  0.1012
  988YOPC   D3B14347   2.272   8.427   7.935 -0.1985  0.1988  0.2475
  988YOPC   C4B14348   2.074   8.680   8.262 -0.1054  0.0099 -0.0231
  989YOPC   NC314349  14.805  12.584   6.239  0.1905  0.0602  0.1139
  989YOPC   PO414350  15.241  12.396   6.446 -0.1058 -0.0442 -0.3810
  989YOPC   GL114351  15.417  12.166   6.908  0.2211  0.2481 -0.0871
  989YOPC   GL214352  15.151  11.952   6.899 -0.2451 -0.0473 -0.1809
  989YOPC   C1A14353  15.432  12.100   7.298 -0.0639 -0.2170 -0.3130
  989YOPC   D2A14354  15.132  11.996   7.624  0.0910  0.0384 -0.2485
  989YOPC   C3A14355  15.176  12.254   7.974 -0.0158 -0.3264  0.0169
  989YOPC   C4A14356  15.281  12.658   7.934  0.2735  0.1233 -0.3002
  989YOPC   C1B14357  15.154  11.684   7.239  0.2311 -0.0044 -0.3142
  989YOPC   C2B14358  14.955  11.305   7.501 -0.0700 -0.0235  0.0640
  989YOPC   D3B14359  14.828  11.282   7.851  0.0568 -0.0755 -0.2037
  989YOPC   C4B14360  15.188  11.330   8.063  0.0494 -0.0036  0.1225
  990YOPC   NC314361   6.752   8.198   6.377  0.0038 -0.1501 -0.1659
  990YOPC   PO414362   6.372   8.040   6.101 -0.2152 -0.1167  0.0549
  990YOPC   GL114363   6.465   7.824   6.569 -0.0483 -0.0284 -0.3136
  990YOPC   GL214364   6.487   8.169   6.748  0.1461 -0.1727  0.0446
  990YOPC   C1A14365   6.409   7.718   6.960 -0.2195  0.1282  0.1223
  990YOPC   D2A14366   6.282   7.520   7.365  0.0950  0.2327  0.1368
  990YOPC   C3A14367   6.359   7.834   7.678  0.1142  0.2539 -0.1665
  990YOPC   C4A14368   6.406   8.025   8.054  0.0930  0.2482 -0.0678
  990YOPC   C1B14369   6.452   8.120   7.272  0.1110 -0.0742  0.0367
  990YOPC   C2B14370   6.627   8.298   7.630  0.0378  0.0485  0.1498
  990YOPC   D3B14371   6.892   8.166   7.917 -0.1394  0.1861  0.2900
  990YOPC   C4B14372   7.232   8.102   7.823 -0.0426 -0.0252  0.0322
  991YOPC   NC314373   9.541   9.152   5.901  0.1782 -0.0903  0.0376
  991YOPC   PO414374   9.202   8.841   5.862  0.1640  0.1296 -0.0247
  991YOPC   GL114375   9.442   8.737   6.268  0.1352  0.0738 -0.0314
  991YOPC   GL214376   9.445   8.349   6.410  0.0613 -0.1479 -0.0134
  991YOPC   C1A14377   9.564   8.874   6.678  0.3834 -0.2074  0.0266
  991YOPC   D2A14378   9.430   9.185   7.013 -0.0422  0.0183  0.2454
  991YOPC   C3A14379   9.170   9.045   7.466 -0.1009 -0.1055  0.0598
  991YOPC   C4A14380   9.021   8.915   7.813 -0.0126 -0.5176  0.0372
  991YOPC   C1B14381   9.067   8.085   6.529 -0.0439  0.1162  0.0865
  991YOPC   C2B14382   8.813   8.109   6.823  0.0520 -0.0706 -0.1572
  991YOPC   D3B14383   8.957   8.145   7.227  0.0890 -0.0144  0.1475
  991YOPC   C4B14384   8.850   7.973   7.601 -0.1727  0.2135 -0.1647
  992YOPC   NC314385  15.884   2.032   5.773 -0.2592 -0.0951  0.2429
  992YOPC   PO414386  15.649   1.920   6.152  0.1371  0.1377 -0.1051
  992YOPC   GL114387  15.656   2.251   6.485 -0.2678 -0.0300 -0.2339
  992YOPC   GL214388  15.413   2.366   6.542  0.0950 -0.0798 -0.1488
  992YOPC   C1A14389  15.956   2.413   6.808  0.2426 -0.2863 -0.0873
  992YOPC   D2A14390  16.067   2.586   7.169  0.2847  0.1641  0.2535
  992YOPC   C3A14391  16.210   2.448   7.646 -0.0457  0.1534 -0.2064
  992YOPC   C4A14392  16.381   2.113   7.974 -0.1265 -0.2540 -0.0879
  992YOPC   C1B14393  15.488   2.492   6.976 -0.0269 -0.0151  0.0907
  992YOPC   C2B14394  15.434   2.610   7.387  0.0637 -0.2128  0.2105
  992YOPC   D3B14395  15.153   3.027   7.541  0.1186 -0.2606 -0.0015
  992YOPC   C4B14396  14.884   3.111   7.841 -0.1412  0.0692  0.1174
  993YOPC   NC314397  15.130   7.014   5.582 -0.2687 -0.0629  0.0511
  993YOPC   PO414398  15.148   7.227   6.027 -0.0292 -0.2425 -0.4190
  993YOPC   GL114399  15.034   7.340   6.396  0.2111 -0.0058 -0.4340
  993YOPC   GL214400  15.265   7.576   6.537 -0.1022 -0.1714  0.0216
  993YOPC   C1A14401  15.084   7.179   6.757 -0.2751  0.0999  0.1335
  993YOPC   D2A14402  15.446   7.199   7.181  0.2499  0.0910  0.0762
  993YOPC   C3A14403  15.387   7.037   7.618 -0.2004 -0.0354 -0.2512
  993YOPC   C4A14404  15.501   6.771   7.946  0.0022  0.0209  0.1370
  993YOPC   C1B14405  15.316   7.650   6.927 -0.2915  0.0855 -0.0900
  993YOPC   C2B14406  15.392   7.718   7.338 -0.5605 -0.0685 -0.0907
  993YOPC   D3B14407  15.376   7.568   7.757 -0.0315  0.0224  0.1908
  993YOPC   C4B14408  15.316   7.586   8.317  0.1134 -0.1717  0.2263
  994YOPC   NC314409   1.568   9.618   6.151  0.4244 -0.2660  0.5194
  994YOPC   PO414410   1.501   9.160   6.265  0.2709 -0.5359 -0.3660
  994YOPC   GL114411   1.648   9.179   6.660  0.1937  0.0490 -0.0261
  994YOPC   GL214412   1.444   9.443   6.682 -0.2238  0.2156 -0.0776
  994YOPC   C1A14413   1.844   9.267   7.121  0.0076 -0.0512 -0.0993
  994YOPC   D2A14414   1.888   9.365   7.522  0.3830  0.1680 -0.2412
  994YOPC   C3A14415   1.688   9.563   7.884 -0.0592  0.1942  0.0204
  994YOPC   C4A14416   1.691   9.562   8.339 -0.2411  0.1994  0.1666
  994YOPC   C1B14417   1.299   9.384   7.115 -0.1706 -0.3540  0.0416
  994YOPC   C2B14418   1.407   9.352   7.568 -0.5708  0.1755  0.0366
  994YOPC   D3B14419   1.299   9.253   8.031 -0.1943  0.2694 -0.0455
  994YOPC   C4B14420   1.316   9.155   8.481 -0.4620  0.1315 -0.0695
  995YOPC   NC314421  15.240  15.864   6.515 -0.2275  0.0110  0.0450
  995YOPC   PO414422  14.898  16.167   6.689 -0.2059  0.2493  0.1614
  995YOPC   GL114423  15.143  16.340   6.969 -0.0934 -0.1089 -0.0127
  995YOPC   GL214424  15.510  16.234   6.870 -0.0551  0.0965 -0.0557
  995YOPC   C1A14425  15.136  16.510   7.408 -0.0283  0.1213  0.1707
  995YOPC   D2A14426  15.148  16.571   7.878  0.0674  0.0903  0.1581
  995YOPC   C3A14427  15.188  16.311   8.135 -0.0035 -0.1390 -0.0937
  995YOPC   C4A14428  15.305  16.001   8.466  0.0081  0.0194 -0.2604
  995YOPC   C1B14429  15.563  16.338   7.298 -0.0578  0.2332  0.0342
  995YOPC   C2B14430  15.576  16.495   7.731 -0.2399 -0.1990 -0.0105
  995YOPC   D3B14431  15.688  16.458   8.187  0.0897 -0.1590  0.2078
  995YOPC   C4B14432  16.054  16.508   8.424 -0.1050 -0.0179 -0.0148
  996YOPC   NC314433  12.697  15.447   5.704  0.0906 -0.0690 -0.1931
  996YOPC   PO414434  12.624  15.802   6.083  0.2241 -0.2288  0.0536
  996YOPC   GL114435  12.469  15.684   6.605  0.0048  0.0768 -0.0675
  996YOPC   GL214436  12.403  15.913   6.787 -0.3150 -0.0398  0.1990
  996YOPC   C1A14437  12.476  15.579   7.090  0.3259  0.1984 -0.3034
  996YOPC   D2A14438  12.536  15.229   7.389  0.0867  0.2029 -0.0899
  996YOPC   C3A14439  12.640  15.277   7.820  0.1892 -0.3456 -0.0249
  996YOPC   C4A14440  12.472  15.177   8.308 -0.1157 -0.2556 -0.1096
  996YOPC   C1B14441  12.053  15.752   7.000  0.0189  0.2801  0.1596
  996YOPC   C2B14442  11.685  15.683   7.221 -0.0639 -0.1416  0.0346
  996YOPC   D3B14443  11.443  15.976   7.505 -0.0583 -0.0456  0.0945
  996YOPC   C4B14444  11.123  16.091   7.639 -0.2031  0.0598 -0.0757
  997YOPC   NC314445  11.514   3.229   5.923  0.0112  0.2857 -0.0918
  997YOPC   PO414446  11.084   2.901   5.975  0.0256  0.3087  0.0614
  997YOPC   GL114447  11.272   2.832   6.374 -0.4440 -0.2269 -0.0667
  997YOPC   GL214448  11.430   2.636   6.496  0.1693  0.0477  0.0371
  997YOPC   C1A14449  11.504   3.133   6.724  0.0654  0.0127 -0.1671
  997YOPC   D2A14450  11.593   3.233   7.044  0.2733  0.0826 -0.1435
  997YOPC   C3A14451  11.941   3.270   7.291 -0.2092 -0.1616  0.1649
  997YOPC   C4A14452  12.270   2.902   7.137 -0.0333  0.3640  0.1969
  997YOPC   C1B14453  11.454   2.656   7.005 -0.2137  0.0380  0.1270
  997YOPC   C2B14454  11.652   2.860   7.360 -0.2951  0.0568  0.1435
  997YOPC   D3B14455  12.007   2.857   7.622  0.4009  0.2471 -0.0814
  997YOPC   C4B14456  12.126   3.016   7.993  0.1500  0.1831 -0.3081
  998YOPC   NC314457  16.549  16.376   5.543 -0.1018 -0.0227  0.0384
  998YOPC   PO414458  16.346  16.103   5.976  0.0541 -0.0094  0.0476
  998YOPC   GL114459  16.154  16.359   6.317 -0.3857  0.0432  0.1208
  998YOPC   GL214460  16.412  16.465   6.465 -0.1309  0.0551  0.1247
  998YOPC   C1A14461  15.924  16.570   6.528 -0.0266 -0.1430  0.0260
  998YOPC   D2A14462  15.862  16.667   7.046 -0.1423  0.0171  0.0362
  998YOPC   C3A14463  16.031  16.494   7.533  0.0185 -0.0647 -0.1896
  998YOPC   C4A14464  16.200  16.417   7.845 -0.4441  0.3208 -0.0261
  998YOPC   C1B14465  16.318  16.467   6.874  0.0587 -0.0411  0.2633
  998YOPC   C2B14466  16.445  16.449   7.265  0.0875  0.2500 -0.0867
  998YOPC   D3B14467  16.481  16.142   7.621  0.0523 -0.1959 -0.1275
  998YOPC   C4B14468  16.679  16.128   8.172  0.0606 -0.2514  0.1671
  999YOPC   NC314469   9.873   8.452   5.525 -0.1813 -0.0235  0.2140
  999YOPC   PO414470   9.948   8.183   5.932 -0.0131  0.2969 -0.2008
  999YOPC   GL114471   9.871   8.101   6.368 -0.0169  0.0233  0.3747
  999YOPC   GL214472   9.968   7.906   6.534  0.0779 -0.0256 -0.0443
  999YOPC   C1A14473   9.779   8.367   6.804  0.1792 -0.2464  0.2553
  999YOPC   D2A14474   9.607   8.259   7.260 -0.1545  0.0041  0.0122
  999YOPC   C3A14475   9.656   8.574   7.560 -0.4578 -0.1616 -0.1131
  999YOPC   C4A14476   9.566   9.025   7.780 -0.2810 -0.2030  0.1768
  999YOPC   C1B14477   9.839   7.676   6.964  0.0557  0.0239 -0.1312
  999YOPC   C2B14478   9.691   7.527   7.407 -0.0954 -0.2199 -0.0551
  999YOPC   D3B14479   9.692   7.374   7.798 -0.2134 -0.0010 -0.2448
  999YOPC   C4B14480   9.935   7.171   8.140 -0.0002 -0.2443 -0.1342
 1000YOPC   NC314481  16.063  15.749   6.254 -0.0550  0.0510 -0.2366
 1000YOPC   PO414482  16.553  15.608   6.257 -0.0191  0.0436 -0.2743
 1000YOPC   GL114483  16.773  15.572   6.652 -0.2132 -0.2262 -0.0595
 1000YOPC   GL214484  16.860  15.786   6.731  0.3116 -0.0711 -0.0151
 1000YOPC   C1A14485  16.524  15.215   6.922  0.0717 -0.1716 -0.0779
 1000YOPC   D2A14486  16.437  15.090   7.356  0.1869 -0.3395 -0.2568
 1000YOPC   C3A14487  16.644  15.264   7.534  0.2324 -0.0298  0.1883
 1000YOPC   C4A14488  16.843  15.292   7.956  0.0398 -0.2014 -0.0486
 1000YOPC   C1B14489  16.945  15.532   7.151  0.2138  0.3072 -0.2540
 1000YOPC   C2B14490  17.172  15.450   7.573 -0.1118 -0.1018  0.1927
 1000YOPC   D3B14491  17.135  15.753   7.894  0.0668  0.2023  0.4282
 1000YOPC   C4B14492  16.921  15.713   8.407 -0.1739  0.2812 -0.2572
 1001YOPC   NC314493   5.231   0.983   6.030  0.0785  0.4691 -0.3304
 1001YOPC   PO414494   5.457   1.315   6.185 -0.0262 -0.2653 -0.2077
 1001YOPC   GL114495   5.130   1.329   6.542 -0.3094 -0.1216  0.1444
 1001YOPC   GL214496   4.958   1.538   6.545  0.0908  0.1265 -0.0400
 1001YOPC   C1A14497   4.978   1.002   6.707 -0.0973 -0.0648  0.2002
 1001YOPC   D2A14498   4.695   0.726   6.739 -0.0107  0.0142 -0.1052
 1001YOPC   C3A14499   4.339   0.647   7.064  0.0655 -0.2888  0.1493
 1001YOPC   C4A14500   3.993   0.708   7.483  0.4044  0.0473  0.2936
 1001YOPC   C1B14501   4.915   1.416   6.962  0.0965 -0.0340  0.1040
 1001YOPC   C2B14502   4.966   1.312   7.378 -0.4040  0.0773  0.0734
 1001YOPC   D3B14503   5.383   1.054   7.400 -0.0968  0.1901  0.0182
 1001YOPC   C4B14504   5.757   0.829   7.313  0.2572  0.0223 -0.1089
 1002YOPC   NC314505  12.555  17.159   5.815  0.2831 -0.3258  0.1538
 1002YOPC   PO414506  12.833  16.990   6.070  0.0094 -0.1920  0.0061
 1002YOPC   GL114507  12.632  17.020   6.458  0.1449  0.1221  0.1658
 1002YOPC   GL214508  12.415  16.824   6.672  0.0058 -0.2400  0.2467
 1002YOPC   C1A14509  12.637  17.379   6.862  0.3188  0.0863 -0.0874
 1002YOPC   D2A14510  12.866  17.492   7.192  0.3447 -0.1569 -0.0430
 1002YOPC   C3A14511  12.766  17.528   7.698  0.1125  0.3616  0.0069
 1002YOPC   C4A14512  12.696  17.630   8.111 -0.1067 -0.0112  0.1202
 1002YOPC   C1B14513  12.256  16.957   7.028  0.0708  0.1243 -0.0560
 1002YOPC   C2B14514  12.134  17.049   7.465  0.0131 -0.0973  0.2499
 1002YOPC   D3B14515  12.089  16.691   7.802 -0.0849  0.0466  0.3069
 1002YOPC   C4B14516  12.280  16.500   8.176  0.2507 -0.0327  0.0711
 1003YOPC   NC314517   2.998   8.717   5.811  0.0247 -0.1399  0.0274
 1003YOPC   PO414518   3.293   8.807   6.220 -0.0949 -0.0286  0.1795
 1003YOPC   GL114519   3.305   8.734   6.730  0.1082  0.0299  0.0987
 1003YOPC   GL214520   3.528   8.524   6.907  0.1314  0.0255 -0.0292
 1003YOPC   C1A14521   3.091   8.957   7.129  0.1361  0.0274  0.3037
 1003YOPC   D2A14522   2.750   9.181   7.398  0.1673 -0.2027  0.0543
 1003YOPC   C3A14523   2.669   8.988   7.791  0.1224  0.3062 -0.3218
 1003YOPC   C4A14524   2.506   9.064   8.154  0.1465 -0.2703 -0.0963
 1003YOPC   C1B14525   3.349   8.582   7.280 -0.2450 -0.2076  0.1723
 1003YOPC   C2B14526   3.471   8.558   7.682 -0.1645 -0.3854 -0.1763
 1003YOPC   D3B14527   3.249   8.483   8.040 -0.0607  0.1066 -0.1110
 1003YOPC   C4B14528   3.097   8.206   8.332 -0.0444  0.0496  0.1434
 1004YOPC   NC314529   3.202  12.281   6.149 -0.1507  0.2381 -0.0139
 1004YOPC   PO414530   2.976  11.899   5.965 -0.2047  0.1769  0.1936
 1004YOPC   GL114531   2.983  11.962   6.421 -0.4189  0.0784 -0.0161
 1004YOPC   GL214532   3.165  11.791   6.657  0.0548 -0.0186 -0.0119
 1004YOPC   C1A14533   2.781  12.176   6.670 -0.0022  0.0907  0.0942
 1004YOPC   D2A14534   2.968  12.372   7.028  0.0226  0.0414 -0.1268
 1004YOPC   C3A14535   2.848  12.188   7.324  0.1019  0.0884 -0.1638
 1004YOPC   C4A14536   2.587  12.203   7.759  0.0835  0.1224 -0.0415
 1004YOPC   C1B14537   3.024  11.795   7.051 -0.0683  0.0893 -0.1276
 1004YOPC   C2B14538   2.996  11.687   7.569 -0.2145  0.0130 -0.2361
 1004YOPC   D3B14539   2.838  11.815   7.999  0.0370  0.1946  0.2732
 1004YOPC   C4B14540   2.374  12.007   8.177 -0.1216  0.2717 -0.2199
 1005YOPC   NC314541   8.932   5.804   5.272  0.0381  0.0054 -0.3909
 1005YOPC   PO414542   8.891   6.064   5.691 -0.3490 -0.0928 -0.0060
 1005YOPC   GL114543   8.904   5.897   6.121 -0.3141  0.1310  0.0040
 1005YOPC   GL214544   8.786   5.619   6.130 -0.1836  0.1277 -0.2614
 1005YOPC   C1A14545   9.097   5.913   6.525  0.3487  0.0402 -0.0163
 1005YOPC   D2A14546   9.404   5.852   6.934 -0.0022 -0.1985 -0.1917
 1005YOPC   C3A14547   9.422   5.621   7.275 -0.4174 -0.2616  0.3624
 1005YOPC   C4A14548   9.392   5.836   7.725 -0.0186  0.4380 -0.1152
 1005YOPC   C1B14549   9.193   5.521   6.290  0.2362  0.0440 -0.2266
 1005YOPC   C2B14550   9.400   5.516   6.583 -0.1009  0.1885 -0.0689
 1005YOPC   D3B14551   9.467   5.201   6.891  0.1271 -0.0403 -0.2380
 1005YOPC   C4B14552   9.285   5.099   7.340 -0.0084  0.1537 -0.2225
 1006YOPC   NC314553  10.869   5.803   5.755  0.0039 -0.0403  0.0430
 1006YOPC   PO414554  10.420   5.779   5.894 -0.2198  0.0767  0.2977
 1006YOPC   GL114555  10.056   5.848   6.130 -0.1515 -0.0661  0.2437
 1006YOPC   GL214556   9.827   5.603   6.131 -0.2758 -0.1142 -0.1351
 1006YOPC   C1A14557   9.981   5.854   6.534  0.3513  0.1433 -0.3505
 1006YOPC   D2A14558   9.857   6.159   6.758  0.0013  0.2394  0.3622
 1006YOPC   C3A14559   9.812   6.097   7.155  0.1263 -0.0322  0.5091
 1006YOPC   C4A14560   9.885   5.912   7.542  0.2646 -0.3530  0.2921
 1006YOPC   C1B14561   9.568   6.029   6.277  0.1937  0.0720 -0.0375
 1006YOPC   C2B14562   9.516   6.447   6.484  0.1581  0.1424 -0.0976
 1006YOPC   D3B14563   9.473   6.884   6.704  0.1744  0.1980 -0.1309
 1006YOPC   C4B14564   9.432   7.325   6.793 -0.0423  0.0692 -0.0237
 1007YOPC   NC314565   2.478   7.738   5.615 -0.1175  0.0570  0.3229
 1007YOPC   PO414566   2.321   7.984   5.934 -0.1369  0.0603 -0.0124
 1007YOPC   GL114567   2.485   7.863   6.386 -0.0463  0.4142  0.0015
 1007YOPC   GL214568   2.732   7.976   6.480  0.1110 -0.1971 -0.2142
 1007YOPC   C1A14569   2.134   7.956   6.727 -0.1051  0.3390  0.1489
 1007YOPC   D2A14570   1.691   7.880   6.683 -0.0228  0.0814  0.0248
 1007YOPC   C3A14571   1.448   7.760   7.130  0.0071 -0.3266  0.3428
 1007YOPC   C4A14572   1.129   7.722   7.436  0.1310 -0.0598  0.1869
 1007YOPC   C1B14573   2.647   7.785   6.893 -0.0833  0.0256 -0.0051
 1007YOPC   C2B14574   2.748   7.504   7.288 -0.3060  0.1530 -0.1324
 1007YOPC   D3B14575   3.051   7.114   7.247  0.1437  0.3415  0.1594
 1007YOPC   C4B14576   3.463   7.109   7.044  0.2093 -0.2161  0.1596
 1008YOPC   NC314577  15.760  14.784   6.434  0.0450  0.3575  0.0717
 1008YOPC   PO414578  15.902  15.207   6.327 -0.3005 -0.0572  0.0141
 1008YOPC   GL114579  15.728  15.136   6.821  0.1746  0.0921  0.0838
 1008YOPC   GL214580  15.441  15.232   7.056 -0.1790 -0.0072  0.1007
 1008YOPC   C1A14581  15.969  15.042   7.141  0.1780 -0.1944  0.0279
 1008YOPC   D2A14582  16.039  15.133   7.686 -0.1852  0.0801  0.0018
 1008YOPC   C3A14583  16.378  14.965   7.862 -0.0644  0.0583  0.1603
 1008YOPC   C4A14584  16.496  14.701   8.120 -0.1648  0.0304  0.2541
 1008YOPC   C1B14585  15.647  15.335   7.439 -0.1677  0.1017  0.3325
 1008YOPC   C2B14586  15.673  15.554   7.736  0.0311  0.1292  0.0240
 1008YOPC   D3B14587  16.006  15.499   8.060  0.1222 -0.0282  0.0628
 1008YOPC   C4B14588  16.269  15.742   8.493 -0.0891 -0.1238  0.0674
 1009YOPC   NC314589   5.954  16.852   5.937 -0.3313  0.0044 -0.1280
 1009YOPC   PO414590   5.926  16.911   6.375  0.1508  0.0384  0.2137
 1009YOPC   GL114591   5.775  16.625   6.748  0.0366 -0.0100  0.1138
 1009YOPC   GL214592   5.453  16.451   6.767 -0.1045 -0.1155  0.0614
 1009YOPC   C1A14593   5.916  16.360   7.060  0.0010 -0.1008  0.1935
 1009YOPC   D2A14594   5.768  16.155   7.495 -0.0212 -0.0829 -0.0399
 1009YOPC   C3A14595   5.927  16.197   8.003 -0.0614 -0.0705  0.1095
 1009YOPC   C4A14596   6.085  16.561   8.377  0.1373 -0.0030 -0.3585
 1009YOPC   C1B14597   5.427  16.162   7.067  0.3023 -0.0145 -0.1707
 1009YOPC   C2B14598   5.322  16.303   7.487  0.1200  0.3719 -0.0928
 1009YOPC   D3B14599   5.234  16.565   7.740 -0.0000 -0.1159  0.0687
 1009YOPC   C4B14600   5.396  16.758   8.088  0.2983 -0.2893  0.1967
 1010YOPC   NC314601  15.570   9.170   6.290 -0.3074 -0.1226 -0.2283
 1010YOPC   PO414602  15.774   8.807   6.437 -0.1092  0.0120  0.0443
 1010YOPC   GL114603  15.974   8.760   6.750  0.0962 -0.0190  0.0245
 1010YOPC   GL214604  15.763   8.563   6.923  0.1814 -0.0508 -0.0129
 1010YOPC   C1A14605  16.146   8.784   7.141 -0.0507 -0.0302 -0.1790
 1010YOPC   D2A14606  16.342   8.758   7.511  0.3248 -0.2100 -0.0999
 1010YOPC   C3A14607  16.616   8.899   7.619  0.1394 -0.0413 -0.0088
 1010YOPC   C4A14608  16.845   9.126   7.937  0.3397 -0.0286 -0.1517
 1010YOPC   C1B14609  15.676   8.694   7.354  0.1433 -0.0124 -0.2739
 1010YOPC   C2B14610  15.668   8.849   7.814  0.0187  0.0009  0.2674
 1010YOPC   D3B14611  15.481   8.489   8.100  0.0179 -0.1120  0.1448
 1010YOPC   C4B14612  15.377   8.497   8.509  0.0104  0.3190  0.2568
 1011YOPC   NC314613  13.383  13.833   6.186  0.0325 -0.1017  0.0851
 1011YOPC   PO414614  13.822  13.839   6.383 -0.1028  0.1926  0.3100
 1011YOPC   GL114615  13.831  14.102   6.695 -0.2520 -0.3823 -0.0568
 1011YOPC   GL214616  13.961  13.936   6.979  0.0724  0.1420 -0.0318
 1011YOPC   C1A14617  13.649  14.363   6.905 -0.4048 -0.1939 -0.0530
 1011YOPC   D2A14618  13.365  14.430   7.104  0.1362  0.0498  0.4392
 1011YOPC   C3A14619  13.415  14.520   7.522 -0.0081 -0.0467  0.2458
 1011YOPC   C4A14620  13.580  14.564   7.907 -0.0921 -0.0662  0.2120
 1011YOPC   C1B14621  13.662  14.009   7.226  0.1088  0.1538  0.0101
 1011YOPC   C2B14622  13.650  14.147   7.668 -0.0683 -0.1261  0.2148
 1011YOPC   D3B14623  13.761  13.926   7.933 -0.2370  0.2466  0.1297
 1011YOPC   C4B14624  13.852  13.861   8.441 -0.0273 -0.0065 -0.1624
 1012YOPC   NC314625   4.131  10.706   6.513 -0.1764  0.2645 -0.2512
 1012YOPC   PO414626   3.846  10.455   6.438  0.2216  0.0038  0.6167
 1012YOPC   GL114627   3.859  10.499   6.904  0.0608  0.0091  0.3499
 1012YOPC   GL214628   3.660  10.667   7.131  0.0445  0.0126 -0.1359
 1012YOPC   C1A14629   4.134  10.321   7.300 -0.2737 -0.2360  0.3258
 1012YOPC   D2A14630   4.273  10.237   7.741 -0.2098  0.0456  0.3502
 1012YOPC   C3A14631   4.624  10.275   8.013  0.2538 -0.3098  0.0749
 1012YOPC   C4A14632   4.878  10.452   8.224  0.0180 -0.1006  0.0310
 1012YOPC   C1B14633   3.611  10.499   7.469 -0.1842 -0.1890  0.3501
 1012YOPC   C2B14634   3.835  10.530   7.860  0.1996 -0.0052  0.0008
 1012YOPC   D3B14635   3.781  10.702   8.263  0.1910 -0.0071 -0.1349
 1012YOPC   C4B14636   3.950  10.815   8.653  0.2436 -0.3121  0.0733
 1013YOPC   NC314637   2.731  10.257   6.002 -0.3625 -0.0785  0.2436
 1013YOPC   PO414638   2.527  10.453   6.261  0.0646 -0.2204 -0.0162
 1013YOPC   GL114639   2.451  10.290   6.685 -0.0018 -0.0845 -0.1276
 1013YOPC   GL214640   2.760  10.306   6.891  0.1033 -0.4038 -0.0419
 1013YOPC   C1A14641   2.301  10.401   7.075  0.2332  0.0788 -0.0505
 1013YOPC   D2A14642   2.288  10.358   7.574 -0.1109 -0.0324 -0.1441
 1013YOPC   C3A14643   2.363  10.510   7.944 -0.1246  0.2194  0.0636
 1013YOPC   C4A14644   2.184  10.684   8.329  0.0432 -0.2179  0.0302
 1013YOPC   C1B14645   2.764  10.572   7.320 -0.0584  0.0152 -0.0959
 1013YOPC   C2B14646   2.674  10.655   7.638 -0.0671 -0.3359 -0.0187
 1013YOPC   D3B14647   2.852  10.406   8.010  0.1911 -0.3782 -0.0038
 1013YOPC   C4B14648   3.035  10.038   7.981 -0.0195  0.1543  0.0638
 1014YOPC   NC314649   7.209   6.496   5.781  0.2051  0.2782  0.0441
 1014YOPC   PO414650   7.167   6.976   5.896 -0.0779 -0.4352  0.0680
 1014YOPC   GL114651   7.232   6.746   6.226  0.0441 -0.3338 -0.0477
 1014YOPC   GL214652   7.072   6.576   6.568 -0.0559  0.1642 -0.0890
 1014YOPC   C1A14653   7.531   6.569   6.397  0.0523  0.0787  0.2115
 1014YOPC   D2A14654   7.723   6.360   6.710  0.1732  0.0893  0.0198
 1014YOPC   C3A14655   7.807   6.519   7.104  0.1335 -0.1892 -0.0983
 1014YOPC   C4A14656   7.911   6.382   7.625 -0.2203  0.2771 -0.2574
 1014YOPC   C1B14657   7.291   6.738   6.921  0.3901 -0.1756  0.1744
 1014YOPC   C2B14658   7.198   7.075   7.194  0.0426  0.1102 -0.1622
 1014YOPC   D3B14659   7.336   7.249   7.550  0.2011 -0.2285 -0.0150
 1014YOPC   C4B14660   7.562   7.297   7.946 -0.0085 -0.3889 -0.0515
 1015YOPC   NC314661   9.343  11.592   6.449 -0.1332 -0.2610  0.2291
 1015YOPC   PO414662   9.323  11.095   6.376 -0.1730  0.0665 -0.1143
 1015YOPC   GL114663   9.190  10.830   6.705  0.0295  0.0650 -0.4132
 1015YOPC   GL214664   8.879  10.700   6.651  0.2869  0.1655 -0.1227
 1015YOPC   C1A14665   9.217  10.675   7.136  0.0084 -0.0901 -0.3436
 1015YOPC   D2A14666   9.134  10.581   7.484  0.1497 -0.1385 -0.3634
 1015YOPC   C3A14667   9.277  10.749   7.863 -0.1885 -0.2572 -0.0383
 1015YOPC   C4A14668   9.623  10.975   8.259 -0.1865  0.3943 -0.2020
 1015YOPC   C1B14669   8.441  10.838   6.615  0.3854  0.3028  0.0167
 1015YOPC   C2B14670   8.259  11.108   6.898  0.0419 -0.0304  0.2751
 1015YOPC   D3B14671   8.464  11.369   7.126 -0.3372  0.2455 -0.1233
 1015YOPC   C4B14672   8.457  11.385   7.532 -0.0532  0.1893 -0.1184
 1016YOPC   NC314673   1.851   5.419   6.108  0.1422 -0.0389  0.0763
 1016YOPC   PO414674   1.450   5.564   5.999  0.0743  0.0846  0.0975
 1016YOPC   GL114675   1.374   5.347   6.375 -0.1036  0.0981 -0.3979
 1016YOPC   GL214676   1.505   5.145   6.477  0.1985 -0.0230  0.0274
 1016YOPC   C1A14677   1.417   5.547   6.813 -0.2229 -0.1078 -0.2642
 1016YOPC   D2A14678   1.328   5.504   7.226 -0.0444  0.0114  0.1589
 1016YOPC   C3A14679   1.002   5.254   7.427 -0.3362 -0.1600  0.1107
 1016YOPC   C4A14680   0.735   5.196   7.804 -0.0573 -0.1844  0.1103
 1016YOPC   C1B14681   1.736   4.955   6.804  0.0814  0.1054  0.0043
 1016YOPC   C2B14682   2.040   4.666   6.883  0.3396  0.0781  0.1751
 1016YOPC   D3B14683   2.038   4.701   7.298 -0.0025  0.1000  0.0638
 1016YOPC   C4B14684   1.887   4.881   7.582 -0.2686 -0.1408 -0.0463
 1017YOPC   NC314685   9.468  16.168   5.822  0.0414  0.0874  0.1314
 1017YOPC   PO414686   9.077  16.257   5.950  0.1444 -0.0370 -0.0865
 1017YOPC   GL114687   8.900  16.373   6.366 -0.0164 -0.2184  0.0184
 1017YOPC   GL214688   8.603  16.644   6.407 -0.0664 -0.1976  0.5069
 1017YOPC   C1A14689   8.814  16.517   6.840 -0.0739 -0.1414 -0.0920
 1017YOPC   D2A14690   9.084  16.600   7.280 -0.0463  0.0341 -0.0133
 1017YOPC   C3A14691   9.521  16.727   7.203  0.0524 -0.1408 -0.0840
 1017YOPC   C4A14692   9.943  16.631   7.007  0.2887  0.1761 -0.1817
 1017YOPC   C1B14693   8.320  16.777   6.764 -0.0189  0.0578  0.0033
 1017YOPC   C2B14694   8.365  16.601   7.130  0.0310 -0.3878 -0.1276
 1017YOPC   D3B14695   8.144  16.608   7.472  0.1712  0.0818 -0.3335
 1017YOPC   C4B14696   8.184  16.788   7.975 -0.0960  0.0917 -0.0347
 1018YOPC   NC314697   6.514  15.202   6.288  0.0442  0.0693 -0.0253
 1018YOPC   PO414698   6.353  14.836   6.590 -0.0526 -0.1032 -0.2972
 1018YOPC   GL114699   6.142  14.881   7.024  0.1445 -0.2137 -0.3811
 1018YOPC   GL214700   6.054  14.603   7.081 -0.1442  0.0964  0.1870
 1018YOPC   C1A14701   6.002  14.826   7.509 -0.1111  0.2849  0.1951
 1018YOPC   D2A14702   5.875  14.552   7.815 -0.0149  0.0777 -0.1427
 1018YOPC   C3A14703   5.601  14.723   8.131  0.3416  0.0924 -0.3318
 1018YOPC   C4A14704   5.481  14.449   8.518 -0.3036 -0.2119  0.1980
 1018YOPC   C1B14705   6.140  14.307   7.439 -0.0466  0.1247 -0.0813
 1018YOPC   C2B14706   6.298  14.380   7.840 -0.2462 -0.0338  0.4222
 1018YOPC   D3B14707   6.276  14.814   7.972  0.3024  0.2483  0.2006
 1018YOPC   C4B14708   6.456  15.121   8.227  0.0504 -0.1486  0.0535
 1019YOPC   NC314709  15.567   7.388   6.200  0.1827  0.2485 -0.3595
 1019YOPC   PO414710  15.857   6.940   6.187  0.2407  0.1310  0.2184
 1019YOPC   GL114711  15.863   6.968   6.683 -0.3032  0.2025  0.1007
 1019YOPC   GL214712  15.682   7.341   6.737  0.2529  0.1500  0.0444
 1019YOPC   C1A14713  15.906   6.647   6.957 -0.1917 -0.2339  0.0323
 1019YOPC   D2A14714  15.712   6.270   7.092  0.0237  0.0948 -0.0562
 1019YOPC   C3A14715  15.613   6.375   7.546 -0.2247  0.0244 -0.0403
 1019YOPC   C4A14716  15.348   6.303   7.916  0.3954  0.0107  0.1522
 1019YOPC   C1B14717  15.971   7.230   7.122 -0.0484 -0.1433  0.3469
 1019YOPC   C2B14718  15.893   6.800   7.425  0.1658  0.0063 -0.0017
 1019YOPC   D3B14719  16.011   6.661   7.891  0.0102 -0.0917  0.1976
 1019YOPC   C4B14720  15.769   6.628   8.327 -0.1447  0.0927 -0.1569
 1020YOPC   NC314721   2.666   4.704   6.058 -0.0822  0.1483 -0.0391
 1020YOPC   PO414722   2.918   4.484   6.347  0.1192  0.0278 -0.2531
 1020YOPC   GL114723   3.035   4.782   6.609  0.3181 -0.2257 -0.0030
 1020YOPC   GL214724   3.341   4.803   6.480 -0.0163 -0.2371  0.2296
 1020YOPC   C1A14725   2.943   4.867   7.054 -0.0420 -0.0492  0.0440
 1020YOPC   D2A14726   2.799   4.787   7.320  0.1031  0.0431 -0.1735
 1020YOPC   C3A14727   2.847   4.746   7.761 -0.0331  0.1422  0.0203
 1020YOPC   C4A14728   2.666   4.800   8.163  0.0551 -0.0670  0.2965
 1020YOPC   C1B14729   3.475   4.868   6.947  0.0903  0.0657  0.0926
 1020YOPC   C2B14730   3.361   4.790   7.276 -0.1960 -0.1177 -0.3339
 1020YOPC   D3B14731   3.372   4.799   7.786  0.3005 -0.0645 -0.3172
 1020YOPC   C4B14732   3.677   4.835   8.231 -0.0508  0.3055  0.0657
 1021YOPC   NC314733   6.711   9.566   5.537  0.0610  0.0336 -0.1553
 1021YOPC   PO414734   6.932   9.841   5.830  0.0892 -0.3126  0.1223
 1021YOPC   GL114735   6.941  10.074   6.285  0.4857 -0.0554  0.1296
 1021YOPC   GL214736   6.745  10.237   6.469 -0.1413 -0.1720  0.1993
 1021YOPC   C1A14737   7.252  10.174   6.580 -0.1773 -0.0487  0.0682
 1021YOPC   D2A14738   7.521  10.014   6.955 -0.0242 -0.0387 -0.0145
 1021YOPC   C3A14739   7.546   9.917   7.374  0.1596 -0.3266  0.0138
 1021YOPC   C4A14740   7.672  10.063   7.766 -0.1373  0.0668  0.2094
 1021YOPC   C1B14741   6.876  10.719   6.584  0.2816 -0.3880  0.1265
 1021YOPC   C2B14742   7.034  10.818   6.952  0.0442 -0.1324  0.0533
 1021YOPC   D3B14743   7.101  10.463   7.155 -0.0929 -0.3002 -0.3147
 1021YOPC   C4B14744   7.310  10.364   7.492 -0.1975 -0.4367 -0.4755
 1022YOPC   NC314745   7.766  10.189   5.607  0.2830  0.0789 -0.0406
 1022YOPC   PO414746   7.653   9.834   5.741 -0.0260  0.0387 -0.0812
 1022YOPC   GL114747   7.744   9.735   6.102 -0.1742  0.3411 -0.0877
 1022YOPC   GL214748   7.956   9.490   6.291  0.1949 -0.0321  0.0973
 1022YOPC   C1A14749   7.761   9.913   6.492 -0.0158  0.3288 -0.2423
 1022YOPC   D2A14750   7.728  10.320   6.645 -0.2900  0.0770  0.0603
 1022YOPC   C3A14751   8.013  10.641   6.768 -0.0737  0.0020  0.1565
 1022YOPC   C4A14752   8.309  10.623   7.147 -0.1261 -0.0005 -0.0396
 1022YOPC   C1B14753   8.110   9.386   6.639  0.1536  0.4331 -0.0436
 1022YOPC   C2B14754   8.070   9.112   6.858 -0.1974  0.0820 -0.1880
 1022YOPC   D3B14755   8.283   9.159   7.227 -0.0301 -0.0714  0.0289
 1022YOPC   C4B14756   8.689   9.125   7.510  0.2619  0.3164 -0.3611
 1023YOPC   NC314757  15.283  13.747   6.546 -0.0048 -0.1095 -0.1123
 1023YOPC   PO414758  15.435  13.491   6.788  0.0194 -0.0342 -0.0498
 1023YOPC   GL114759  15.243  13.668   7.107 -0.0652  0.1909  0.1790
 1023YOPC   GL214760  15.230  13.431   7.390 -0.0361 -0.2623  0.1926
 1023YOPC   C1A14761  15.154  13.952   7.406 -0.1271 -0.1161 -0.0834
 1023YOPC   D2A14762  14.811  14.295   7.418 -0.0136  0.2846 -0.0578
 1023YOPC   C3A14763  14.604  14.094   7.758  0.2062  0.0415  0.2251
 1023YOPC   C4A14764  14.635  14.162   8.204 -0.0322  0.3538  0.0848
 1023YOPC   C1B14765  15.022  13.720   7.773 -0.0549 -0.3590 -0.2538
 1023YOPC   C2B14766  14.822  13.592   8.120  0.3105  0.1062 -0.3579
 1023YOPC   D3B14767  14.520  13.238   8.272 -0.2134 -0.1738 -0.2275
 1023YOPC   C4B14768  14.222  12.894   8.173 -0.0277  0.1593  0.1912
 1024YOPC   NC314769   7.100   1.599   5.662 -0.2567 -0.1637 -0.1164
 1024YOPC   PO414770   7.157   1.629   6.082  0.0565 -0.1142 -0.1473
 1024YOPC   GL114771   7.136   1.633   6.526 -0.1746 -0.0644  0.1897
 1024YOPC   GL214772   6.964   1.666   6.706  0.1227  0.1737  0.0059
 1024YOPC   C1A14773   7.418   1.761   6.839 -0.1311  0.0281 -0.2542
 1024YOPC   D2A14774   7.359   1.901   7.224 -0.1283  0.0322 -0.0603
 1024YOPC   C3A14775   7.498   1.886   7.648  0.1286  0.0412  0.3440
 1024YOPC   C4A14776   7.726   1.721   7.985  0.0445  0.2226 -0.0749
 1024YOPC   C1B14777   6.886   1.778   7.072 -0.0049  0.1358 -0.2663
 1024YOPC   C2B14778   6.854   1.924   7.463 -0.0292 -0.2533  0.2507
 1024YOPC   D3B14779   7.046   2.118   7.761 -0.3137  0.0830 -0.2414
 1024YOPC   C4B14780   7.331   2.130   8.052 -0.2710  0.0494  0.0907
 1025YOPC   NC314781   1.177   1.712   5.819 -0.2118 -0.2299  0.2399
 1025YOPC   PO414782   1.307   1.235   5.930  0.0977  0.0623  0.2343
 1025YOPC   GL114783   1.256   1.500   6.314  0.1307  0.2225 -0.0333
 1025YOPC   GL214784   1.570   1.485   6.392 -0.1494  0.2339  0.1203
 1025YOPC   C1A14785   1.056   1.361   6.716  0.0123 -0.0118 -0.0983
 1025YOPC   D2A14786   0.756   1.613   7.069 -0.0374 -0.2767  0.0553
 1025YOPC   C3A14787   0.424   1.469   6.930  0.1271  0.0798 -0.3017
 1025YOPC   C4A14788   0.136   1.470   6.603  0.0778 -0.1285 -0.0765
 1025YOPC   C1B14789   1.547   1.448   6.755 -0.1319  0.2007  0.1678
 1025YOPC   C2B14790   1.387   1.231   7.182  0.5714  0.1449  0.2179
 1025YOPC   D3B14791   1.436   1.317   7.542 -0.0988 -0.1955  0.0754
 1025YOPC   C4B14792   1.683   1.399   7.850  0.1124  0.0875  0.1371
 1026YOPC   NC314793   6.250   2.967   5.830 -0.4757 -0.0770 -0.1373
 1026YOPC   PO414794   6.135   3.306   5.891 -0.1504  0.1033 -0.0572
 1026YOPC   GL114795   5.865   3.479   6.211 -0.1211 -0.0719  0.2585
 1026YOPC   GL214796   5.930   3.666   6.422  0.1420 -0.0198  0.1322
 1026YOPC   C1A14797   5.692   3.253   6.560 -0.0185  0.1048 -0.0746
 1026YOPC   D2A14798   5.616   3.053   6.948  0.2389  0.0106  0.2345
 1026YOPC   C3A14799   5.911   3.028   7.239 -0.1559  0.2369  0.0223
 1026YOPC   C4A14800   5.948   2.891   7.676 -0.0241 -0.0814  0.0730
 1026YOPC   C1B14801   5.959   3.733   6.797 -0.0146 -0.1128 -0.1929
 1026YOPC   C2B14802   6.112   3.801   7.215  0.2396 -0.0282  0.2335
 1026YOPC   D3B14803   5.955   3.834   7.618 -0.1623 -0.0071  0.2157
 1026YOPC   C4B14804   5.486   3.792   7.802 -0.0329 -0.2721  0.0754
 1027YOPC   NC314805  10.533   9.946   6.059 -0.2277 -0.0750  0.1858
 1027YOPC   PO414806  10.400  10.387   6.169 -0.0079 -0.0753  0.0121
 1027YOPC   GL114807  10.465  10.311   6.605  0.2139  0.0616 -0.0963
 1027YOPC   GL214808  10.272  10.123   6.827  0.0487 -0.1013 -0.0565
 1027YOPC   C1A14809  10.542  10.504   7.014 -0.1087 -0.0038 -0.1927
 1027YOPC   D2A14810  10.614  10.479   7.411  0.1911  0.0266 -0.1065
 1027YOPC   C3A14811  10.584  10.879   7.612 -0.1328  0.0444 -0.0304
 1027YOPC   C4A14812  10.691  11.043   8.022 -0.1424 -0.5573 -0.0195
 1027YOPC   C1B14813  10.210  10.141   7.202  0.2234 -0.3020 -0.1104
 1027YOPC   C2B14814  10.154  10.323   7.556 -0.0129  0.0055 -0.1236
 1027YOPC   D3B14815  10.127  10.248   7.977 -0.0412 -0.2683 -0.4735
 1027YOPC   C4B14816  10.186  10.057   8.401 -0.2916 -0.0744  0.1528
 1028YOPC   NC314817  12.923   1.486   5.592 -0.1367 -0.4794 -0.2377
 1028YOPC   PO414818  12.985   1.181   5.872 -0.0683 -0.1661  0.1834
 1028YOPC   GL114819  12.969   1.433   6.296 -0.0681  0.1582  0.1759
 1028YOPC   GL214820  13.088   1.148   6.514  0.3805  0.1789  0.0439
 1028YOPC   C1A14821  13.075   1.656   6.685 -0.0091 -0.2846  0.0399
 1028YOPC   D2A14822  13.174   1.941   7.112 -0.1536 -0.0745 -0.0700
 1028YOPC   C3A14823  13.132   1.849   7.521  0.0974 -0.2083  0.3534
 1028YOPC   C4A14824  13.243   1.522   7.885  0.2261  0.0309  0.0264
 1028YOPC   C1B14825  13.148   1.228   6.905  0.2919  0.3465 -0.0245
 1028YOPC   C2B14826  13.086   1.366   7.415  0.0932  0.2672 -0.1886
 1028YOPC   D3B14827  13.120   1.115   7.664 -0.3346  0.5349 -0.0874
 1028YOPC   C4B14828  12.749   1.037   7.936  0.1899 -0.1843  0.0067
 1029YOPC   NC314829  10.143  15.738   6.110 -0.0087  0.1532 -0.1124
 1029YOPC   PO414830   9.729  15.897   6.176 -0.1107 -0.0958  0.1206
 1029YOPC   GL114831   9.716  16.082   6.549  0.2205  0.2955 -0.0856
 1029YOPC   GL214832  10.008  16.367   6.610 -0.0517  0.1171 -0.2125
 1029YOPC   C1A14833  10.007  15.985   6.949  0.1154 -0.2930 -0.0377
 1029YOPC   D2A14834  10.175  15.984   7.273 -0.0394 -0.2306 -0.1325
 1029YOPC   C3A14835  10.111  15.879   7.647  0.5535 -0.0621  0.0238
 1029YOPC   C4A14836  10.334  15.743   7.893  0.1517  0.2055  0.1322
 1029YOPC   C1B14837  10.396  16.036   6.687 -0.1419  0.0563 -0.0238
 1029YOPC   C2B14838  10.545  15.641   6.961  0.0788  0.0241 -0.0866
 1029YOPC   D3B14839  10.615  15.653   7.400 -0.1679  0.1168  0.2559
 1029YOPC   C4B14840  10.823  15.736   7.758  0.2113 -0.4128 -0.0866
 1030YOPC   NC314841  13.712  10.648   5.858 -0.1466  0.2293 -0.2633
 1030YOPC   PO414842  13.812  10.928   6.204 -0.2040 -0.0691 -0.0467
 1030YOPC   GL114843  13.821  10.995   6.633  0.2787  0.1683  0.1076
 1030YOPC   GL214844  13.618  11.171   6.751  0.0050 -0.3965 -0.4209
 1030YOPC   C1A14845  13.988  10.798   6.952 -0.2125 -0.1926  0.0418
 1030YOPC   D2A14846  14.024  10.460   7.231 -0.1272 -0.1569 -0.0199
 1030YOPC   C3A14847  14.400  10.328   7.489 -0.2746  0.0804  0.2837
 1030YOPC   C4A14848  14.511  10.215   7.848  0.1705 -0.2402 -0.1979
 1030YOPC   C1B14849  13.516  11.290   7.148 -0.0098  0.0077 -0.1030
 1030YOPC   C2B14850  13.278  11.128   7.555 -0.1152  0.0687 -0.1819
 1030YOPC   D3B14851  13.112  11.331   7.948 -0.2831 -0.0324 -0.2088
 1030YOPC   C4B14852  13.184  11.724   8.199 -0.1489  0.3074  0.3209
 1031YOPC   NC314853   0.051  15.172   5.962 -0.0818  0.0078 -0.0024
 1031YOPC   PO414854   0.179  14.949   6.293 -0.0410 -0.2077 -0.1027
 1031YOPC   GL114855   0.114  14.914   6.640  0.4946  0.2438  0.2325
 1031YOPC   GL214856   0.183  14.613   6.649  0.1604  0.1281 -0.3005
 1031YOPC   C1A14857   0.201  15.165   6.972  0.1876 -0.2008  0.0110
 1031YOPC   D2A14858   0.223  15.143   7.461  0.1140 -0.0171  0.0586
 1031YOPC   C3A14859   0.237  15.338   7.818  0.2349  0.0551  0.0420
 1031YOPC   C4A14860   0.334  15.473   8.148  0.0724  0.0882 -0.0895
 1031YOPC   C1B14861   0.201  14.672   7.069 -0.2330  0.0457  0.0127
 1031YOPC   C2B14862   0.364  14.634   7.560 -0.2331 -0.2119 -0.0497
 1031YOPC   D3B14863   0.397  14.170   7.756 -0.2878 -0.1278 -0.0334
 1031YOPC   C4B14864   0.647  13.828   7.872 -0.0087  0.2739  0.1756
 1032YOPC   NC314865   1.502  15.209   6.243 -0.3470  0.3991 -0.0474
 1032YOPC   PO414866   1.297  15.639   6.351  0.1160  0.1528  0.1863
 1032YOPC   GL114867   1.653  15.637   6.487  0.0514  0.0303  0.1014
 1032YOPC   GL214868   1.714  15.879   6.539  0.0378  0.0550  0.1408
 1032YOPC   C1A14869   1.619  15.585   6.966 -0.2451 -0.0355  0.1060
 1032YOPC   D2A14870   1.536  15.528   7.330  0.0491 -0.4686  0.0886
 1032YOPC   C3A14871   1.652  15.848   7.632 -0.1042  0.1072 -0.0404
 1032YOPC   C4A14872   1.621  16.219   7.942  0.1540 -0.3980  0.2628
 1032YOPC   C1B14873   1.635  16.281   6.727  0.1547 -0.2078  0.1640
 1032YOPC   C2B14874   1.605  16.624   6.693 -0.1125  0.0710 -0.2015
 1032YOPC   D3B14875   1.694  16.940   6.430 -0.1515 -0.2118  0.2340
 1032YOPC   C4B14876   1.773  17.358   6.292 -0.1621  0.3186 -0.0898
 1033YOPC   NC314877   9.021   3.071   6.092  0.0071  0.0771 -0.1295
 1033YOPC   PO414878   9.374   2.954   6.091  0.0904 -0.0714  0.0197
 1033YOPC   GL114879   9.444   2.900   6.444  0.1444  0.3241 -0.0503
 1033YOPC   GL214880   9.209   2.899   6.594  0.1274  0.0594 -0.0731
 1033YOPC   C1A14881   9.625   3.008   6.817  0.1717  0.0887 -0.3219
 1033YOPC   D2A14882   9.503   3.104   7.263  0.0134 -0.0388 -0.2687
 1033YOPC   C3A14883   9.647   3.134   7.628 -0.1354  0.4481 -0.0565
 1033YOPC   C4A14884   9.797   3.193   8.020  0.2422 -0.0858 -0.5907
 1033YOPC   C1B14885   9.154   2.746   7.039  0.0586 -0.0691 -0.0797
 1033YOPC   C2B14886   9.229   2.725   7.511 -0.0987 -0.2584  0.2443
 1033YOPC   D3B14887   8.909   2.680   7.890 -0.1764  0.3870  0.1584
 1033YOPC   C4B14888   8.661   2.796   8.293 -0.2032 -0.0793  0.1499
 1034YOPC   NC314889   3.712   8.994   6.412 -0.0686  0.1095 -0.3821
 1034YOPC   PO414890   3.946   8.626   6.595 -0.2342  0.4076  0.2134
 1034YOPC   GL114891   4.025   8.578   6.988  0.2647 -0.1332 -0.0356
 1034YOPC   GL214892   4.374   8.617   7.126 -0.0449 -0.0657  0.2154
 1034YOPC   C1A14893   3.838   8.622   7.383  0.1151  0.0341 -0.0401
 1034YOPC   D2A14894   3.940   8.623   7.772 -0.2481  0.0333  0.2858
 1034YOPC   C3A14895   3.654   8.786   8.126  0.2544  0.0407  0.2337
 1034YOPC   C4A14896   3.489   8.977   8.417 -0.0237  0.0576 -0.0292
 1034YOPC   C1B14897   4.401   8.746   7.633  0.1737 -0.3742 -0.1374
 1034YOPC   C2B14898   4.549   8.661   7.999  0.0177  0.2256  0.1834
 1034YOPC   D3B14899   4.473   8.887   8.408 -0.2398  0.0341  0.0216
 1034YOPC   C4B14900   4.175   8.912   8.729  0.1294 -0.0582  0.3288
 1035YOPC   NC314901   5.557  15.311   6.223 -0.0903 -0.0016  0.2123
 1035YOPC   PO414902   5.344  15.688   6.134 -0.0632 -0.1098  0.0282
 1035YOPC   GL114903   5.365  15.449   6.603 -0.0713 -0.1662  0.0777
 1035YOPC   GL214904   5.519  15.678   6.858 -0.2391  0.1435  0.1905
 1035YOPC   C1A14905   5.174  15.362   7.016  0.1946  0.0846  0.0100
 1035YOPC   D2A14906   5.272  15.386   7.464  0.0543 -0.0832 -0.0980
 1035YOPC   C3A14907   5.232  15.167   7.881 -0.2623  0.0176  0.3096
 1035YOPC   C4A14908   5.316  15.148   8.380 -0.2024  0.2260  0.1067
 1035YOPC   C1B14909   5.655  15.724   7.207  0.3000  0.1595 -0.3583
 1035YOPC   C2B14910   5.776  15.695   7.636  0.0090 -0.0940  0.0617
 1035YOPC   D3B14911   5.751  15.674   8.042  0.2091  0.1224  0.1181
 1035YOPC   C4B14912   5.715  15.852   8.414  0.0045 -0.2142  0.0186
 1036YOPC   NC314913  15.051   9.195   6.064  0.0281  0.1767 -0.0924
 1036YOPC   PO414914  15.231   9.674   6.214  0.0748  0.3006  0.0605
 1036YOPC   GL114915  14.917   9.669   6.557  0.0106 -0.1274  0.0083
 1036YOPC   GL214916  14.638   9.762   6.526  0.0097  0.3180 -0.0028
 1036YOPC   C1A14917  14.999   9.991   7.014 -0.0717 -0.0667  0.3361
 1036YOPC   D2A14918  14.953  10.157   7.386  0.2688 -0.0873 -0.0688
 1036YOPC   C3A14919  14.748   9.816   7.637  0.0874 -0.3708  0.0226
 1036YOPC   C4A14920  14.431   9.730   7.873 -0.2690 -0.0955 -0.2657
 1036YOPC   C1B14921  14.319   9.785   6.705  0.0442  0.1732  0.1038
 1036YOPC   C2B14922  14.045   9.955   7.067 -0.0989  0.0991  0.2959
 1036YOPC   D3B14923  13.645  10.222   7.017 -0.1813  0.2128 -0.0891
 1036YOPC   C4B14924  13.281  10.296   7.201  0.1649  0.4777  0.1274
 1037YOPC   NC314925  14.028   3.050   6.011 -0.1888  0.0900  0.0886
 1037YOPC   PO414926  14.513   3.196   6.007 -0.1724  0.1172  0.1704
 1037YOPC   GL114927  14.371   3.065   6.376  0.1536 -0.1236  0.0482
 1037YOPC   GL214928  14.218   2.836   6.476 -0.1599 -0.3078 -0.0614
 1037YOPC   C1A14929  14.135   3.244   6.771 -0.3309 -0.0382 -0.0903
 1037YOPC   D2A14930  14.128   3.224   7.193  0.0351  0.0337 -0.0460
 1037YOPC   C3A14931  13.806   3.341   7.530 -0.1903 -0.0114  0.3676
 1037YOPC   C4A14932  13.782   3.478   7.905  0.1321 -0.3447  0.0061
 1037YOPC   C1B14933  13.975   2.736   7.020 -0.2165 -0.1616  0.1185
 1037YOPC   C2B14934  14.141   2.759   7.442  0.2726 -0.2538  0.2975
 1037YOPC   D3B14935  14.141   3.051   7.724 -0.0924 -0.0663  0.0539
 1037YOPC   C4B14936  14.114   3.122   8.144  0.1433  0.0492  0.2550
 1038YOPC   NC314937  11.590   8.317   5.861  0.0352  0.3698 -0.1527
 1038YOPC   PO414938  11.556   7.816   6.084  0.0605  0.0982  0.1830
 1038YOPC   GL114939  11.381   7.845   6.459  0.0119  0.2902 -0.1589
 1038YOPC   GL214940  11.640   7.694   6.652 -0.2589  0.1197 -0.0245
 1038YOPC   C1A14941  11.219   7.838   6.833 -0.0183 -0.0550  0.0066
 1038YOPC   D2A14942  11.182   7.771   7.278  0.0616  0.1149  0.1591
 1038YOPC   C3A14943  11.442   7.821   7.686 -0.1200 -0.0833 -0.1490
 1038YOPC   C4A14944  11.676   7.601   7.998 -0.1856 -0.0493  0.1758
 1038YOPC   C1B14945  11.638   7.859   7.125 -0.2200  0.2505  0.0558
 1038YOPC   C2B14946  11.578   8.253   7.490 -0.2274  0.2174 -0.1014
 1038YOPC   D3B14947  11.666   8.644   7.337  0.0357  0.2991 -0.3072
 1038YOPC   C4B14948  11.472   9.076   7.195 -0.2700  0.0298 -0.2631
 1039YOPC   NC314949   2.488  11.840   6.157  0.2714  0.0318  0.0014
 1039YOPC   PO414950   2.389  11.396   6.059 -0.2115 -0.2298 -0.0940
 1039YOPC   GL114951   2.285  11.483   6.451  0.0476  0.1771 -0.1168
 1039YOPC   GL214952   2.325  11.821   6.599 -0.0948  0.0808 -0.0299
 1039YOPC   C1A14953   2.213  11.212   6.713 -0.1005  0.0540  0.0382
 1039YOPC   D2A14954   2.212  11.370   7.122  0.1285 -0.2539  0.1856
 1039YOPC   C3A14955   2.155  11.445   7.600  0.0191 -0.0810  0.0581
 1039YOPC   C4A14956   2.400  11.450   7.947 -0.1000 -0.5039 -0.0018
 1039YOPC   C1B14957   2.522  11.830   7.008 -0.0938 -0.3840 -0.3540
 1039YOPC   C2B14958   2.423  11.797   7.408  0.0967  0.1484  0.0986
 1039YOPC   D3B14959   2.189  11.930   7.670 -0.0134 -0.2650 -0.1055
 1039YOPC   C4B14960   2.009  11.726   7.950  0.0052 -0.4277  0.2566
 1040YOPC   NC314961  13.158  15.778   6.298  0.0663 -0.0830 -0.1591
 1040YOPC   PO414962  12.866  16.033   6.469  0.0929 -0.2988  0.0175
 1040YOPC   GL114963  13.116  16.286   6.733 -0.1255  0.1161 -0.1108
 1040YOPC   GL214964  13.116  16.013   6.873 -0.1147  0.0230 -0.1393
 1040YOPC   C1A14965  13.195  16.524   7.047  0.1584  0.0209 -0.1378
 1040YOPC   D2A14966  13.330  16.615   7.432  0.1123 -0.0569  0.3699
 1040YOPC   C3A14967  13.430  16.357   7.750  0.0950  0.0669  0.1730
 1040YOPC   C4A14968  13.634  16.232   8.196  0.2703 -0.3714  0.0452
 1040YOPC   C1B14969  12.855  15.879   7.155 -0.0452  0.1558  0.0924
 1040YOPC   C2B14970  12.481  16.056   7.292  0.2743  0.0975  0.3211
 1040YOPC   D3B14971  12.156  15.823   7.508  0.1062 -0.2590  0.2348
 1040YOPC   C4B14972  11.806  15.685   7.717 -0.2376 -0.2160 -0.0190
 1041YOPC   NC314973  15.009   2.143   5.659  0.1561 -0.1351  0.1693
 1041YOPC   PO414974  14.706   2.190   5.998  0.1836  0.1179 -0.1618
 1041YOPC   GL114975  14.725   2.239   6.450 -0.1362 -0.1370 -0.1018
 1041YOPC   GL214976  14.741   2.010   6.578  0.1560  0.1564  0.1270
 1041YOPC   C1A14977  15.005   2.436   6.759  0.1766 -0.0593 -0.0228
 1041YOPC   D2A14978  14.967   2.521   7.242 -0.2314  0.2968 -0.0172
 1041YOPC   C3A14979  15.023   2.583   7.677 -0.4258 -0.0297 -0.0427
 1041YOPC   C4A14980  15.313   2.797   8.051  0.2267 -0.0125  0.0026
 1041YOPC   C1B14981  14.719   2.090   6.984  0.2703  0.1038  0.1459
 1041YOPC   C2B14982  14.635   2.130   7.494  0.1292 -0.1675 -0.0537
 1041YOPC   D3B14983  14.528   2.551   7.715  0.3328  0.0348  0.1959
 1041YOPC   C4B14984  14.224   2.611   8.007 -0.1408 -0.0697 -0.1912
 1042YOPC   NC314985   9.219  12.510   6.639 -0.4597  0.0008  0.0270
 1042YOPC   PO414986   9.605  12.846   6.703 -0.3615 -0.1265 -0.2342
 1042YOPC   GL114987   9.192  13.119   6.981  0.1173 -0.1072 -0.2902
 1042YOPC   GL214988   9.008  13.410   6.780  0.2321 -0.0060  0.2401
 1042YOPC   C1A14989   8.895  13.147   7.246  0.0116  0.0099  0.0677
 1042YOPC   D2A14990   8.844  13.410   7.670 -0.0307 -0.1870 -0.3581
 1042YOPC   C3A14991   8.474  13.284   8.053  0.0492  0.2871 -0.3289
 1042YOPC   C4A14992   8.637  13.225   8.492 -0.0180  0.2026  0.0888
 1042YOPC   C1B14993   8.607  13.447   6.903  0.0869  0.0451  0.0243
 1042YOPC   C2B14994   8.411  13.590   7.312 -0.0251  0.0480 -0.0760
 1042YOPC   D3B14995   8.451  13.716   7.801 -0.1546  0.0411  0.0387
 1042YOPC   C4B14996   8.558  13.776   8.220 -0.2862  0.0211  0.3295
 1043YOPC   NC314997  16.558   5.924   6.002 -0.0699 -0.2242  0.1485
 1043YOPC   PO414998  16.329   6.232   5.784  0.0979  0.0465  0.0267
 1043YOPC   GL114999  16.302   6.271   6.298 -0.0800  0.0046  0.2765
 1043YOPC   GL215000  16.117   6.606   6.408 -0.0537 -0.0585  0.1425
 1043YOPC   C1A15001  16.210   5.847   6.526 -0.1243 -0.0870 -0.3173
 1043YOPC   D2A15002  16.263   5.509   6.819  0.0089 -0.1327  0.2669
 1043YOPC   C3A15003  16.229   5.621   7.332  0.0541  0.0179 -0.0196
 1043YOPC   C4A15004  16.247   5.626   7.654 -0.0101  0.2115  0.2611
 1043YOPC   C1B15005  15.921   6.254   6.655 -0.0717  0.3174 -0.0560
 1043YOPC   C2B15006  16.107   6.017   7.006  0.0160  0.1980 -0.3898
 1043YOPC   D3B15007  15.982   6.071   7.466 -0.2406 -0.0437  0.1810
 1043YOPC   C4B15008  15.840   6.135   7.922 -0.1504  0.1046  0.0064
 1044YOPC   NC315009  14.718   4.356   5.622  0.1139 -0.2202 -0.0364
 1044YOPC   PO415010  14.454   4.700   5.719  0.3470 -0.0664 -0.3896
 1044YOPC   GL115011  14.407   4.706   6.171  0.0619  0.0317 -0.1962
 1044YOPC   GL215012  14.137   4.766   6.145  0.2004  0.3388 -0.1183
 1044YOPC   C1A15013  14.096   4.737   6.629 -0.3546 -0.2361  0.0643
 1044YOPC   D2A15014  13.998   4.920   6.962  0.0625  0.1491  0.0328
 1044YOPC   C3A15015  13.904   5.343   6.718  0.2034  0.1315 -0.1596
 1044YOPC   C4A15016  13.677   5.733   6.782  0.2993  0.1371 -0.0585
 1044YOPC   C1B15017  14.244   5.205   6.348  0.3555  0.3499 -0.3141
 1044YOPC   C2B15018  14.381   5.618   6.243  0.1999 -0.2207  0.4113
 1044YOPC   D3B15019  14.455   5.954   6.525 -0.1338  0.1265 -0.0614
 1044YOPC   C4B15020  14.155   5.878   6.819 -0.1914 -0.4578 -0.0685
 1045YOPC   NC315021   3.128   6.624   6.182  0.1915  0.0632 -0.4594
 1045YOPC   PO415022   2.794   6.495   6.407  0.0314 -0.2177  0.2926
 1045YOPC   GL115023   2.620   6.305   6.769 -0.0757  0.0861  0.1592
 1045YOPC   GL215024   2.827   6.017   6.745  0.0115  0.1359 -0.3568
 1045YOPC   C1A15025   2.597   6.180   7.215 -0.0571  0.1900  0.0869
 1045YOPC   D2A15026   2.377   6.096   7.579 -0.1546  0.1877  0.3901
 1045YOPC   C3A15027   2.532   5.959   7.898  0.1098  0.2272  0.2127
 1045YOPC   C4A15028   2.407   6.011   8.275  0.0820  0.0011  0.1437
 1045YOPC   C1B15029   3.059   5.956   7.186 -0.0502  0.1195 -0.1446
 1045YOPC   C2B15030   2.941   5.852   7.659 -0.1439  0.0124  0.0121
 1045YOPC   D3B15031   2.915   5.679   8.115  0.2027 -0.1389  0.4162
 1045YOPC   C4B15032   3.274   5.391   8.198  0.1506  0.3817  0.1231
 1046YOPC   NC315033   5.396   1.867   5.908 -0.0427 -0.1426  0.0556
 1046YOPC   PO415034   5.750   1.734   6.069  0.0157 -0.0517 -0.0154
 1046YOPC   GL115035   5.733   1.572   6.522  0.2676  0.1786  0.1015
 1046YOPC   GL215036   5.691   1.282   6.658  0.1502  0.1312  0.1076
 1046YOPC   C1A15037   5.391   1.592   6.846 -0.0220 -0.0841 -0.2054
 1046YOPC   D2A15038   5.175   1.791   7.208  0.2495 -0.0080  0.3108
 1046YOPC   C3A15039   5.042   1.737   7.702 -0.0825 -0.2124 -0.0271
 1046YOPC   C4A15040   4.814   1.736   7.916  0.1384 -0.1845 -0.1669
 1046YOPC   C1B15041   5.438   1.083   6.898 -0.2137 -0.0769 -0.1514
 1046YOPC   C2B15042   5.048   0.779   7.132 -0.0843 -0.1813 -0.0796
 1046YOPC   D3B15043   4.931   0.723   7.488  0.0882 -0.2727  0.0432
 1046YOPC   C4B15044   5.109   0.596   7.826  0.0281 -0.0314  0.0133
 1047YOPC   NC315045  12.568  10.913   5.650  0.1148  0.0630 -0.0220
 1047YOPC   PO415046  12.587  10.753   6.091 -0.1530  0.0107  0.2481
 1047YOPC   GL115047  12.579  10.853   6.520  0.0698 -0.1273  0.4142
 1047YOPC   GL215048  12.825  11.089   6.601 -0.0119  0.0838 -0.1789
 1047YOPC   C1A15049  12.667  10.733   6.964 -0.0337 -0.0472 -0.0497
 1047YOPC   D2A15050  12.753  10.313   7.167  0.2285 -0.1190  0.1636
 1047YOPC   C3A15051  12.734  10.337   7.555  0.3564 -0.1755 -0.2159
 1047YOPC   C4A15052  12.769  10.401   7.964  0.1630 -0.0063  0.0084
 1047YOPC   C1B15053  13.132  11.025   7.018 -0.2718 -0.0306 -0.0174
 1047YOPC   C2B15054  13.105  10.752   7.295 -0.0096  0.0246  0.1653
 1047YOPC   D3B15055  13.251  10.553   7.693 -0.3927  0.4451  0.1236
 1047YOPC   C4B15056  13.259  10.408   8.166  0.2091  0.0818 -0.4484
 1048YOPC   NC315057  17.261   1.319   5.583  0.3930  0.2060  0.2542
 1048YOPC   PO415058  17.284   1.033   5.946 -0.1635 -0.0976 -0.3591
 1048YOPC   GL115059  17.213   0.843   6.364  0.0596 -0.1933 -0.1504
 1048YOPC   GL215060  17.433   0.582   6.504 -0.3772 -0.0919 -0.1361
 1048YOPC   C1A15061  17.007   0.927   6.686 -0.2937 -0.2191  0.0191
 1048YOPC   D2A15062  17.073   1.086   6.981  0.0328 -0.0338  0.0691
 1048YOPC   C3A15063  17.156   0.858   7.373 -0.1305 -0.0472  0.3388
 1048YOPC   C4A15064  17.485   0.857   7.765 -0.2551 -0.0161  0.0372
 1048YOPC   C1B15065  17.479   0.678   6.949 -0.0202  0.0817  0.1597
 1048YOPC   C2B15066  17.676   0.651   7.332 -0.1793  0.2125  0.0650
 1048YOPC   D3B15067  18.096   0.655   7.395  0.1982  0.2708  0.1691
 1048YOPC   C4B15068  18.267   0.778   7.767 -0.2266 -0.1574  0.0550
 1049YOPC   NC315069   9.678  13.046   6.243 -0.0323  0.0515 -0.3704
 1049YOPC   PO415070   9.983  13.154   6.604  0.0441 -0.0857  0.2022
 1049YOPC   GL115071  10.023  13.508   6.874  0.0413  0.2662 -0.1078
 1049YOPC   GL215072  10.189  13.325   7.150 -0.0842 -0.1418 -0.1022
 1049YOPC   C1A15073  10.023  13.790   7.261 -0.2135 -0.0890 -0.0023
 1049YOPC   D2A15074  10.192  13.687   7.715  0.0038 -0.1485  0.1905
 1049YOPC   C3A15075   9.998  13.735   8.017 -0.0930  0.0248 -0.2692
 1049YOPC   C4A15076  10.018  13.882   8.378  0.0594 -0.0869  0.0198
 1049YOPC   C1B15077  10.267  12.903   7.143  0.2449 -0.1656  0.2566
 1049YOPC   C2B15078  10.028  12.555   7.355  0.0475 -0.1799 -0.0154
 1049YOPC   D3B15079   9.931  12.651   7.837  0.1351  0.0853  0.2368
 1049YOPC   C4B15080   9.700  12.798   8.091  0.1543 -0.3656 -0.1401
 1050YOPC   NC315081   8.959   7.178   5.981 -0.0298  0.1759 -0.0981
 1050YOPC   PO415082   8.516   7.187   5.969  0.0027  0.0550  0.1556
 1050YOPC   GL115083   8.556   7.360   6.387  0.2628 -0.3067 -0.0229
 1050YOPC   GL215084   8.790   7.639   6.521 -0.0367  0.0359  0.3909
 1050YOPC   C1A15085   8.646   7.226   6.781  0.0127  0.0381 -0.0097
 1050YOPC   D2A15086   8.692   6.906   7.084 -0.0616  0.1850  0.1863
 1050YOPC   C3A15087   8.845   7.169   7.425 -0.1037  0.2216 -0.3305
 1050YOPC   C4A15088   9.022   7.500   7.641  0.0186  0.0302 -0.2400
 1050YOPC   C1B15089   8.942   7.605   6.878  0.0331  0.1383  0.0067
 1050YOPC   C2B15090   8.624   7.663   7.307 -0.1696  0.1024  0.3837
 1050YOPC   D3B15091   8.483   8.158   7.288  0.1198 -0.2196 -0.2314
 1050YOPC   C4B15092   8.534   8.572   6.988 -0.0040 -0.3457 -0.0699
 1051YOPC   NC315093   7.780   5.475   5.673 -0.0100 -0.1308 -0.1517
 1051YOPC   PO415094   8.130   5.457   5.933 -0.0946 -0.2477  0.0894
 1051YOPC   GL115095   8.076   5.431   6.329 -0.2185 -0.0563  0.0982
 1051YOPC   GL215096   8.347   5.450   6.387  0.1095  0.0615  0.0097
 1051YOPC   C1A15097   7.886   5.205   6.739  0.0040  0.0728 -0.0398
 1051YOPC   D2A15098   7.940   5.251   7.149  0.2049 -0.1467 -0.0157
 1051YOPC   C3A15099   7.948   5.582   7.374  0.0785  0.0549  0.1908
 1051YOPC   C4A15100   7.822   5.843   7.739 -0.1240  0.0429  0.0891
 1051YOPC   C1B15101   8.346   5.464   6.850 -0.1842 -0.0621 -0.0074
 1051YOPC   C2B15102   8.389   5.440   7.196  0.0160 -0.1163 -0.2465
 1051YOPC   D3B15103   8.557   5.594   7.593 -0.1180  0.3223  0.0920
 1051YOPC   C4B15104   8.423   5.741   7.915  0.0730  0.0385  0.1477
 1052YOPC   NC315105  12.779  11.659   6.262  0.2303  0.1470 -0.1628
 1052YOPC   PO415106  12.544  11.795   5.881 -0.2901 -0.0209 -0.1474
 1052YOPC   GL115107  12.273  11.871   6.230 -0.0386 -0.1203  0.2490
 1052YOPC   GL215108  12.414  12.174   6.360 -0.0835 -0.1893 -0.2455
 1052YOPC   C1A15109  12.166  11.902   6.689 -0.0677  0.2699 -0.1788
 1052YOPC   D2A15110  12.211  12.075   7.165 -0.1265  0.0034  0.1022
 1052YOPC   C3A15111  12.080  11.908   7.431 -0.1064  0.3410 -0.0899
 1052YOPC   C4A15112  11.756  11.968   7.723  0.2251 -0.1981  0.1636
 1052YOPC   C1B15113  12.497  12.306   6.809  0.1339  0.2556  0.0263
 1052YOPC   C2B15114  12.724  12.277   7.171 -0.0486  0.2182 -0.1321
 1052YOPC   D3B15115  12.768  12.486   7.525  0.3688  0.0936  0.0071
 1052YOPC   C4B15116  13.040  12.599   7.867 -0.3319  0.0447 -0.1305
 1053YOPC   NC315117   6.224   2.100   6.055 -0.0722  0.2143  0.3040
 1053YOPC   PO415118   6.634   1.938   6.304  0.1334 -0.1940 -0.0840
 1053YOPC   GL115119   6.479   1.799   6.746 -0.1405 -0.2520 -0.0891
 1053YOPC   GL215120   6.415   1.500   6.717  0.0737 -0.3052  0.2666
 1053YOPC   C1A15121   6.402   1.746   7.231  0.0739  0.1698  0.1130
 1053YOPC   D2A15122   6.300   1.994   7.575 -0.1473  0.1114  0.1225
 1053YOPC   C3A15123   6.582   2.007   7.935 -0.0708 -0.1632  0.1867
 1053YOPC   C4A15124   6.786   1.773   8.215  0.1690  0.1808  0.0130
 1053YOPC   C1B15125   6.588   1.379   6.973  0.0166  0.0626 -0.1040
 1053YOPC   C2B15126   6.673   1.248   7.425 -0.1314 -0.0765  0.1317
 1053YOPC   D3B15127   6.586   1.507   7.800  0.0950 -0.0461  0.2079
 1053YOPC   C4B15128   6.311   1.610   8.137  0.1589 -0.0825  0.1040
 1054YOPC   NC315129  16.592  11.396   6.073  0.1660  0.4653  0.1336
 1054YOPC   PO415130  16.979  11.407   6.301  0.1633  0.0087 -0.0980
 1054YOPC   GL115131  17.063  11.296   6.673  0.1706 -0.0180  0.2622
 1054YOPC   GL215132  17.307  11.389   6.817 -0.2842  0.3880  0.1610
 1054YOPC   C1A15133  16.801  11.440   7.063 -0.3114 -0.1447 -0.1526
 1054YOPC   D2A15134  16.826  11.314   7.551  0.0176  0.3525  0.0475
 1054YOPC   C3A15135  16.416  11.427   7.729 -0.2003 -0.1799 -0.3373
 1054YOPC   C4A15136  16.136  11.306   8.096 -0.1974 -0.1527  0.2029
 1054YOPC   C1B15137  17.223  11.172   7.195 -0.1488 -0.0257 -0.1476
 1054YOPC   C2B15138  17.229  10.901   7.551  0.0067 -0.2915  0.1185
 1054YOPC   D3B15139  17.048  11.031   7.935  0.1371  0.2990  0.2880
 1054YOPC   C4B15140  16.896  11.362   8.063 -0.1625 -0.4810 -0.0825
 1055YOPC   NC315141   1.164  11.570   5.299 -0.1328  0.4072  0.3185
 1055YOPC   PO415142   1.169  11.868   5.628  0.3625  0.1294 -0.0572
 1055YOPC   GL115143   1.130  12.176   6.054 -0.1260  0.0085 -0.1353
 1055YOPC   GL215144   1.362  12.236   6.266 -0.0018 -0.0745 -0.1663
 1055YOPC   C1A15145   0.809  12.423   6.383  0.0529  0.2389 -0.0604
 1055YOPC   D2A15146   0.890  12.595   6.782 -0.0176 -0.1110  0.0600
 1055YOPC   C3A15147   0.638  12.836   7.034 -0.0204  0.1197  0.3296
 1055YOPC   C4A15148   0.545  13.119   7.350  0.1370  0.2450  0.1563
 1055YOPC   C1B15149   1.306  12.345   6.669 -0.1136 -0.2848 -0.0290
 1055YOPC   C2B15150   1.192  12.565   7.180 -0.1893 -0.1576 -0.0682
 1055YOPC   D3B15151   1.491  12.871   7.356 -0.2127  0.0168  0.0019
 1055YOPC   C4B15152   1.864  12.960   7.583 -0.1015  0.1999 -0.0270
 1056YOPC   NC315153  10.164   6.577   5.441  0.2310  0.0905 -0.6058
 1056YOPC   PO415154   9.817   6.686   5.705 -0.3211 -0.0029 -0.4004
 1056YOPC   GL115155   9.932   6.641   6.097  0.1150  0.4240 -0.3695
 1056YOPC   GL215156   9.766   7.006   6.178  0.1939 -0.2637 -0.0985
 1056YOPC   C1A15157  10.139   6.413   6.459  0.0737  0.2449 -0.1043
 1056YOPC   D2A15158  10.474   6.080   6.608  0.1401 -0.3430  0.3862
 1056YOPC   C3A15159  10.280   6.019   7.053 -0.4285  0.0027 -0.4641
 1056YOPC   C4A15160  10.339   6.032   7.397 -0.1634 -0.1284  0.2806
 1056YOPC   C1B15161   9.939   6.879   6.494  0.0510 -0.3591  0.0286
 1056YOPC   C2B15162   9.864   6.654   6.883  0.0375 -0.3304  0.1959
 1056YOPC   D3B15163   9.524   6.446   6.999  0.0811  0.1849 -0.3293
 1056YOPC   C4B15164   9.131   6.257   6.824 -0.1683 -0.0133 -0.1427
 1057YOPC   NC315165   5.403   7.550   5.835  0.0009  0.1215 -0.0791
 1057YOPC   PO415166   5.867   7.393   5.969  0.0612  0.1437 -0.2855
 1057YOPC   GL115167   5.832   7.403   6.402 -0.2286  0.2546  0.1512
 1057YOPC   GL215168   5.967   7.643   6.514 -0.1271 -0.2336  0.1132
 1057YOPC   C1A15169   5.864   7.027   6.659  0.1548 -0.2768  0.1582
 1057YOPC   D2A15170   5.827   6.950   7.060  0.2953  0.1704  0.1869
 1057YOPC   C3A15171   5.772   6.641   7.315 -0.0606 -0.3278 -0.0718
 1057YOPC   C4A15172   5.921   6.434   7.610  0.0215  0.2236  0.0716
 1057YOPC   C1B15173   6.307   7.275   6.718 -0.1732 -0.2039 -0.0148
 1057YOPC   C2B15174   6.298   6.911   7.026 -0.0116  0.1850 -0.0017
 1057YOPC   D3B15175   6.200   7.010   7.395  0.1252  0.0696 -0.0551
 1057YOPC   C4B15176   5.960   6.920   7.736 -0.1838 -0.3123 -0.2320
 1058YOPC   NC315177   6.394  13.841   6.384 -0.1241  0.0161 -0.0841
 1058YOPC   PO415178   5.936  14.044   6.305 -0.1559  0.1183 -0.3413
 1058YOPC   GL115179   5.947  14.013   6.619  0.0209 -0.1893 -0.5079
 1058YOPC   GL215180   5.833  13.711   6.721  0.1260  0.0945 -0.1259
 1058YOPC   C1A15181   6.193  14.145   6.932 -0.1214 -0.1207 -0.0072
 1058YOPC   D2A15182   6.514  14.330   6.964  0.0587  0.0819  0.1658
 1058YOPC   C3A15183   6.573  14.594   7.164 -0.1036 -0.2193  0.2198
 1058YOPC   C4A15184   6.479  14.745   7.513  0.0207  0.0037 -0.0569
 1058YOPC   C1B15185   5.785  13.816   7.079  0.1090  0.0766 -0.1345
 1058YOPC   C2B15186   5.706  13.879   7.542  0.0859 -0.3230  0.2826
 1058YOPC   D3B15187   5.672  14.146   7.747 -0.2616  0.2169  0.3362
 1058YOPC   C4B15188   5.514  14.254   8.080  0.0478  0.2307  0.2526
 1059YOPC   NC315189  13.198   0.847   6.162  0.0692  0.0420 -0.1401
 1059YOPC   PO415190  13.265   0.386   6.368  0.3884 -0.1897 -0.2357
 1059YOPC   GL115191  13.441   0.345   6.680  0.0069  0.2370 -0.0562
 1059YOPC   GL215192  13.462  -0.026   6.684 -0.1022 -0.0145  0.2517
 1059YOPC   C1A15193  13.520   0.233   7.168 -0.1702 -0.2838  0.2663
 1059YOPC   D2A15194  13.582   0.314   7.542 -0.1436  0.0474  0.0649
 1059YOPC   C3A15195  13.824   0.254   7.972  0.0105 -0.0544  0.0120
 1059YOPC   C4A15196  13.891   0.430   8.380 -0.0284  0.0216 -0.3406
 1059YOPC   C1B15197  13.039   0.012   6.880 -0.0084  0.3639  0.3239
 1059YOPC   C2B15198  12.633   0.085   6.999 -0.2285 -0.1031 -0.0724
 1059YOPC   D3B15199  12.535   0.027   7.386 -0.1993 -0.1032  0.1320
 1059YOPC   C4B15200  12.416   0.181   7.769 -0.1622 -0.1535  0.1677
 1060YOPC   NC315201   3.227   2.862   5.854  0.1509  0.0415 -0.1484
 1060YOPC   PO415202   2.834   2.809   6.080  0.0117  0.0047  0.3285
 1060YOPC   GL115203   2.887   2.946   6.551  0.1451  0.1474  0.1816
 1060YOPC   GL215204   2.924   3.220   6.544  0.0467 -0.1662 -0.2265
 1060YOPC   C1A15205   3.051   2.923   7.127 -0.0091  0.1639  0.1317
 1060YOPC   D2A15206   2.995   3.025   7.505  0.0339 -0.2700  0.1167
 1060YOPC   C3A15207   2.986   2.859   7.840  0.1155 -0.0957  0.0535
 1060YOPC   C4A15208   2.642   2.756   8.072  0.3322  0.0975 -0.0801
 1060YOPC   C1B15209   3.231   3.372   6.872 -0.1318 -0.1964 -0.2553
 1060YOPC   C2B15210   3.234   3.414   7.304 -0.0735  0.1486 -0.2165
 1060YOPC   D3B15211   3.297   3.349   7.743  0.0353  0.0575  0.0902
 1060YOPC   C4B15212   3.421   3.355   8.210  0.0365  0.2906  0.1650
 1061YOPC   NC315213   8.690   0.829   6.126 -0.1420  0.2146  0.0217
 1061YOPC   PO415214   8.639   0.322   6.196 -0.2800 -0.2913 -0.3099
 1061YOPC   GL115215   8.588   0.158   6.615 -0.0688 -0.1359 -0.2134
 1061YOPC   GL215216   8.806  -0.164   6.671  0.0686 -0.1817  0.3234
 1061YOPC   C1A15217   8.300   0.225   7.039 -0.0671 -0.1333  0.1958
 1061YOPC   D2A15218   8.331   0.243   7.590 -0.3393  0.1959 -0.1021
 1061YOPC   C3A15219   8.118   0.445   7.802 -0.1261  0.1384  0.1326
 1061YOPC   C4A15220   7.762   0.386   7.888 -0.1460 -0.3110  0.0756
 1061YOPC   C1B15221   8.706   0.035   7.132 -0.4604  0.0792  0.1699
 1061YOPC   C2B15222   8.810   0.128   7.614  0.0558  0.1943  0.1009
 1061YOPC   D3B15223   8.624   0.257   7.999  0.1217  0.1312  0.1710
 1061YOPC   C4B15224   8.343   0.230   8.427 -0.1808  0.0917  0.0146
 1062YOPC   NC315225  10.296   0.704   5.964 -0.2636 -0.1028 -0.0079
 1062YOPC   PO415226  10.614   0.833   6.268 -0.1640 -0.1347 -0.1750
 1062YOPC   GL115227  10.554   0.781   6.559  0.0549  0.0302 -0.3082
 1062YOPC   GL215228  10.300   0.933   6.781  0.2050 -0.0244 -0.0129
 1062YOPC   C1A15229  10.753   0.736   6.980 -0.0023  0.4656 -0.0983
 1062YOPC   D2A15230  10.760   0.833   7.393 -0.0010 -0.0398  0.3652
 1062YOPC   C3A15231  10.728   1.251   7.479  0.0246  0.0359 -0.2255
 1062YOPC   C4A15232  10.487   1.540   7.415  0.0107  0.0514 -0.0446
 1062YOPC   C1B15233  10.355   1.026   7.209 -0.0360  0.1262 -0.1682
 1062YOPC   C2B15234  10.269   1.042   7.570 -0.0892  0.2960  0.1207
 1062YOPC   D3B15235  10.530   0.940   7.860  0.0845  0.2299  0.3780
 1062YOPC   C4B15236  10.824   0.927   7.871  0.2453 -0.0258  0.0672
 1063YOPC   NC315237   1.255  16.942   5.682  0.3668 -0.0973  0.0324
 1063YOPC   PO415238   0.980  17.097   5.928  0.1310 -0.0694  0.2540
 1063YOPC   GL115239   1.237  17.189   6.341  0.1759  0.0259  0.1119
 1063YOPC   GL215240   1.265  17.529   6.428 -0.1180  0.3391  0.0083
 1063YOPC   C1A15241   1.514  17.295   6.742  0.2988 -0.1063 -0.1679
 1063YOPC   D2A15242   1.750  17.501   7.058 -0.2192  0.1184 -0.0376
 1063YOPC   C3A15243   1.693  17.540   7.399  0.1075 -0.0319  0.3927
 1063YOPC   C4A15244   1.656  17.730   7.740 -0.0232 -0.0354 -0.0777
 1063YOPC   C1B15245   1.312  17.751   6.778 -0.0823 -0.0867  0.1254
 1063YOPC   C2B15246   1.486  18.032   7.033  0.2978  0.2844 -0.1314
 1063YOPC   D3B15247   1.619  18.026   7.365 -0.1620  0.1041  0.1129
 1063YOPC   C4B15248   1.731  18.290   7.687  0.3291 -0.1265 -0.2427
 1064YOPC   NC315249   4.006  12.844   5.920 -0.1463  0.1968  0.1576
 1064YOPC   PO415250   4.490  12.730   6.054  0.0388 -0.0371  0.0355
 1064YOPC   GL115251   4.471  12.671   6.539 -0.0081 -0.0375  0.3666
 1064YOPC   GL215252   4.734  12.797   6.695  0.2666 -0.1415  0.3314
 1064YOPC   C1A15253   4.209  12.597   6.867 -0.0876 -0.2421  0.0226
 1064YOPC   D2A15254   4.238  12.592   7.306 -0.0853 -0.2604  0.0362
 1064YOPC   C3A15255   3.817  12.444   7.498 -0.1817  0.2593  0.0340
 1064YOPC   C4A15256   3.909  12.563   7.909 -0.0219 -0.0342 -0.2205
 1064YOPC   C1B15257   4.697  12.619   7.104  0.1832 -0.1870 -0.1706
 1064YOPC   C2B15258   4.717  12.627   7.617  0.1870 -0.0825 -0.0771
 1064YOPC   D3B15259   4.336  12.836   7.778 -0.1347 -0.0839 -0.0967
 1064YOPC   C4B15260   4.276  13.127   8.047 -0.2887 -0.0920  0.1967
 1065YOPC   NC315261   3.347   4.094   6.231  0.0855 -0.1843  0.0361
 1065YOPC   PO415262   3.643   4.446   6.290  0.2068  0.1419 -0.0928
 1065YOPC   GL115263   3.776   4.474   6.700  0.2407  0.1441  0.0826
 1065YOPC   GL215264   4.038   4.318   6.641  0.1491  0.0431 -0.1640
 1065YOPC   C1A15265   3.679   4.434   7.175  0.2706 -0.1305  0.3091
 1065YOPC   D2A15266   3.625   4.352   7.515 -0.0314 -0.0279 -0.2242
 1065YOPC   C3A15267   3.866   4.220   7.899 -0.1504 -0.0974 -0.3455
 1065YOPC   C4A15268   4.312   4.209   8.084  0.0771 -0.0384  0.0042
 1065YOPC   C1B15269   4.154   4.210   7.074 -0.0190 -0.0056  0.1061
 1065YOPC   C2B15270   3.990   3.950   7.453 -0.1744  0.1806 -0.0362
 1065YOPC   D3B15271   4.258   3.874   7.734  0.2702  0.2707 -0.0329
 1065YOPC   C4B15272   4.343   3.450   7.750  0.2226 -0.1023 -0.1655
 1066YOPC   NC315273  15.665  14.049   6.345  0.0391 -0.0829 -0.0683
 1066YOPC   PO415274  15.930  14.342   6.478 -0.2368  0.0065  0.0406
 1066YOPC   GL115275  15.917  14.118   6.828 -0.0310  0.0157 -0.3676
 1066YOPC   GL215276  15.679  13.916   6.859  0.2248 -0.0274  0.1097
 1066YOPC   C1A15277  16.136  13.898   7.179 -0.0743  0.1072 -0.1038
 1066YOPC   D2A15278  16.621  13.782   7.262 -0.1694  0.1824  0.1338
 1066YOPC   C3A15279  16.808  13.509   7.517 -0.2452 -0.2802 -0.2727
 1066YOPC   C4A15280  17.089  13.552   7.824  0.1092  0.0086  0.1706
 1066YOPC   C1B15281  15.649  13.839   7.358  0.1633  0.0435 -0.1805
 1066YOPC   C2B15282  15.525  13.874   7.743  0.0388  0.2036  0.0310
 1066YOPC   D3B15283  15.822  14.192   7.999 -0.0869  0.1055  0.3543
 1066YOPC   C4B15284  15.982  14.432   8.309  0.2070 -0.4221 -0.0505
 1067YOPC   NC315285   7.646   3.623   5.532  0.0502 -0.2423  0.2129
 1067YOPC   PO415286   7.554   3.298   5.867 -0.2831  0.0021  0.0743
 1067YOPC   GL115287   7.708   3.334   6.336  0.2764  0.3576 -0.0346
 1067YOPC   GL215288   7.444   3.613   6.372  0.0833 -0.2998  0.1636
 1067YOPC   C1A15289   7.797   3.363   6.944 -0.0720  0.2355  0.2444
 1067YOPC   D2A15290   7.867   3.435   7.405  0.0565 -0.2169  0.2011
 1067YOPC   C3A15291   7.978   3.005   7.575 -0.1727  0.1257 -0.1097
 1067YOPC   C4A15292   7.899   2.776   7.875  0.3659  0.1347 -0.2809
 1067YOPC   C1B15293   7.322   3.614   6.841 -0.4851 -0.2361  0.1660
 1067YOPC   C2B15294   7.086   3.630   7.014  0.0782 -0.0779  0.1381
 1067YOPC   D3B15295   7.094   3.906   7.222  0.2325 -0.4165 -0.4754
 1067YOPC   C4B15296   7.042   4.047   7.607 -0.1249 -0.2191  0.1380
 1068YOPC   NC315297   4.387  14.030   6.124  0.1781 -0.2020 -0.3037
 1068YOPC   PO415298   4.561  14.413   6.384 -0.1389 -0.2135 -0.0999
 1068YOPC   GL115299   4.624  14.761   6.704 -0.1638  0.1757  0.2062
 1068YOPC   GL215300   4.647  15.048   6.494  0.0394  0.1260  0.2170
 1068YOPC   C1A15301   4.671  14.775   7.177  0.0414 -0.3374  0.2386
 1068YOPC   D2A15302   4.833  15.028   7.487  0.0158 -0.0557 -0.1135
 1068YOPC   C3A15303   4.949  14.719   7.667  0.2013 -0.2986 -0.1744
 1068YOPC   C4A15304   4.960  14.337   7.869  0.1286 -0.0550  0.0329
 1068YOPC   C1B15305   5.081  14.980   6.699 -0.1212  0.2647 -0.1205
 1068YOPC   C2B15306   5.537  14.772   6.703  0.1994  0.1783 -0.0920
 1068YOPC   D3B15307   5.607  14.483   6.964 -0.1026 -0.1450 -0.0641
 1068YOPC   C4B15308   5.654  14.451   7.320  0.1725  0.1070 -0.1079
 1069YOPC   NC315309   6.203   0.263   5.974  0.0831  0.1376  0.3909
 1069YOPC   PO415310   6.252  -0.142   5.871  0.0050 -0.0328  0.0537
 1069YOPC   GL115311   6.186  -0.091   6.378 -0.0298 -0.3202  0.3166
 1069YOPC   GL215312   5.839   0.020   6.366 -0.1932 -0.4837 -0.1719
 1069YOPC   C1A15313   6.212  -0.377   6.723  0.3261  0.2394  0.0397
 1069YOPC   D2A15314   5.960  -0.589   7.033 -0.3852  0.0345 -0.1809
 1069YOPC   C3A15315   6.006  -0.983   7.287  0.0702 -0.1478 -0.0057
 1069YOPC   C4A15316   6.128  -1.407   7.577 -0.1141 -0.2295 -0.2016
 1069YOPC   C1B15317   5.998   0.085   6.813 -0.1200 -0.0686 -0.1873
 1069YOPC   C2B15318   6.088  -0.130   7.269  0.0924 -0.0877  0.0032
 1069YOPC   D3B15319   5.801  -0.303   7.587 -0.2081 -0.0633  0.0519
 1069YOPC   C4B15320   5.668  -0.684   7.924 -0.1592 -0.2321  0.0638
 1070YOPC   NC315321   6.406   5.566   5.967 -0.1002 -0.0364 -0.2887
 1070YOPC   PO415322   6.512   5.884   5.769  0.1652 -0.0336 -0.0572
 1070YOPC   GL115323   6.492   6.077   6.108  0.0630  0.0652 -0.0688
 1070YOPC   GL215324   6.384   5.852   6.366  0.2428  0.0865  0.0137
 1070YOPC   C1A15325   6.352   6.394   6.346 -0.2623  0.4579  0.2019
 1070YOPC   D2A15326   6.127   6.608   6.665  0.0665  0.1162 -0.0162
 1070YOPC   C3A15327   5.780   6.427   6.846  0.0127  0.0049 -0.1706
 1070YOPC   C4A15328   5.358   6.498   7.028 -0.0614  0.4207  0.1137
 1070YOPC   C1B15329   6.331   6.088   6.754  0.0584 -0.0076  0.0986
 1070YOPC   C2B15330   6.171   6.424   7.136 -0.2206  0.0973  0.3921
 1070YOPC   D3B15331   6.399   6.494   7.507  0.0144  0.0271  0.2185
 1070YOPC   C4B15332   6.491   6.771   7.807  0.0098  0.2330  0.1446
 1071YOPC   NC315333  12.850   5.174   5.388 -0.0461  0.1059 -0.0194
 1071YOPC   PO415334  12.992   5.302   5.796  0.2171  0.1281 -0.1404
 1071YOPC   GL115335  13.169   5.486   6.126 -0.1631  0.1237 -0.1577
 1071YOPC   GL215336  13.001   5.375   6.420  0.1336  0.0970 -0.1205
 1071YOPC   C1A15337  13.484   5.457   6.338 -0.3105  0.2148  0.1443
 1071YOPC   D2A15338  13.802   5.637   6.338 -0.0405 -0.0284  0.2399
 1071YOPC   C3A15339  13.822   5.973   6.367  0.1575 -0.4014 -0.0909
 1071YOPC   C4A15340  13.910   6.382   6.414  0.0012  0.2383 -0.2940
 1071YOPC   C1B15341  13.178   5.407   6.773  0.0950 -0.0918 -0.0480
 1071YOPC   C2B15342  12.930   5.446   7.269  0.1727  0.4563 -0.4203
 1071YOPC   D3B15343  13.040   5.522   7.725  0.2680  0.2096 -0.0060
 1071YOPC   C4B15344  13.185   5.414   8.087 -0.0966  0.0140 -0.1301
 1072YOPC   NC315345   6.037  11.096   6.098  0.0492  0.2794  0.1237
 1072YOPC   PO415346   6.484  11.116   6.315  0.3113 -0.2201 -0.3835
 1072YOPC   GL115347   6.576  11.140   6.690 -0.1115  0.2765  0.2107
 1072YOPC   GL215348   6.793  11.380   6.799 -0.2156 -0.3917  0.1303
 1072YOPC   C1A15349   6.573  10.950   7.108  0.0062  0.1023  0.0989
 1072YOPC   D2A15350   6.617  10.999   7.637 -0.0887  0.0122  0.0349
 1072YOPC   C3A15351   7.020  10.860   7.918  0.1950  0.1127 -0.0394
 1072YOPC   C4A15352   7.257  11.022   8.320 -0.0978  0.0126  0.1243
 1072YOPC   C1B15353   6.988  11.283   7.239  0.2456 -0.3465  0.0495
 1072YOPC   C2B15354   7.184  10.919   7.434 -0.1004 -0.0792  0.0462
 1072YOPC   D3B15355   7.583  10.896   7.582 -0.0608 -0.0289  0.0905
 1072YOPC   C4B15356   7.887  10.552   7.653 -0.1163  0.1590 -0.0893
 1073YOPC   NC315357   1.361  16.733   6.107  0.0973  0.1630  0.0526
 1073YOPC   PO415358   1.004  16.754   6.290 -0.3063  0.1305  0.1517
 1073YOPC   GL115359   1.030  16.675   6.690 -0.0588 -0.0646 -0.0415
 1073YOPC   GL215360   1.150  16.374   6.701 -0.0394 -0.1054  0.1483
 1073YOPC   C1A15361   1.302  16.847   7.032  0.2455  0.0778  0.1282
 1073YOPC   D2A15362   1.489  17.067   7.235  0.0803 -0.1986 -0.1510
 1073YOPC   C3A15363   1.470  17.029   7.613 -0.0562 -0.1068  0.0847
 1073YOPC   C4A15364   1.625  17.144   7.887 -0.2692  0.2076  0.0716
 1073YOPC   C1B15365   0.960  16.439   7.171  0.0392 -0.0072 -0.1260
 1073YOPC   C2B15366   0.741  16.520   7.530  0.0304  0.1865  0.2211
 1073YOPC   D3B15367   0.796  16.649   7.983  0.3087 -0.4641 -0.0190
 1073YOPC   C4B15368   0.631  16.737   8.368 -0.1794 -0.2423 -0.0881
 1074YOPC   NC315369  10.397  17.471   5.886  0.2185  0.1514 -0.2307
 1074YOPC   PO415370  10.389  17.483   6.363  0.0902 -0.2964 -0.1356
 1074YOPC   GL115371  10.183  17.506   6.765 -0.0420 -0.3012  0.0660
 1074YOPC   GL215372  10.072  17.221   6.893  0.0233 -0.1568 -0.0254
 1074YOPC   C1A15373  10.028  17.899   7.018 -0.0263  0.0924 -0.1155
 1074YOPC   D2A15374   9.846  17.967   7.551  0.1474  0.0974  0.2371
 1074YOPC   C3A15375  10.059  17.901   7.925  0.0383  0.0543 -0.1293
 1074YOPC   C4A15376   9.941  18.041   8.308  0.2422 -0.0352 -0.4693
 1074YOPC   C1B15377  10.077  17.502   7.313 -0.0461 -0.0755 -0.0851
 1074YOPC   C2B15378   9.903  17.445   7.714  0.1823 -0.1687  0.0720
 1074YOPC   D3B15379   9.707  17.060   7.871  0.0615  0.0504 -0.3485
 1074YOPC   C4B15380   9.637  16.796   8.251 -0.2866 -0.1591  0.2722
 1075YOPC   NC315381  10.982   3.767   5.600 -0.0310  0.0849  0.0521
 1075YOPC   PO415382  11.306   3.708   5.906  0.0466  0.0065  0.0335
 1075YOPC   GL115383  11.342   3.705   6.254 -0.0798 -0.0557  0.1305
 1075YOPC   GL215384  11.262   3.389   6.332  0.2805  0.2463 -0.1470
 1075YOPC   C1A15385  11.393   4.077   6.460 -0.1433 -0.0226 -0.2014
 1075YOPC   D2A15386  11.267   4.206   6.910 -0.1038 -0.0281  0.0954
 1075YOPC   C3A15387  11.238   4.407   7.409  0.1541  0.1017 -0.1648
 1075YOPC   C4A15388  11.249   4.463   7.861  0.1649  0.0821 -0.1042
 1075YOPC   C1B15389  11.131   3.553   6.620  0.0724  0.1205 -0.1378
 1075YOPC   C2B15390  11.044   3.295   6.976 -0.1195  0.0155  0.2049
 1075YOPC   D3B15391  10.995   3.269   7.531 -0.0549 -0.0481  0.2269
 1075YOPC   C4B15392  11.269   3.290   7.878  0.3159  0.1471  0.2024
 1076YOPC   NC315393   4.705  16.630   6.386 -0.1682 -0.1170  0.2197
 1076YOPC   PO415394   4.839  17.115   6.285 -0.3084  0.0535  0.0455
 1076YOPC   GL115395   5.044  17.320   6.671  0.1818  0.0132  0.1641
 1076YOPC   GL215396   5.002  17.603   6.699  0.0124  0.2721 -0.0859
 1076YOPC   C1A15397   5.022  17.154   7.133 -0.1950 -0.1451 -0.0672
 1076YOPC   D2A15398   5.054  16.912   7.498 -0.0346  0.1577  0.0495
 1076YOPC   C3A15399   4.917  16.896   7.967  0.1717 -0.3400 -0.2680
 1076YOPC   C4A15400   4.760  17.213   8.315  0.0089  0.2528 -0.1111
 1076YOPC   C1B15401   4.940  17.664   7.205  0.0977  0.0393  0.0553
 1076YOPC   C2B15402   4.668  17.709   7.526 -0.0544  0.3400  0.1390
 1076YOPC   D3B15403   4.712  17.960   7.821  0.2172  0.1240 -0.1659
 1076YOPC   C4B15404   4.345  18.040   8.164 -0.3474 -0.1173 -0.4379
 1077YOPC   NC315405  17.287  13.836   6.051 -0.3295  0.0486  0.1998
 1077YOPC   PO415406  16.973  13.631   6.203  0.0909 -0.0014  0.0288
 1077YOPC   GL115407  17.037  13.524   6.532  0.1190 -0.1805 -0.1886
 1077YOPC   GL215408  16.719  13.507   6.736 -0.1037  0.0812  0.4444
 1077YOPC   C1A15409  17.126  13.692   6.951 -0.3126  0.0519  0.1588
 1077YOPC   D2A15410  17.161  13.976   7.248  0.2119 -0.0165 -0.0037
 1077YOPC   C3A15411  16.996  13.967   7.642 -0.1731 -0.0253  0.1229
 1077YOPC   C4A15412  17.264  14.064   7.888  0.0963 -0.1034  0.1317
 1077YOPC   C1B15413  16.849  13.222   7.047  0.0629  0.0951 -0.1319
 1077YOPC   C2B15414  16.734  12.998   7.383 -0.0584  0.1211  0.1860
 1077YOPC   D3B15415  16.820  13.100   7.837  0.2535 -0.1552 -0.0202
 1077YOPC   C4B15416  16.720  13.391   8.142 -0.0067  0.1161  0.0135
 1078YOPC   NC315417  11.404  11.447   6.336 -0.0680 -0.0306 -0.1615
 1078YOPC   PO415418  11.107  11.155   6.527  0.1009 -0.2450 -0.1150
 1078YOPC   GL115419  11.121  10.892   6.916 -0.0682 -0.1861  0.0534
 1078YOPC   GL215420  11.387  11.067   6.995 -0.0450 -0.1003 -0.1133
 1078YOPC   C1A15421  11.047  10.859   7.406 -0.0617  0.2834 -0.3759
 1078YOPC   D2A15422  11.114  11.003   7.738 -0.2869 -0.0487 -0.0116
 1078YOPC   C3A15423  11.218  10.840   8.163  0.0339 -0.1735  0.0658
 1078YOPC   C4A15424  10.982  10.841   8.492 -0.1062  0.1526  0.0123
 1078YOPC   C1B15425  11.132  11.297   7.241  0.2219 -0.1429  0.5361
 1078YOPC   C2B15426  10.752  11.333   7.486 -0.0980 -0.1569  0.0182
 1078YOPC   D3B15427  10.640  11.540   7.951  0.1748  0.1571  0.1097
 1078YOPC   C4B15428  10.323  11.739   8.210  0.0072  0.0528  0.0942
 1079YOPC   NC315429   1.080  14.478   6.019  0.0526 -0.0777  0.0613
 1079YOPC   PO415430   1.375  14.181   6.052  0.0528 -0.3257  0.0533
 1079YOPC   GL115431   1.192  14.170   6.446 -0.1151  0.0540 -0.2254
 1079YOPC   GL215432   0.990  14.457   6.527 -0.0872  0.1817  0.1295
 1079YOPC   C1A15433   1.247  14.183   6.916 -0.0200  0.2628  0.1271
 1079YOPC   D2A15434   1.035  14.110   7.368  0.2103  0.0674 -0.1009
 1079YOPC   C3A15435   1.170  13.803   7.482 -0.0800  0.0680  0.3617
 1079YOPC   C4A15436   1.484  13.423   7.548 -0.2896  0.2048  0.1249
 1079YOPC   C1B15437   0.816  14.421   6.916 -0.0364  0.0078  0.3754
 1079YOPC   C2B15438   0.609  14.385   7.271  0.0917  0.0560 -0.1178
 1079YOPC   D3B15439   0.836  14.425   7.703  0.3462 -0.0692 -0.1093
 1079YOPC   C4B15440   1.119  14.176   7.968 -0.0768 -0.0436 -0.1157
 1080YOPC   NC315441   5.486  12.818   5.890 -0.2382  0.1403 -0.0768
 1080YOPC   PO415442   5.446  12.588   6.163  0.0903 -0.0354  0.0976
 1080YOPC   GL115443   5.385  12.559   6.585 -0.3852 -0.1345  0.0353
 1080YOPC   GL215444   5.453  12.306   6.706  0.1094 -0.0188  0.2225
 1080YOPC   C1A15445   5.165  12.600   7.003  0.1001 -0.0063  0.0443
 1080YOPC   D2A15446   5.134  12.460   7.454 -0.1379 -0.0064  0.0219
 1080YOPC   C3A15447   5.153  12.571   7.906  0.0801 -0.0394  0.2003
 1080YOPC   C4A15448   4.725  12.606   8.164  0.0327 -0.1976 -0.0662
 1080YOPC   C1B15449   5.528  12.292   7.058 -0.0704  0.0644 -0.0549
 1080YOPC   C2B15450   5.486  12.116   7.548 -0.0503  0.0213  0.0217
 1080YOPC   D3B15451   5.708  12.371   7.849 -0.0300  0.0811  0.2078
 1080YOPC   C4B15452   5.685  12.555   8.243 -0.1090 -0.0268 -0.0225
 1081YOPC   NC315453   9.923  11.106   6.080 -0.1772  0.0952 -0.0591
 1081YOPC   PO415454   9.821  11.463   6.291  0.3017  0.2128  0.0630
 1081YOPC   GL115455   9.852  11.259   6.593  0.0628  0.1019  0.0585
 1081YOPC   GL215456  10.208  11.220   6.789  0.0215  0.3280  0.2312
 1081YOPC   C1A15457   9.765  10.971   7.018  0.1158  0.1655 -0.0235
 1081YOPC   D2A15458   9.542  10.943   7.420 -0.1634 -0.0267 -0.1501
 1081YOPC   C3A15459   9.638  11.110   7.790 -0.1552  0.2188 -0.1405
 1081YOPC   C4A15460   9.735  11.501   7.933  0.1818 -0.0457 -0.0988
 1081YOPC   C1B15461  10.194  10.825   6.860 -0.0787 -0.1783  0.2787
 1081YOPC   C2B15462  10.146  10.715   7.274 -0.1162  0.0944 -0.0687
 1081YOPC   D3B15463  10.038  10.804   7.662  0.2818 -0.0602  0.0558
 1081YOPC   C4B15464  10.085  10.759   8.011  0.2219  0.1062 -0.3024
 1082YOPC   NC315465  16.574  13.727   5.896  0.0328 -0.0727 -0.1218
 1082YOPC   PO415466  16.448  13.486   6.297 -0.0718 -0.4395  0.0630
 1082YOPC   GL115467  16.601  13.856   6.500  0.1147 -0.2589 -0.0256
 1082YOPC   GL215468  16.386  13.862   6.734 -0.0091 -0.4402  0.1531
 1082YOPC   C1A15469  16.807  14.036   6.869 -0.2279  0.2201  0.4058
 1082YOPC   D2A15470  16.787  14.253   7.233 -0.0941 -0.0537  0.3415
 1082YOPC   C3A15471  16.459  14.202   7.452 -0.2785 -0.0818 -0.1272
 1082YOPC   C4A15472  16.279  14.370   7.797 -0.0955  0.1634 -0.1663
 1082YOPC   C1B15473  16.361  14.275   6.978 -0.0148 -0.2483  0.1700
 1082YOPC   C2B15474  16.255  14.618   7.316  0.2099  0.3257  0.2383
 1082YOPC   D3B15475  15.897  14.695   7.738  0.1086 -0.1331 -0.0630
 1082YOPC   C4B15476  15.559  14.608   8.121  0.0390 -0.1240  0.0067
 1083YOPC   NC315477  13.926   5.284   5.780 -0.0744  0.0638 -0.0299
 1083YOPC   PO415478  13.912   4.777   5.727  0.1602 -0.1532  0.0156
 1083YOPC   GL115479  13.686   5.018   6.116  0.0909  0.1701  0.1009
 1083YOPC   GL215480  13.347   4.924   6.145 -0.0260 -0.0127  0.0241
 1083YOPC   C1A15481  13.502   5.044   6.631  0.1836  0.1681  0.0031
 1083YOPC   D2A15482  13.503   5.124   7.080 -0.4691  0.0266  0.2348
 1083YOPC   C3A15483  13.841   5.429   7.184  0.1641  0.0690  0.1943
 1083YOPC   C4A15484  14.070   5.730   7.377  0.2968 -0.0753  0.1811
 1083YOPC   C1B15485  13.018   4.886   6.437 -0.6464  0.0944  0.2210
 1083YOPC   C2B15486  12.924   4.948   6.845 -0.0025  0.1694  0.2800
 1083YOPC   D3B15487  13.020   4.895   7.209  0.1329 -0.0240 -0.0311
 1083YOPC   C4B15488  13.275   4.975   7.540  0.1943 -0.1936 -0.1631
 1084YOPC   NC315489  11.968   4.014   5.366 -0.0637  0.0386 -0.0536
 1084YOPC   PO415490  12.119   4.293   5.755  0.1914 -0.0215 -0.0090
 1084YOPC   GL115491  12.076   4.371   6.168 -0.0487  0.1572  0.1280
 1084YOPC   GL215492  11.836   4.147   6.345  0.3927 -0.0587  0.0620
 1084YOPC   C1A15493  12.264   4.225   6.600 -0.0493  0.1433  0.1475
 1084YOPC   D2A15494  12.507   4.072   6.978  0.0495 -0.2828 -0.1670
 1084YOPC   C3A15495  12.373   3.821   7.228 -0.3949  0.3265  0.0318
 1084YOPC   C4A15496  12.492   3.849   7.631  0.0578  0.0479 -0.1245
 1084YOPC   C1B15497  11.733   4.093   6.851 -0.1751 -0.3394  0.0397
 1084YOPC   C2B15498  11.613   4.130   7.261  0.1849  0.3324 -0.1681
 1084YOPC   D3B15499  11.736   4.391   7.491 -0.0508  0.0373 -0.3000
 1084YOPC   C4B15500  11.518   4.753   7.558 -0.1623 -0.2323 -0.1306
 1085YOPC   NC315501  14.513  16.619   6.362  0.0092  0.0490 -0.2770
 1085YOPC   PO415502  14.381  16.173   6.367  0.1396  0.2868 -0.1169
 1085YOPC   GL115503  14.441  16.022   6.735  0.0467 -0.0659  0.2415
 1085YOPC   GL215504  14.149  16.118   6.846 -0.0621  0.0725 -0.1446
 1085YOPC   C1A15505  14.568  15.680   7.038  0.3203  0.0666  0.0549
 1085YOPC   D2A15506  14.580  15.494   7.413  0.2275  0.1651  0.0639
 1085YOPC   C3A15507  14.692  15.684   7.791 -0.1343 -0.0424  0.0920
 1085YOPC   C4A15508  14.709  16.125   7.960  0.1143  0.4008  0.0832
 1085YOPC   C1B15509  14.102  15.935   7.219  0.0408  0.0581 -0.1226
 1085YOPC   C2B15510  14.339  15.994   7.611 -0.0767 -0.2175  0.1261
 1085YOPC   D3B15511  14.171  16.094   8.090  0.0772 -0.3984 -0.0144
 1085YOPC   C4B15512  14.069  15.979   8.444 -0.3831 -0.0954 -0.1215
 1086YOPC   NC315513   0.239   0.313   5.902  0.4516  0.1161 -0.0767
 1086YOPC   PO415514  -0.101   0.332   6.178 -0.1682 -0.1795 -0.0202
 1086YOPC   GL115515  -0.002   0.217   6.542  0.2045 -0.3353  0.1182
 1086YOPC   GL215516  -0.026  -0.092   6.719 -0.0828  0.4365  0.0480
 1086YOPC   C1A15517   0.107   0.318   7.003 -0.3277  0.4841  0.0083
 1086YOPC   D2A15518   0.001   0.147   7.430 -0.1055 -0.0391 -0.1607
 1086YOPC   C3A15519  -0.051   0.457   7.891 -0.0596  0.2069  0.1145
 1086YOPC   C4A15520  -0.233   0.619   8.287  0.0103 -0.1554  0.0939
 1086YOPC   C1B15521   0.005  -0.215   7.091  0.3442  0.2003 -0.0091
 1086YOPC   C2B15522   0.218  -0.267   7.461 -0.0301  0.0630 -0.2542
 1086YOPC   D3B15523   0.181  -0.465   7.896 -0.0449  0.1562 -0.0510
 1086YOPC   C4B15524   0.289  -0.690   8.329  0.2692  0.1032 -0.0409
 1087YOPC   NC315525  10.310  12.970   6.254 -0.1328 -0.2102  0.0034
 1087YOPC   PO415526  10.749  13.165   6.152  0.1852  0.0964 -0.2533
 1087YOPC   GL115527  10.801  13.254   6.580  0.2266 -0.2211 -0.1770
 1087YOPC   GL215528  10.495  13.253   6.763 -0.0423  0.1798  0.0930
 1087YOPC   C1A15529  11.140  13.150   6.887  0.1821 -0.3685 -0.0419
 1087YOPC   D2A15530  11.137  13.071   7.299 -0.2241 -0.1888 -0.1097
 1087YOPC   C3A15531  11.275  13.292   7.558 -0.1049  0.1609  0.2562
 1087YOPC   C4A15532  11.166  13.481   7.981  0.2453 -0.0666  0.0431
 1087YOPC   C1B15533  10.715  13.302   7.098  0.1971  0.2133 -0.3644
 1087YOPC   C2B15534  10.711  13.307   7.563 -0.1398 -0.1601  0.0361
 1087YOPC   D3B15535  10.771  13.047   8.007 -0.1078  0.3669  0.0964
 1087YOPC   C4B15536  10.980  12.673   8.186 -0.1663  0.0976 -0.1205
 1088YOPC   NC315537   1.964   0.129   5.428 -0.1073 -0.2905 -0.3559
 1088YOPC   PO415538   2.362   0.116   5.623  0.0897  0.1096  0.2434
 1088YOPC   GL115539   2.331   0.007   6.079  0.3756  0.0704  0.0295
 1088YOPC   GL215540   2.209   0.269   6.276  0.1116  0.2924  0.0450
 1088YOPC   C1A15541   2.651  -0.096   6.395 -0.3167 -0.3226  0.3439
 1088YOPC   D2A15542   3.111  -0.121   6.524 -0.1418  0.0486 -0.1914
 1088YOPC   C3A15543   3.377   0.064   6.728 -0.2873 -0.0257  0.0346
 1088YOPC   C4A15544   3.378   0.049   7.213  0.1338 -0.1557  0.1296
 1088YOPC   C1B15545   2.283   0.226   6.686 -0.0660  0.1167  0.3786
 1088YOPC   C2B15546   2.433   0.259   7.104 -0.0250 -0.1645 -0.0280
 1088YOPC   D3B15547   2.912   0.177   7.116  0.1648 -0.0871 -0.2135
 1088YOPC   C4B15548   3.126   0.449   7.460  0.0664 -0.0688  0.1770
 1089YOPC   NC315549  10.162   1.114   6.187 -0.4483 -0.0074 -0.2052
 1089YOPC   PO415550   9.976   1.451   6.073 -0.1585  0.2410  0.2358
 1089YOPC   GL115551  10.091   1.576   6.460 -0.2967 -0.0516 -0.1280
 1089YOPC   GL215552   9.865   1.462   6.678  0.0380  0.1248 -0.1507
 1089YOPC   C1A15553  10.081   1.876   6.878  0.1720  0.0579  0.0201
 1089YOPC   D2A15554  10.010   2.318   6.981 -0.2039  0.0121  0.3350
 1089YOPC   C3A15555  10.242   2.502   7.315 -0.0696  0.0554  0.1308
 1089YOPC   C4A15556  10.363   2.446   7.771  0.2258 -0.0479 -0.1240
 1089YOPC   C1B15557  10.062   1.490   7.159 -0.0364 -0.1095  0.2148
 1089YOPC   C2B15558   9.980   1.447   7.591 -0.1605  0.0121  0.1617
 1089YOPC   D3B15559   9.753   1.468   7.985  0.0223 -0.2512 -0.1645
 1089YOPC   C4B15560   9.629   1.202   8.256 -0.1669  0.1393  0.1454
 1090YOPC   NC315561   7.318   9.456   5.969 -0.0916 -0.1868 -0.0337
 1090YOPC   PO415562   6.840   9.374   5.981  0.1421 -0.0105  0.0132
 1090YOPC   GL115563   6.951   9.571   6.291  0.0130 -0.0388 -0.1997
 1090YOPC   GL215564   7.263   9.579   6.464  0.4416 -0.1069 -0.1993
 1090YOPC   C1A15565   6.758   9.797   6.723  0.0246 -0.1059  0.2633
 1090YOPC   D2A15566   6.947  10.059   6.909 -0.0142 -0.1659 -0.0763
 1090YOPC   C3A15567   7.035   9.977   7.298 -0.1692  0.1123 -0.1006
 1090YOPC   C4A15568   7.170   9.906   7.729 -0.1371  0.0687 -0.1335
 1090YOPC   C1B15569   7.183   9.552   6.933  0.0254  0.1585 -0.1072
 1090YOPC   C2B15570   7.242   9.509   7.430  0.2402 -0.0656 -0.2418
 1090YOPC   D3B15571   6.920   9.472   7.649 -0.0349 -0.3046 -0.1661
 1090YOPC   C4B15572   6.617   9.148   7.658  0.1264  0.0049 -0.1936
 1091YOPC   NC315573  17.724   3.262   6.169  0.2086  0.2051 -0.1065
 1091YOPC   PO415574  18.161   3.174   6.345  0.0359  0.0757  0.1922
 1091YOPC   GL115575  18.315   3.113   6.578 -0.1268  0.0799 -0.2196
 1091YOPC   GL215576  18.655   3.217   6.677 -0.1921 -0.0103 -0.0064
 1091YOPC   C1A15577  18.302   3.171   7.031 -0.0442  0.0952 -0.0281
 1091YOPC   D2A15578  18.305   3.048   7.478 -0.3333  0.1764  0.0596
 1091YOPC   C3A15579  18.619   3.093   7.852 -0.2926 -0.0047  0.0822
 1091YOPC   C4A15580  18.922   2.903   8.010  0.0046  0.2774 -0.0617
 1091YOPC   C1B15581  18.943   3.292   7.007 -0.1117  0.0620  0.1340
 1091YOPC   C2B15582  19.010   3.167   7.512  0.0830  0.0527 -0.1415
 1091YOPC   D3B15583  19.248   3.224   7.932 -0.0706 -0.1032  0.0912
 1091YOPC   C4B15584  19.619   3.195   8.154 -0.1575  0.0501 -0.0027
 1092YOPC   NC315585   8.693   4.113   5.957  0.1593  0.0804 -0.0475
 1092YOPC   PO415586   8.903   3.710   6.119 -0.0123  0.0108  0.0838
 1092YOPC   GL115587   9.145   3.901   6.448 -0.1567 -0.1691  0.3759
 1092YOPC   GL215588   9.483   3.958   6.346 -0.2687  0.0218  0.2728
 1092YOPC   C1A15589   9.167   3.945   6.974 -0.2171  0.1925 -0.4183
 1092YOPC   D2A15590   9.472   3.982   7.302  0.1083 -0.0045 -0.1559
 1092YOPC   C3A15591   9.577   3.626   7.569  0.2566 -0.0136  0.3680
 1092YOPC   C4A15592   9.393   3.526   7.784 -0.0929  0.2560  0.1446
 1092YOPC   C1B15593   9.550   3.761   6.757 -0.0529 -0.2624 -0.2548
 1092YOPC   C2B15594   9.674   3.493   6.986  0.0281 -0.2022  0.1250
 1092YOPC   D3B15595  10.077   3.547   7.248  0.0435 -0.0908  0.1650
 1092YOPC   C4B15596  10.055   3.480   7.656 -0.1953  0.1035  0.3950
 1093YOPC   NC315597  10.204   5.283   5.868 -0.0043 -0.1770 -0.1136
 1093YOPC   PO415598   9.885   4.983   5.786  0.1417 -0.1146  0.1227
 1093YOPC   GL115599   9.977   4.906   6.153 -0.2473 -0.2637 -0.1092
 1093YOPC   GL215600   9.604   5.097   6.259 -0.0268 -0.2740 -0.0770
 1093YOPC   C1A15601  10.033   5.295   6.487 -0.2188  0.3492 -0.0144
 1093YOPC   D2A15602   9.872   5.563   6.937 -0.1584  0.2192 -0.3229
 1093YOPC   C3A15603   9.812   5.256   7.215 -0.0907  0.1974 -0.1926
 1093YOPC   C4A15604   9.684   5.380   7.621  0.0545  0.0963  0.1792
 1093YOPC   C1B15605   9.781   4.837   6.596  0.4586 -0.1754 -0.0469
 1093YOPC   C2B15606   9.809   4.793   7.043 -0.0923 -0.1196 -0.2676
 1093YOPC   D3B15607   9.978   4.823   7.458  0.6283 -0.0791 -0.2817
 1093YOPC   C4B15608  10.404   4.635   7.623 -0.1363  0.1334 -0.2373
 1094YOPC   NC315609   4.597  11.668   6.204 -0.0158  0.0949 -0.0454
 1094YOPC   PO415610   4.891  11.464   5.972 -0.0467  0.1595 -0.3111
 1094YOPC   GL115611   4.869  11.385   6.537 -0.2116  0.3114  0.4119
 1094YOPC   GL215612   4.586  11.520   6.693  0.0680 -0.2990  0.0398
 1094YOPC   C1A15613   4.988  11.557   6.974  0.0734  0.0321  0.2076
 1094YOPC   D2A15614   4.977  11.573   7.416 -0.1796 -0.2446 -0.1670
 1094YOPC   C3A15615   5.020  11.923   7.665 -0.0392  0.0706  0.1452
 1094YOPC   C4A15616   4.807  12.127   7.912 -0.2451 -0.0109  0.2121
 1094YOPC   C1B15617   4.572  11.793   7.100 -0.2244 -0.1450 -0.1790
 1094YOPC   C2B15618   4.477  11.747   7.372 -0.0701 -0.1661  0.1388
 1094YOPC   D3B15619   4.109  11.599   7.610 -0.0543 -0.0212 -0.1267
 1094YOPC   C4B15620   3.772  11.503   7.881 -0.0693 -0.0778  0.3783
 1095YOPC   NC315621  17.054  15.290   6.282  0.0436  0.1810 -0.2477
 1095YOPC   PO415622  17.064  14.861   6.169 -0.0284 -0.1174 -0.1467
 1095YOPC   GL115623  17.146  14.835   6.691  0.0574  0.1336 -0.0181
 1095YOPC   GL215624  17.022  15.126   6.775 -0.0628  0.0088  0.1190
 1095YOPC   C1A15625  17.187  14.644   7.147  0.0051 -0.1205  0.3635
 1095YOPC   D2A15626  17.263  14.431   7.544  0.1308  0.0966  0.0089
 1095YOPC   C3A15627  17.284  14.545   7.880  0.1449 -0.0633 -0.3110
 1095YOPC   C4A15628  16.940  14.452   8.202  0.0485 -0.0761  0.2310
 1095YOPC   C1B15629  16.994  15.042   7.269  0.3290 -0.2259  0.2046
 1095YOPC   C2B15630  17.213  15.002   7.686 -0.1404  0.1290  0.1395
 1095YOPC   D3B15631  17.354  15.184   8.007 -0.1687 -0.2023 -0.0796
 1095YOPC   C4B15632  17.298  15.396   8.323 -0.0752  0.2646 -0.0149
 1096YOPC   NC315633   0.983   5.663   6.032 -0.2919 -0.1860  0.0368
 1096YOPC   PO415634   0.868   5.360   6.344  0.0392 -0.3389 -0.1576
 1096YOPC   GL115635   0.963   5.297   6.680 -0.3383 -0.0937  0.1551
 1096YOPC   GL215636   0.905   5.413   6.954  0.1412 -0.2148  0.3999
 1096YOPC   C1A15637   1.248   5.053   6.956  0.3276  0.1773 -0.1033
 1096YOPC   D2A15638   1.458   4.824   7.258 -0.0832 -0.4434 -0.1262
 1096YOPC   C3A15639   1.319   4.766   7.638  0.0201  0.2549  0.1410
 1096YOPC   C4A15640   1.189   4.749   8.099 -0.2012  0.1547  0.0040
 1096YOPC   C1B15641   0.545   5.252   7.235 -0.2158 -0.2279 -0.2347
 1096YOPC   C2B15642   0.316   5.288   7.581 -0.0124 -0.0795 -0.0868
 1096YOPC   D3B15643   0.208   5.403   8.036  0.2491  0.1968  0.0528
 1096YOPC   C4B15644   0.039   5.693   8.355  0.1379  0.1999 -0.2470
 1097YOPC   NC315645  11.928  15.917   6.141 -0.1030  0.0555  0.0302
 1097YOPC   PO415646  11.547  15.774   6.352  0.0663  0.0516 -0.0857
 1097YOPC   GL115647  11.541  15.877   6.709  0.0642 -0.0134 -0.2453
 1097YOPC   GL215648  11.853  16.103   6.713  0.1437  0.2462  0.2398
 1097YOPC   C1A15649  11.384  16.158   6.992 -0.2887 -0.1318  0.1768
 1097YOPC   D2A15650  11.267  16.416   7.142 -0.0225 -0.0476  0.0043
 1097YOPC   C3A15651  11.400  16.502   7.626 -0.0257 -0.0541 -0.0433
 1097YOPC   C4A15652  11.455  16.267   8.008  0.0427 -0.1689 -0.0733
 1097YOPC   C1B15653  11.828  16.232   7.201 -0.0715 -0.0013 -0.0761
 1097YOPC   C2B15654  11.914  16.224   7.629 -0.0053 -0.2231  0.0350
 1097YOPC   D3B15655  11.948  16.036   7.966 -0.2313  0.0829 -0.3922
 1097YOPC   C4B15656  11.885  16.247   8.325 -0.0691  0.0924  0.0614
 1098YOPC   NC315657   4.883   6.152   5.675 -0.0001  0.1004  0.0003
 1098YOPC   PO415658   4.528   6.434   5.961  0.1056 -0.0366 -0.2026
 1098YOPC   GL115659   4.600   6.165   6.452  0.0176  0.0760 -0.4900
 1098YOPC   GL215660   4.434   5.790   6.481 -0.0444  0.0199  0.2770
 1098YOPC   C1A15661   4.533   5.976   6.921 -0.1539 -0.0902  0.1372
 1098YOPC   D2A15662   4.524   5.669   7.282  0.0738  0.0512  0.2049
 1098YOPC   C3A15663   4.388   5.487   7.764 -0.0930  0.2418  0.0560
 1098YOPC   C4A15664   4.258   5.146   8.054 -0.1946 -0.1127  0.4069
 1098YOPC   C1B15665   4.188   5.595   6.762  0.0043  0.1512  0.0173
 1098YOPC   C2B15666   4.035   5.390   7.138  0.0721  0.3394  0.1930
 1098YOPC   D3B15667   3.680   5.253   7.182 -0.1020 -0.2458  0.1786
 1098YOPC   C4B15668   3.633   5.118   7.526  0.0413 -0.2450 -0.0237
 1099YOPC   NC315669   3.413  13.777   6.130 -0.0172 -0.3610 -0.2492
 1099YOPC   PO415670   3.005  13.569   6.033 -0.0664  0.1298  0.1254
 1099YOPC   GL115671   3.190  13.353   6.454 -0.1474 -0.0449  0.0819
 1099YOPC   GL215672   3.078  13.123   6.403  0.1373  0.1443  0.3241
 1099YOPC   C1A15673   3.025  13.464   6.815 -0.1078 -0.2549  0.0496
 1099YOPC   D2A15674   2.918  13.434   7.237  0.1217 -0.2690 -0.0844
 1099YOPC   C3A15675   3.109  13.239   7.616  0.1692 -0.3275  0.0158
 1099YOPC   C4A15676   3.377  13.182   7.898  0.2168 -0.0277 -0.0763
 1099YOPC   C1B15677   2.938  12.957   6.873 -0.1598 -0.4847 -0.0448
 1099YOPC   C2B15678   2.964  12.811   7.283  0.0563  0.2707  0.0214
 1099YOPC   D3B15679   2.914  12.652   7.685 -0.0611 -0.2497 -0.1646
 1099YOPC   C4B15680   2.594  12.690   7.999 -0.1367 -0.3208  0.1385
 1100YOPC   NC315681   4.704   7.343   6.205  0.2687 -0.3608 -0.0020
 1100YOPC   PO415682   4.330   7.276   6.499  0.0758 -0.0127  0.0714
 1100YOPC   GL115683   4.397   7.292   6.918  0.1458  0.3725  0.0877
 1100YOPC   GL215684   4.418   7.585   7.084 -0.0487  0.2657  0.0975
 1100YOPC   C1A15685   4.359   7.201   7.426  0.1409 -0.1747 -0.2274
 1100YOPC   D2A15686   3.936   7.258   7.696 -0.0014  0.4463 -0.1898
 1100YOPC   C3A15687   3.604   7.135   7.558 -0.0177 -0.0310 -0.0208
 1100YOPC   C4A15688   3.224   6.973   7.694  0.0321 -0.3582 -0.1018
 1100YOPC   C1B15689   4.266   7.654   7.384 -0.0172  0.1643  0.0963
 1100YOPC   C2B15690   4.407   7.580   7.823  0.2608  0.1850 -0.0911
 1100YOPC   D3B15691   4.353   7.106   7.953 -0.0802 -0.2613  0.0466
 1100YOPC   C4B15692   4.477   6.709   7.959  0.0301 -0.1894 -0.0204
 1101YOPC   NC315693  14.822   8.665   6.214 -0.0575  0.0164 -0.0075
 1101YOPC   PO415694  15.222   8.776   6.271 -0.0653 -0.0965  0.4632
 1101YOPC   GL115695  15.300   8.616   6.705 -0.2648  0.0112  0.2718
 1101YOPC   GL215696  15.441   8.912   6.772  0.1994  0.0857 -0.1271
 1101YOPC   C1A15697  15.228   8.523   7.130 -0.0182  0.1562  0.2532
 1101YOPC   D2A15698  15.222   8.550   7.567 -0.0683  0.1560 -0.0569
 1101YOPC   C3A15699  14.952   8.355   7.692 -0.4364 -0.2408 -0.1923
 1101YOPC   C4A15700  14.497   8.370   7.611  0.2626 -0.4238 -0.1611
 1101YOPC   C1B15701  15.601   9.135   7.143 -0.1576  0.1068 -0.1911
 1101YOPC   C2B15702  15.946   9.109   7.495  0.0452  0.0297  0.1740
 1101YOPC   D3B15703  16.034   9.125   7.874  0.1369 -0.2425  0.2389
 1101YOPC   C4B15704  16.419   8.970   8.120 -0.2357 -0.0170  0.0519
 1102YOPC   NC315705  17.813  17.708   6.221 -0.1292  0.1413 -0.0794
 1102YOPC   PO415706  17.938  17.283   6.185 -0.0850 -0.2187  0.2568
 1102YOPC   GL115707  17.946  17.251   6.607  0.0940  0.1500  0.1118
 1102YOPC   GL215708  18.150  17.146   6.725 -0.0180 -0.0320 -0.2637
 1102YOPC   C1A15709  17.692  17.192   6.997 -0.2583  0.0903  0.2611
 1102YOPC   D2A15710  17.632  17.205   7.460  0.1510  0.1572  0.0530
 1102YOPC   C3A15711  17.574  17.068   7.849  0.1052 -0.0023  0.0083
 1102YOPC   C4A15712  17.493  17.141   8.308 -0.0099  0.1944 -0.1859
 1102YOPC   C1B15713  18.292  17.283   7.089 -0.0483  0.0049  0.0943
 1102YOPC   C2B15714  18.531  17.426   7.498 -0.1509  0.2083  0.1491
 1102YOPC   D3B15715  18.400  17.715   7.820 -0.2155  0.0422 -0.0985
 1102YOPC   C4B15716  18.296  18.095   7.725  0.4518  0.1282  0.0908
 1103YOPC   NC315717   9.199   9.823   6.196  0.3289 -0.1024  0.1443
 1103YOPC   PO415718   9.217   9.384   6.183  0.1675 -0.1559 -0.4141
 1103YOPC   GL115719   8.966   9.045   6.326 -0.1004 -0.0654 -0.4237
 1103YOPC   GL215720   9.102   9.060   6.630  0.0576 -0.1633  0.0721
 1103YOPC   C1A15721   8.971   8.601   6.445  0.1555 -0.0463  0.1849
 1103YOPC   D2A15722   9.156   8.460   6.841 -0.1136  0.0102 -0.1830
 1103YOPC   C3A15723   9.438   8.702   7.144  0.0859  0.1407  0.1014
 1103YOPC   C4A15724   9.788   8.994   7.319  0.5617 -0.2794 -0.1711
 1103YOPC   C1B15725   8.988   8.909   6.992  0.1592  0.0263  0.0376
 1103YOPC   C2B15726   8.880   8.652   7.320 -0.2817 -0.3796  0.1544
 1103YOPC   D3B15727   9.117   8.496   7.583  0.1204  0.3024  0.5213
 1103YOPC   C4B15728   9.359   8.180   7.719  0.0809 -0.1142  0.0432
 1104YOPC   NC315729   4.572   5.470   6.048  0.0493 -0.1131 -0.0411
 1104YOPC   PO415730   4.886   5.532   6.312  0.0700 -0.0373  0.0793
 1104YOPC   GL115731   4.899   5.654   6.678  0.0338 -0.0627  0.2576
 1104YOPC   GL215732   5.099   5.888   6.630 -0.3787 -0.1443 -0.0461
 1104YOPC   C1A15733   4.941   5.546   7.108 -0.0680 -0.1316  0.0786
 1104YOPC   D2A15734   4.877   5.477   7.604  0.0872  0.2381 -0.2415
 1104YOPC   C3A15735   4.837   5.762   7.905  0.1082  0.0026 -0.1213
 1104YOPC   C4A15736   4.729   5.760   8.399 -0.0544  0.2451  0.1037
 1104YOPC   C1B15737   5.133   5.997   7.005 -0.1492 -0.0670  0.0504
 1104YOPC   C2B15738   4.979   6.075   7.428  0.3073 -0.0396  0.3931
 1104YOPC   D3B15739   4.913   6.286   7.749 -0.1411 -0.0582 -0.1826
 1104YOPC   C4B15740   5.226   6.442   8.060  0.0056  0.3084  0.0282
 1105YOPC   NC315741   2.263  14.996   5.772 -0.1463 -0.0999  0.2915
 1105YOPC   PO415742   1.896  14.865   6.050 -0.1036  0.2711  0.0106
 1105YOPC   GL115743   1.872  14.735   6.475  0.1090 -0.0531  0.3604
 1105YOPC   GL215744   1.981  14.755   6.730 -0.0659  0.0284  0.1066
 1105YOPC   C1A15745   1.447  14.767   6.758 -0.0460 -0.1672  0.0303
 1105YOPC   D2A15746   1.186  14.671   7.156 -0.0149 -0.0215  0.1389
 1105YOPC   C3A15747   1.277  14.556   7.585  0.2013 -0.3051 -0.2364
 1105YOPC   C4A15748   1.151  14.850   7.928  0.1288  0.2367  0.2407
 1105YOPC   C1B15749   1.937  14.954   7.112 -0.2511  0.0571  0.3436
 1105YOPC   C2B15750   1.833  14.943   7.514 -0.0949 -0.2789 -0.0526
 1105YOPC   D3B15751   1.990  15.119   7.939 -0.0645 -0.0667  0.3566
 1105YOPC   C4B15752   1.862  15.437   8.125  0.1060 -0.4047 -0.0122
 1106YOPC   NC315753  12.768  13.677   5.521 -0.1716  0.1531  0.1481
 1106YOPC   PO415754  12.827  13.989   5.956  0.1048  0.1675 -0.0879
 1106YOPC   GL115755  12.909  14.091   6.427  0.2075 -0.2305 -0.0731
 1106YOPC   GL215756  12.917  14.414   6.482  0.0567 -0.1354  0.0442
 1106YOPC   C1A15757  13.011  14.161   6.863 -0.1978  0.1328  0.1797
 1106YOPC   D2A15758  12.907  14.399   7.265 -0.0390  0.3407 -0.1205
 1106YOPC   C3A15759  12.756  14.263   7.570 -0.1551  0.0665  0.0324
 1106YOPC   C4A15760  12.705  14.219   7.960  0.0874  0.0079  0.0588
 1106YOPC   C1B15761  13.051  14.661   6.840  0.1234 -0.0442 -0.1820
 1106YOPC   C2B15762  12.709  14.903   6.975 -0.0665 -0.2417  0.0968
 1106YOPC   D3B15763  12.596  14.738   7.410 -0.2839  0.1346 -0.0685
 1106YOPC   C4B15764  12.438  14.805   7.874  0.0441 -0.1529  0.1053
 1107YOPC   NC315765   2.397   0.529   5.868  0.0962 -0.2116  0.3259
 1107YOPC   PO415766   2.160   0.852   5.681  0.0768  0.4156  0.0647
 1107YOPC   GL115767   2.089   0.997   6.138 -0.1487  0.0748 -0.1759
 1107YOPC   GL215768   1.739   0.951   6.168  0.0234 -0.0990  0.0847
 1107YOPC   C1A15769   1.980   1.201   6.589  0.1032 -0.1114 -0.2518
 1107YOPC   D2A15770   2.314   1.550   6.837 -0.3213  0.1293 -0.1438
 1107YOPC   C3A15771   2.701   1.487   7.151  0.2227 -0.0012  0.0321
 1107YOPC   C4A15772   2.847   1.194   7.428  0.1297 -0.0413 -0.0344
 1107YOPC   C1B15773   1.816   0.656   6.424 -0.1155  0.2633 -0.0877
 1107YOPC   C2B15774   1.871   0.456   6.831 -0.0713 -0.5258  0.0703
 1107YOPC   D3B15775   2.015   0.509   7.265 -0.1169 -0.1390  0.1338
 1107YOPC   C4B15776   2.181   0.686   7.630  0.3712 -0.0574 -0.0848
 1108YOPC   NC315777  14.915   7.729   5.969 -0.0288 -0.2593 -0.1248
 1108YOPC   PO415778  14.834   7.377   5.669  0.0454 -0.0159  0.0411
 1108YOPC   GL115779  14.573   7.382   6.069 -0.0356 -0.3718 -0.1293
 1108YOPC   GL215780  14.680   7.076   6.205  0.1007 -0.1096  0.0962
 1108YOPC   C1A15781  14.414   7.391   6.428 -0.1228 -0.1674  0.2686
 1108YOPC   D2A15782  14.305   7.355   6.901  0.0128 -0.1178  0.0360
 1108YOPC   C3A15783  14.681   7.302   7.086 -0.1238  0.0039 -0.0226
 1108YOPC   C4A15784  14.919   7.543   7.248  0.0861 -0.3093  0.3455
 1108YOPC   C1B15785  14.657   6.895   6.673 -0.0006 -0.1354  0.3738
 1108YOPC   C2B15786  14.689   6.824   7.060 -0.0525 -0.0789 -0.0664
 1108YOPC   D3B15787  14.962   7.029   7.349 -0.0674 -0.2366 -0.4222
 1108YOPC   C4B15788  14.932   7.307   7.692 -0.1054 -0.0747  0.2061
 1109YOPC   NC315789   7.757   0.810   6.052 -0.0012  0.2451  0.3948
 1109YOPC   PO415790   7.940   1.227   6.073  0.3628  0.0474 -0.0075
 1109YOPC   GL115791   8.159   1.170   6.456 -0.0671 -0.0999 -0.1853
 1109YOPC   GL215792   8.067   0.918   6.512 -0.2269  0.2279  0.0529
 1109YOPC   C1A15793   8.402   1.092   6.881 -0.1762 -0.2795 -0.1057
 1109YOPC   D2A15794   8.598   0.992   7.189  0.1716 -0.0858  0.1738
 1109YOPC   C3A15795   8.548   1.044   7.571 -0.2930 -0.3449 -0.0545
 1109YOPC   C4A15796   8.331   0.885   7.987  0.0331 -0.1045  0.1942
 1109YOPC   C1B15797   8.376   0.605   6.684 -0.0740 -0.0376  0.2066
 1109YOPC   C2B15798   8.730   0.502   6.918 -0.0312  0.1426  0.0496
 1109YOPC   D3B15799   8.638   0.558   7.307  0.0895 -0.2061 -0.1200
 1109YOPC   C4B15800   8.801   0.655   7.700  0.2745  0.0259  0.2553
 1110YOPC   NC315801  14.411   9.949   5.844 -0.0285 -0.0800  0.1284
 1110YOPC   PO415802  14.621  10.421   5.873 -0.2860 -0.2770 -0.0574
 1110YOPC   GL115803  14.707  10.688   6.260 -0.1933 -0.0029  0.2479
 1110YOPC   GL215804  14.696  10.559   6.554 -0.3708 -0.0514 -0.5493
 1110YOPC   C1A15805  14.897  11.027   6.511  0.2557  0.0404 -0.0440
 1110YOPC   D2A15806  14.960  10.989   6.989  0.1250  0.1806 -0.1902
 1110YOPC   C3A15807  15.143  10.720   7.358 -0.1174 -0.0105  0.0405
 1110YOPC   C4A15808  15.190  10.872   7.805 -0.3054 -0.2298  0.1355
 1110YOPC   C1B15809  14.906  10.429   6.873 -0.1663 -0.1572 -0.1102
 1110YOPC   C2B15810  15.313  10.400   6.979 -0.0702  0.0413  0.0629
 1110YOPC   D3B15811  15.442  10.022   7.281  0.0041  0.0780  0.2729
 1110YOPC   C4B15812  15.381   9.939   7.706  0.2463 -0.0982 -0.1055
 1111YOPC   NC315813   2.978  13.327   5.625 -0.2370  0.0829  0.0391
 1111YOPC   PO415814   2.663  13.201   6.019 -0.1088  0.2025 -0.1051
 1111YOPC   GL115815   2.592  12.844   6.425  0.1318 -0.1885  0.1300
 1111YOPC   GL215816   2.581  13.128   6.554  0.2328 -0.0606  0.2832
 1111YOPC   C1A15817   2.585  12.602   6.827  0.0586 -0.1513 -0.3151
 1111YOPC   D2A15818   2.550  12.567   7.342  0.1506 -0.1480  0.0011
 1111YOPC   C3A15819   2.227  12.787   7.367 -0.0059  0.0587  0.1731
 1111YOPC   C4A15820   1.902  12.664   7.062  0.0058 -0.1734  0.0911
 1111YOPC   C1B15821   2.537  13.057   7.083 -0.0171 -0.2550  0.1051
 1111YOPC   C2B15822   2.628  13.084   7.519  0.1842  0.0644  0.0214
 1111YOPC   D3B15823   2.338  13.114   7.839  0.1831 -0.0718  0.0667
 1111YOPC   C4B15824   2.078  12.782   8.128  0.2388  0.1282  0.0476
 1112YOPC   NC315825   5.211  17.184   5.754  0.0269  0.0186  0.0147
 1112YOPC   PO415826   5.518  16.999   6.099 -0.2161  0.0151 -0.3693
 1112YOPC   GL115827   5.381  16.962   6.567  0.0325  0.0724  0.1542
 1112YOPC   GL215828   5.093  16.763   6.628  0.0671 -0.0748 -0.1294
 1112YOPC   C1A15829   5.516  17.095   6.963 -0.0887 -0.0298  0.0454
 1112YOPC   D2A15830   5.601  17.116   7.393  0.1495  0.0164 -0.0651
 1112YOPC   C3A15831   5.299  17.429   7.562 -0.0116 -0.3922  0.0764
 1112YOPC   C4A15832   4.913  17.395   7.778 -0.0212 -0.2196  0.0026
 1112YOPC   C1B15833   5.186  16.699   7.112 -0.1738  0.2070  0.1684
 1112YOPC   C2B15834   5.585  16.645   7.192  0.1558 -0.1810  0.2571
 1112YOPC   D3B15835   5.675  16.715   7.646 -0.0870  0.0012 -0.2087
 1112YOPC   C4B15836   5.858  16.697   7.924 -0.1530 -0.2489  0.2628
 1113YOPC   NC315837  17.577   5.730   6.133  0.3176  0.1866 -0.1117
 1113YOPC   PO415838  17.438   5.287   6.314 -0.0994 -0.0840  0.2177
 1113YOPC   GL115839  17.504   4.950   6.670 -0.1650 -0.5114  0.0605
 1113YOPC   GL215840  17.829   5.078   6.926 -0.3717  0.1422 -0.0674
 1113YOPC   C1A15841  17.295   5.036   7.088 -0.5009 -0.0231 -0.0776
 1113YOPC   D2A15842  17.556   4.997   7.380 -0.0123  0.2074 -0.0589
 1113YOPC   C3A15843  17.729   5.148   7.793 -0.0229  0.1546  0.0145
 1113YOPC   C4A15844  17.543   5.443   8.134  0.0326  0.3065  0.2399
 1113YOPC   C1B15845  17.916   5.444   7.205 -0.1819 -0.0200 -0.1876
 1113YOPC   C2B15846  17.832   5.614   7.642 -0.0805 -0.0935  0.0582
 1113YOPC   D3B15847  17.522   5.769   7.749 -0.4394 -0.1458  0.2821
 1113YOPC   C4B15848  17.139   5.771   7.931  0.2035 -0.2279  0.0362
 1114YOPC   NC315849  10.898   3.211   5.082 -0.1274  0.1403  0.0322
 1114YOPC   PO415850  10.676   3.356   5.498 -0.0779 -0.1680 -0.2394
 1114YOPC   GL115851  10.606   3.248   5.922  0.0448  0.1204 -0.0864
 1114YOPC   GL215852  10.825   3.107   6.285  0.0960 -0.3425  0.0602
 1114YOPC   C1A15853  10.417   3.462   6.371 -0.0039 -0.0278 -0.0968
 1114YOPC   D2A15854  10.630   3.546   6.664 -0.0634  0.1646  0.0129
 1114YOPC   C3A15855  10.604   3.450   7.064  0.0166  0.0609  0.2901
 1114YOPC   C4A15856  10.622   3.674   7.478  0.0316  0.0667  0.0177
 1114YOPC   C1B15857  10.661   3.045   6.667 -0.2262 -0.2452 -0.1634
 1114YOPC   C2B15858  10.491   2.798   6.843  0.5736  0.1440 -0.0015
 1114YOPC   D3B15859  10.558   2.989   7.201 -0.0956  0.2451 -0.1105
 1114YOPC   C4B15860  10.494   3.237   7.526  0.3258  0.0907  0.1453
 1115YOPC   NC315861   3.445   2.079   6.080  0.2949 -0.0001 -0.0894
 1115YOPC   PO415862   3.757   1.739   6.291 -0.0658  0.2115  0.2404
 1115YOPC   GL115863   3.857   1.697   6.723  0.1859  0.0599 -0.0822
 1115YOPC   GL215864   3.748   1.439   6.936 -0.0342 -0.0026 -0.0643
 1115YOPC   C1A15865   4.049   1.863   7.068  0.1028 -0.0973  0.1870
 1115YOPC   D2A15866   3.969   2.198   7.365  0.1738  0.0673 -0.0784
 1115YOPC   C3A15867   4.188   2.464   7.555  0.0064  0.0877  0.0022
 1115YOPC   C4A15868   4.006   2.389   7.955  0.1301 -0.1738 -0.0792
 1115YOPC   C1B15869   3.720   1.642   7.358  0.1580  0.2403 -0.2523
 1115YOPC   C2B15870   3.963   1.727   7.721 -0.0524  0.1107 -0.1395
 1115YOPC   D3B15871   4.288   2.005   7.842 -0.2448 -0.0534 -0.1174
 1115YOPC   C4B15872   4.521   2.402   7.922  0.1808 -0.0652  0.1015
 1116YOPC   NC315873   4.378   0.216   5.993 -0.0894  0.1438  0.1102
 1116YOPC   PO415874   4.444   0.595   6.037 -0.0103 -0.4355 -0.1788
 1116YOPC   GL115875   4.437   0.428   6.446 -0.1249  0.3058 -0.0730
 1116YOPC   GL215876   4.667   0.134   6.485  0.0854  0.3125  0.2286
 1116YOPC   C1A15877   4.070   0.394   6.676 -0.0571 -0.2414 -0.1261
 1116YOPC   D2A15878   3.653   0.524   6.666  0.0321  0.2922 -0.0009
 1116YOPC   C3A15879   3.263   0.557   6.877 -0.0702 -0.1616  0.0636
 1116YOPC   C4A15880   3.072   0.895   7.096  0.0339 -0.3994 -0.1326
 1116YOPC   C1B15881   4.545   0.013   6.949  0.1539 -0.2643 -0.0456
 1116YOPC   C2B15882   4.216   0.077   7.202 -0.0434  0.0254  0.0995
 1116YOPC   D3B15883   4.247  -0.022   7.643  0.1189 -0.2644 -0.1110
 1116YOPC   C4B15884   3.906  -0.043   8.035  0.1235 -0.1271  0.2336
 1117YOPC   NC315885   1.488  11.778   6.023 -0.1124  0.0489  0.2852
 1117YOPC   PO415886   1.250  11.521   6.304 -0.2799  0.1493  0.2590
 1117YOPC   GL115887   1.296  11.844   6.532 -0.0210  0.1235 -0.1434
 1117YOPC   GL215888   0.944  12.024   6.521  0.0016  0.0955 -0.0927
 1117YOPC   C1A15889   1.290  11.803   6.953 -0.3022  0.0343 -0.1136
 1117YOPC   D2A15890   1.225  11.984   7.307  0.0237 -0.2959  0.1054
 1117YOPC   C3A15891   1.194  12.326   7.642 -0.1854  0.1129  0.0746
 1117YOPC   C4A15892   0.881  12.463   7.934  0.3868 -0.1142 -0.4834
 1117YOPC   C1B15893   0.902  12.141   6.950  0.0330 -0.0373 -0.0811
 1117YOPC   C2B15894   0.702  12.358   7.279  0.0625  0.1017 -0.5205
 1117YOPC   D3B15895   0.807  12.707   7.471  0.0226  0.0958  0.1281
 1117YOPC   C4B15896   0.653  12.917   7.834  0.1718  0.2089 -0.1684
 1118YOPC   NC315897   7.016  16.146   5.975  0.0527 -0.1430  0.2512
 1118YOPC   PO415898   6.789  16.526   6.038 -0.1967 -0.0721 -0.1564
 1118YOPC   GL115899   6.801  16.562   6.518 -0.1083 -0.1191 -0.4449
 1118YOPC   GL215900   7.126  16.425   6.739 -0.1333 -0.0545 -0.2654
 1118YOPC   C1A15901   6.836  16.781   6.881  0.0998  0.1492  0.1143
 1118YOPC   D2A15902   6.928  16.788   7.360  0.0899 -0.0657 -0.1890
 1118YOPC   C3A15903   6.869  16.735   7.821 -0.0580 -0.1364  0.1911
 1118YOPC   C4A15904   7.097  16.642   8.123 -0.0213 -0.1087 -0.0210
 1118YOPC   C1B15905   7.165  16.445   7.094 -0.2795  0.0781 -0.0078
 1118YOPC   C2B15906   7.086  16.266   7.435  0.1691  0.3139  0.0980
 1118YOPC   D3B15907   7.299  16.537   7.676  0.0131  0.0894 -0.1723
 1118YOPC   C4B15908   7.245  16.984   7.835 -0.2325  0.0032  0.2002
 1119YOPC   NC315909  13.240   3.323   6.178 -0.1722  0.0810 -0.2216
 1119YOPC   PO415910  13.690   3.390   6.093  0.1955 -0.0699  0.2925
 1119YOPC   GL115911  13.812   3.522   6.539  0.0171 -0.0873  0.4712
 1119YOPC   GL215912  13.540   3.521   6.564  0.1405 -0.1947  0.2823
 1119YOPC   C1A15913  13.736   3.553   7.017 -0.1683  0.0042 -0.0202
 1119YOPC   D2A15914  13.365   3.498   7.262 -0.3174 -0.3190 -0.2983
 1119YOPC   C3A15915  13.389   3.599   7.697 -0.1029 -0.0770 -0.0137
 1119YOPC   C4A15916  13.414   3.681   8.154  0.1160 -0.2976 -0.0632
 1119YOPC   C1B15917  13.145   3.681   6.832  0.1668 -0.3585  0.0891
 1119YOPC   C2B15918  12.812   3.693   7.068 -0.1577  0.3164 -0.0382
 1119YOPC   D3B15919  12.958   3.248   7.099  0.0970  0.1371 -0.2969
 1119YOPC   C4B15920  12.825   2.869   7.275  0.0134 -0.0455 -0.2604
 1120YOPC   NC315921   9.102   0.062   6.070  0.2688 -0.0145  0.1995
 1120YOPC   PO415922   9.415  -0.210   6.210 -0.0391  0.0997 -0.0085
 1120YOPC   GL115923   9.295  -0.027   6.521 -0.2453  0.2189  0.2036
 1120YOPC   GL215924   9.613  -0.022   6.698 -0.0756  0.0458 -0.0731
 1120YOPC   C1A15925   9.175   0.219   6.837  0.0015  0.0679  0.1357
 1120YOPC   D2A15926   9.090   0.322   7.228  0.0436 -0.3691 -0.1792
 1120YOPC   C3A15927   9.323   0.193   7.568  0.1127  0.0830 -0.1176
 1120YOPC   C4A15928   9.506   0.015   7.985  0.2836 -0.0966 -0.0472
 1120YOPC   C1B15929   9.601  -0.059   7.162  0.1640  0.1839  0.2617
 1120YOPC   C2B15930   9.433  -0.306   7.473  0.1061  0.0221 -0.1097
 1120YOPC   D3B15931   9.393  -0.468   8.054  0.0803 -0.2821 -0.1237
 1120YOPC   C4B15932   9.379  -0.619   8.350  0.4481 -0.0646 -0.3069
 1121YOPC   NC315933   3.862  14.048   5.801 -0.4506  0.0808 -0.0812
 1121YOPC   PO415934   3.937  13.929   6.150  0.2026 -0.0149 -0.2319
 1121YOPC   GL115935   4.152  13.953   6.641 -0.0871  0.2176  0.1452
 1121YOPC   GL215936   4.059  13.643   6.772  0.0535 -0.0978  0.1498
 1121YOPC   C1A15937   4.352  13.968   7.020 -0.2064 -0.0354 -0.0286
 1121YOPC   D2A15938   4.673  14.273   7.256 -0.3616  0.1940 -0.0162
 1121YOPC   C3A15939   4.532  14.449   7.598  0.1834  0.0154 -0.2763
 1121YOPC   C4A15940   4.375  14.834   7.802 -0.0596  0.0612 -0.1847
 1121YOPC   C1B15941   3.887  13.341   7.059 -0.2396  0.0912 -0.2807
 1121YOPC   C2B15942   4.061  13.080   7.418 -0.1376  0.0534  0.0431
 1121YOPC   D3B15943   3.834  13.049   7.748  0.1041  0.0691  0.2005
 1121YOPC   C4B15944   3.792  13.345   8.128 -0.1966  0.2888 -0.2381
 1122YOPC   NC315945  14.412  12.199   6.157  0.1163  0.0170 -0.1645
 1122YOPC   PO415946  13.937  12.305   6.146 -0.1108  0.2037 -0.5783
 1122YOPC   GL115947  14.018  12.245   6.537 -0.0161  0.1897  0.2944
 1122YOPC   GL215948  14.289  12.102   6.612 -0.1011 -0.0268  0.0787
 1122YOPC   C1A15949  14.022  11.971   6.938 -0.0750  0.0845 -0.2562
 1122YOPC   D2A15950  14.193  11.999   7.318  0.0703  0.1540  0.2704
 1122YOPC   C3A15951  14.038  11.647   7.543  0.5797  0.1041 -0.1999
 1122YOPC   C4A15952  14.306  11.241   7.785  0.2438  0.0369 -0.0217
 1122YOPC   C1B15953  14.550  11.958   6.930  0.3980 -0.0218 -0.2275
 1122YOPC   C2B15954  14.795  12.037   7.225 -0.1231  0.1851 -0.0777
 1122YOPC   D3B15955  14.597  12.068   7.662 -0.0321  0.2923  0.1215
 1122YOPC   C4B15956  14.539  12.424   7.954 -0.1002  0.1343  0.2619
 1123YOPC   NC315957   3.352   7.615   5.908  0.0597  0.2935 -0.1754
 1123YOPC   PO415958   3.612   7.396   6.348  0.1404 -0.0804  0.1362
 1123YOPC   GL115959   3.868   7.329   6.824  0.1289 -0.3063  0.3155
 1123YOPC   GL215960   4.004   7.032   6.819  0.2429  0.1788 -0.0356
 1123YOPC   C1A15961   3.875   7.432   7.244  0.1044  0.4595  0.3236
 1123YOPC   D2A15962   3.594   7.669   7.538  0.1027 -0.2249 -0.0124
 1123YOPC   C3A15963   3.871   7.758   7.770  0.3228  0.3710 -0.1736
 1123YOPC   C4A15964   4.007   7.753   8.115 -0.0412 -0.1292 -0.0904
 1123YOPC   C1B15965   3.942   6.910   7.245  0.0961 -0.2129  0.0134
 1123YOPC   C2B15966   4.090   6.731   7.609 -0.1111  0.1742  0.0363
 1123YOPC   D3B15967   3.964   6.800   8.029 -0.2504  0.0397  0.1386
 1123YOPC   C4B15968   3.590   6.971   8.060 -0.3223  0.2205 -0.1188
 1124YOPC   NC315969   6.862   4.647   6.148 -0.2732  0.0312  0.2221
 1124YOPC   PO415970   7.346   4.763   6.210 -0.1578 -0.1488  0.1181
 1124YOPC   GL115971   7.171   4.429   6.554  0.0609  0.0131  0.1266
 1124YOPC   GL215972   6.860   4.293   6.574  0.0714 -0.0997  0.2371
 1124YOPC   C1A15973   7.309   4.254   6.921  0.0720  0.0501 -0.2299
 1124YOPC   D2A15974   7.356   4.357   7.305 -0.2521  0.0225 -0.3225
 1124YOPC   C3A15975   7.226   4.700   7.556 -0.1031  0.0190 -0.1509
 1124YOPC   C4A15976   6.973   4.948   7.707  0.0481 -0.0786 -0.3411
 1124YOPC   C1B15977   6.756   4.219   6.990  0.1623  0.4268 -0.0842
 1124YOPC   C2B15978   6.396   4.371   7.140  0.1713 -0.0509 -0.2797
 1124YOPC   D3B15979   6.360   4.232   7.562 -0.1500  0.4151 -0.1524
 1124YOPC   C4B15980   5.997   4.195   7.964 -0.3148 -0.1855 -0.3201
 1125YOPC   NC315981   1.343  10.458   6.090 -0.1945  0.2370  0.4806
 1125YOPC   PO415982   1.506  10.089   6.305  0.1595 -0.1395 -0.2513
 1125YOPC   GL115983   1.731   9.939   6.672 -0.1612 -0.0004 -0.0754
 1125YOPC   GL215984   2.109   9.966   6.708 -0.0356  0.3380  0.1218
 1125YOPC   C1A15985   1.747   9.730   6.963 -0.2479  0.2339 -0.3111
 1125YOPC   D2A15986   1.648   9.713   7.349 -0.2378  0.1804  0.0982
 1125YOPC   C3A15987   1.282   9.783   7.541  0.1954  0.0374  0.0953
 1125YOPC   C4A15988   1.230   9.825   7.860  0.1378 -0.1306 -0.0018
 1125YOPC   C1B15989   2.164   9.913   7.191  0.4718  0.0683  0.0802
 1125YOPC   C2B15990   2.102   9.885   7.659  0.0602  0.0679  0.3378
 1125YOPC   D3B15991   2.124   9.612   8.058 -0.2729  0.1462 -0.0434
 1125YOPC   C4B15992   2.105   9.222   8.324 -0.0376  0.2973  0.1001
 1126YOPC   NC315993   4.311  14.787   6.218  0.2301 -0.0007 -0.0375
 1126YOPC   PO415994   4.068  14.470   6.058  0.1549  0.2900 -0.0597
 1126YOPC   GL115995   4.061  14.365   6.452  0.1911 -0.1463  0.0872
 1126YOPC   GL215996   4.100  14.603   6.600  0.3405 -0.4007 -0.1842
 1126YOPC   C1A15997   3.832  14.180   6.839  0.1102  0.1303 -0.1338
 1126YOPC   D2A15998   3.532  14.177   7.162  0.1317  0.0855  0.1371
 1126YOPC   C3A15999   3.540  14.120   7.577  0.1665 -0.1621 -0.0602
 1126YOPC   C4A16000   3.586  14.273   7.988  0.1379 -0.1301  0.3645
 1126YOPC   C1B16001   4.278  14.504   7.003  0.1662  0.0780  0.0252
 1126YOPC   C2B16002   4.076  14.282   7.294  0.1730 -0.0708  0.0879
 1126YOPC   D3B16003   3.876  13.820   7.205 -0.0755  0.2655  0.0308
 1126YOPC   C4B16004   3.460  13.606   7.038 -0.0863 -0.1990  0.0045
 1127YOPC   NC316005   9.032   3.851   5.585  0.1298  0.0634 -0.0614
 1127YOPC   PO416006   9.288   3.598   5.776  0.0424 -0.1342 -0.0150
 1127YOPC   GL116007   9.519   3.445   6.159 -0.0983  0.3340 -0.2073
 1127YOPC   GL216008   9.197   3.405   6.408 -0.1057 -0.1293  0.2627
 1127YOPC   C1A16009   9.883   3.244   6.432 -0.0322 -0.4449 -0.1379
 1127YOPC   D2A16010  10.123   3.187   6.819  0.0428 -0.1442  0.0801
 1127YOPC   C3A16011  10.030   3.059   7.239 -0.2283  0.0431  0.0957
 1127YOPC   C4A16012  10.140   2.863   7.658 -0.2345  0.0948 -0.2162
 1127YOPC   C1B16013   9.226   3.337   6.844  0.0345  0.3605 -0.0077
 1127YOPC   C2B16014   9.236   3.534   7.217  0.0066  0.1455 -0.1159
 1127YOPC   D3B16015   8.988   3.668   7.626 -0.0490  0.1135 -0.0514
 1127YOPC   C4B16016   8.997   3.889   8.123 -0.3071 -0.1165 -0.3066
 1128ERGO   ROH16017  16.343  13.310   6.984 -0.0986  0.0753  0.0035
 1128ERGO    R116018  16.406  13.320   7.260  0.0239 -0.0036 -0.0209
 1128ERGO    R216019  16.252  13.459   7.443  0.1536  0.0158  0.0738
 1128ERGO    R316020  16.246  13.220   7.571  0.1211 -0.0078  0.0283
 1128ERGO    R416021  16.230  13.419   7.785  0.3253 -0.0420  0.0792
 1128ERGO    R516022  16.373  13.255   7.770  0.2479 -0.1020 -0.0336
 1128ERGO    C116023  16.210  13.170   8.105  0.3949 -0.0978  0.0395
 1128ERGO    C216024  16.029  13.266   8.429  0.2912  0.2633  0.0403
 1129ERGO   ROH16025   3.267  15.785   6.452  0.1916  0.2138  0.0277
 1129ERGO    R116026   3.418  15.764   6.690  0.0901  0.0244  0.0776
 1129ERGO    R216027   3.503  15.984   6.834  0.3184 -0.0756  0.1065
 1129ERGO    R316028   3.377  15.858   7.039  0.0914  0.0748  0.0632
 1129ERGO    R416029   3.575  16.032   7.168  0.1153 -0.0201  0.1435
 1129ERGO    R516030   3.550  15.818   7.199 -0.0492  0.0081  0.1977
 1129ERGO    C116031   3.499  15.941   7.556 -0.2161  0.1534  0.1242
 1129ERGO    C216032   3.625  15.890   7.861  0.0377  0.3359  0.1397
 1130ERGO   ROH16033  10.874  16.049   6.502 -0.2593  0.0488 -0.0006
 1130ERGO    R116034  10.911  16.042   6.782 -0.1985 -0.0184 -0.0094
 1130ERGO    R216035  10.850  16.257   6.945 -0.1607 -0.0549  0.0562
 1130ERGO    R316036  10.700  16.074   7.077 -0.1348 -0.0852  0.0430
 1130ERGO    R416037  10.775  16.270   7.282 -0.0469 -0.1666  0.0865
 1130ERGO    R516038  10.805  16.054   7.292 -0.0660 -0.1719  0.0008
 1130ERGO    C116039  10.589  16.105   7.602  0.0436 -0.2602  0.0917
 1130ERGO    C216040  10.419  16.228   7.795 -0.0349  0.1101 -0.1668
 1131ERGO   ROH16041   1.252  15.918   6.854 -0.0738 -0.0648 -0.0513
 1131ERGO    R116042   1.293  16.065   7.093 -0.0763  0.0620 -0.1296
 1131ERGO    R216043   1.538  16.080   7.219 -0.1352 -0.0657 -0.0113
 1131ERGO    R316044   1.497  16.347   7.197  0.1100 -0.0394 -0.2083
 1131ERGO    R416045   1.742  16.323   7.356 -0.3024 -0.1829  0.4663
 1131ERGO    R516046   1.563  16.435   7.410 -0.3841 -0.0332 -0.0379
 1131ERGO    C116047   1.822  16.716   7.416 -0.1696 -0.2265  0.5596
 1131ERGO    C216048   1.979  17.025   7.490  0.0249 -0.2214 -0.1832
 1132ERGO   ROH16049  11.030   1.629   6.474 -0.0026  0.0170 -0.0578
 1132ERGO    R116050  11.091   1.787   6.701 -0.0272 -0.0216 -0.0241
 1132ERGO    R216051  10.919   1.812   6.916  0.0287 -0.2053  0.0431
 1132ERGO    R316052  11.137   1.731   7.057  0.1286 -0.1157 -0.0581
 1132ERGO    R416053  10.961   1.854   7.256  0.2996  0.0728 -0.0205
 1132ERGO    R516054  11.170   1.904   7.220  0.2791  0.0164 -0.2249
 1132ERGO    C116055  11.190   1.804   7.587  0.5511  0.3189 -0.1526
 1132ERGO    C216056  11.293   1.847   7.929 -0.0302 -0.2904 -0.1086
 1133ERGO   ROH16057  14.102  11.595   6.552 -0.1608 -0.1155 -0.0922
 1133ERGO    R116058  14.196  11.549   6.815  0.0983 -0.2072 -0.1980
 1133ERGO    R216059  14.027  11.480   7.023  0.2535  0.0425  0.0128
 1133ERGO    R316060  14.199  11.270   7.049  0.0123 -0.1860 -0.1700
 1133ERGO    R416061  14.009  11.239   7.271  0.3231  0.1996  0.1736
 1133ERGO    R516062  14.226  11.246   7.286  0.3709 -0.0931 -0.1936
 1133ERGO    C116063  14.159  10.903   7.440  0.1371  0.0764  0.0956
 1133ERGO    C216064  14.173  10.775   7.670 -0.3026 -0.0238  0.0626
 1134ERGO   ROH16065   8.991   8.542   9.932 -0.2152  0.0814 -0.1541
 1134ERGO    R116066   9.097   8.464   9.681 -0.1824  0.0576 -0.1327
 1134ERGO    R216067   8.999   8.247   9.540 -0.1483  0.0320 -0.1134
 1134ERGO    R316068   8.972   8.430   9.341 -0.1430  0.0017 -0.1424
 1134ERGO    R416069   8.926   8.171   9.211 -0.0690 -0.0283 -0.1177
 1134ERGO    R516070   9.068   8.324   9.149 -0.0836 -0.0078 -0.1095
 1134ERGO    C116071   8.857   8.298   8.833 -0.0179 -0.0918 -0.1474
 1134ERGO    C216072   8.867   8.338   8.476  0.0495  0.1341  0.0440
 1135ERGO   ROH16073   4.051   9.634   7.268 -0.3032  0.3535  0.0859
 1135ERGO    R116074   4.150   9.570   7.526 -0.4271 -0.1176  0.0256
 1135ERGO    R216075   4.253   9.760   7.698  0.3254 -0.5308  0.0826
 1135ERGO    R316076   4.069   9.657   7.870 -0.0048  0.0348  0.0917
 1135ERGO    R416077   4.251   9.811   8.040  0.3434 -0.3264  0.0528
 1135ERGO    R516078   4.195   9.602   8.066 -0.2034 -0.1778  0.1615
 1135ERGO    C116079   4.078   9.744   8.400  0.0440  0.3235  0.0441
 1135ERGO    C216080   3.909   9.898   8.545  0.1466 -0.1691 -0.0636
 1136ERGO   ROH16081  10.022   0.601   6.519  0.2277  0.0842  0.1169
 1136ERGO    R116082  10.062   0.472   6.767 -0.0703  0.1434  0.2007
 1136ERGO    R216083  10.304   0.479   6.901 -0.0746 -0.2416  0.2449
 1136ERGO    R316084  10.152   0.572   7.106  0.0512  0.1722  0.1597
 1136ERGO    R416085  10.400   0.483   7.233 -0.0432  0.0326  0.2350
 1136ERGO    R516086  10.197   0.423   7.287 -0.1070  0.3276  0.3285
 1136ERGO    C116087  10.312   0.572   7.619  0.0930  0.5807  0.1493
 1136ERGO    C216088  10.147   0.527   7.952 -0.2088 -0.2344 -0.0376
 1137ERGO   ROH16089   4.261   6.580   6.789 -0.1625  0.0072 -0.0096
 1137ERGO    R116090   4.411   6.459   6.997 -0.0458  0.1309 -0.0206
 1137ERGO    R216091   4.389   6.539   7.261 -0.2041  0.0172  0.0015
 1137ERGO    R316092   4.338   6.275   7.303  0.1304 -0.0689 -0.0961
 1137ERGO    R416093   4.438   6.373   7.560 -0.2423  0.0344  0.0175
 1137ERGO    R516094   4.514   6.203   7.448  0.1062  0.1569  0.0525
 1137ERGO    C116095   4.418   6.029   7.774  0.0495 -0.0365 -0.0649
 1137ERGO    C216096   4.317   5.970   8.175  0.3248 -0.2457 -0.1528
 1138ERGO   ROH16097   7.353  13.172   6.758  0.0776 -0.1970  0.1001
 1138ERGO    R116098   7.511  13.241   6.983  0.1347 -0.2457  0.0747
 1138ERGO    R216099   7.415  13.397   7.190  0.2671 -0.0791  0.0104
 1138ERGO    R316100   7.496  13.186   7.342  0.0820 -0.0905  0.0976
 1138ERGO    R416101   7.536  13.421   7.513  0.1722 -0.0611  0.0453
 1138ERGO    R516102   7.685  13.270   7.464  0.0960 -0.1728  0.1373
 1138ERGO    C116103   7.682  13.237   7.844 -0.0569 -0.0613  0.1473
 1138ERGO    C216104   7.599  13.125   8.167  0.1445  0.4311  0.0979
 1139ERGO   ROH16105   3.420  17.299   6.545  0.1642 -0.1075  0.0522
 1139ERGO    R116106   3.419  17.416   6.803  0.1110 -0.0496  0.0268
 1139ERGO    R216107   3.189  17.444   6.953  0.0918 -0.1000  0.0122
 1139ERGO    R316108   3.334  17.310   7.140  0.1350 -0.0078  0.0450
 1139ERGO    R416109   3.097  17.407   7.284  0.0268 -0.1966 -0.0165
 1139ERGO    R516110   3.305  17.439   7.340 -0.0162 -0.0478  0.0468
 1139ERGO    C116111   3.179  17.259   7.652  0.0295 -0.1663 -0.0025
 1139ERGO    C216112   3.009  17.019   7.789  0.0405  0.0393  0.1662
 1140ERGO   ROH16113   8.643   4.107   6.425 -0.2468 -0.1078  0.0138
 1140ERGO    R116114   8.758   4.088   6.683 -0.0785  0.0021 -0.0499
 1140ERGO    R216115   8.674   4.243   6.896  0.0005  0.0365 -0.0349
 1140ERGO    R316116   8.643   4.002   7.018  0.1536  0.0569  0.0434
 1140ERGO    R416117   8.647   4.197   7.237 -0.1871  0.1400 -0.0349
 1140ERGO    R516118   8.773   4.020   7.218 -0.0038  0.2595  0.1244
 1140ERGO    C116119   8.603   3.943   7.551 -0.1524  0.2194  0.0385
 1140ERGO    C216120   8.531   3.999   7.876 -0.1607  0.1458  0.0211
 1141ERGO   ROH16121  12.945  16.833   6.772 -0.2011 -0.0132 -0.1284
 1141ERGO    R116122  12.781  16.947   6.972 -0.3071 -0.2666 -0.0671
 1141ERGO    R216123  12.662  16.796   7.171  0.1748 -0.4341  0.1103
 1141ERGO    R316124  12.787  16.973   7.335 -0.0822 -0.0612 -0.0840
 1141ERGO    R416125  12.588  16.841   7.506  0.3437 -0.4225  0.1469
 1141ERGO    R516126  12.612  17.056   7.477 -0.1585 -0.3746  0.0096
 1141ERGO    C116127  12.661  17.035   7.854  0.2007 -0.0657 -0.0140
 1141ERGO    C216128  12.457  17.125   8.066 -0.0898  0.1507  0.2579
 1142ERGO   ROH16129  11.823  17.102   6.773  0.1114 -0.0670  0.0354
 1142ERGO    R116130  11.858  17.282   6.989  0.1065 -0.0502  0.0241
 1142ERGO    R216131  11.654  17.442   7.083  0.1129 -0.0020 -0.0216
 1142ERGO    R316132  11.717  17.328   7.321  0.0569  0.0030 -0.0062
 1142ERGO    R416133  11.650  17.605   7.388  0.1942  0.0347 -0.0416
 1142ERGO    R516134  11.833  17.500   7.441  0.1375 -0.0429 -0.0278
 1142ERGO    C116135  11.707  17.593   7.789  0.1889  0.0606 -0.0386
 1142ERGO    C216136  11.653  17.534   8.120  0.0125  0.0106 -0.5285
 1143ERGO   ROH16137   0.042  16.575   6.910  0.0898  0.2753 -0.2966
 1143ERGO    R116138   0.110  16.792   7.078  0.0245  0.1460 -0.0987
 1143ERGO    R216139   0.048  16.798   7.347  0.0649 -0.1371 -0.0795
 1143ERGO    R316140   0.314  16.844   7.375  0.0505 -0.0519 -0.0816
 1143ERGO    R416141   0.197  16.937   7.627  0.0024  0.1051 -0.1647
 1143ERGO    R516142   0.327  17.051   7.494 -0.0114  0.0389 -0.2327
 1143ERGO    C116143   0.533  17.061   7.815 -0.0476  0.3263 -0.2161
 1143ERGO    C216144   0.612  17.326   8.066 -0.1560 -0.0129  0.0299
 1144ERGO   ROH16145   5.349   6.864   6.694  0.0886  0.1811 -0.0753
 1144ERGO    R116146   5.359   7.030   6.923  0.2622  0.0967 -0.0221
 1144ERGO    R216147   5.170   7.018   7.124  0.1896  0.3048 -0.0880
 1144ERGO    R316148   5.387   6.982   7.283  0.0932 -0.0522 -0.0243
 1144ERGO    R416149   5.192   7.116   7.455  0.1957  0.1618 -0.0440
 1144ERGO    R516150   5.396   7.180   7.417  0.3097 -0.0993  0.0481
 1144ERGO    C116151   5.409   7.140   7.796  0.1088 -0.2565  0.0415
 1144ERGO    C216152   5.551   7.285   8.069  0.0195  0.0249  0.0652
 1145ERGO   ROH16153   8.446  13.969   6.917 -0.3050  0.0854  0.0107
 1145ERGO    R116154   8.469  14.138   7.143 -0.3638 -0.0108  0.0880
 1145ERGO    R216155   8.285  14.134   7.350 -0.2723 -0.2855  0.1724
 1145ERGO    R316156   8.507  14.093   7.503 -0.1689 -0.1623  0.0466
 1145ERGO    R416157   8.313  14.217   7.685  0.0326  0.0884  0.0643
 1145ERGO    R516158   8.516  14.285   7.646  0.0062 -0.0104 -0.1746
 1145ERGO    C116159   8.536  14.227   8.022  0.3073  0.4215 -0.1167
 1145ERGO    C216160   8.556  14.401   8.258  0.0070  0.0940 -0.0197
 1146ERGO   ROH16161   0.866  11.842  10.280 -0.0308 -0.4258  0.0421
 1146ERGO    R116162   0.823  11.910  10.009 -0.1918 -0.3964  0.0731
 1146ERGO    R216163   1.030  11.953   9.832 -0.2785  0.1769  0.0853
 1146ERGO    R316164   0.901  11.765   9.684  0.1565 -0.0711  0.0068
 1146ERGO    R416165   1.040  11.931   9.487 -0.2649  0.3650  0.0734
 1146ERGO    R516166   0.828  11.882   9.489 -0.1520 -0.1514  0.0745
 1146ERGO    C116167   0.925  11.741   9.148  0.1513  0.2415 -0.0073
 1146ERGO    C216168   0.949  11.783   8.862  0.1396  0.0123  0.1765
 1147ERGO   ROH16169   1.773  11.586   6.447  0.0182 -0.1589 -0.0075
 1147ERGO    R116170   1.838  11.534   6.718  0.1579 -0.0066 -0.0087
 1147ERGO    R216171   1.970  11.718   6.877 -0.1424  0.2647 -0.0497
 1147ERGO    R316172   1.757  11.680   7.041 -0.0585 -0.1022 -0.0207
 1147ERGO    R416173   1.927  11.869   7.185 -0.3377  0.1301 -0.0104
 1147ERGO    R516174   1.850  11.680   7.262 -0.0306 -0.0044 -0.0387
 1147ERGO    C116175   1.702  11.921   7.518 -0.3727 -0.2927  0.0396
 1147ERGO    C216176   1.548  12.085   7.880 -0.1804 -0.1276 -0.0395
 1148ERGO   ROH16177   0.107   9.296   6.864  0.0898  0.1887 -0.0844
 1148ERGO    R116178   0.125   9.203   7.131 -0.1549  0.2088 -0.0577
 1148ERGO    R216179   0.366   9.182   7.265 -0.2298 -0.1450  0.0363
 1148ERGO    R316180   0.239   9.336   7.450 -0.0609  0.0948 -0.0437
 1148ERGO    R416181   0.443   9.189   7.602 -0.2841 -0.1249  0.0477
 1148ERGO    R516182   0.229   9.198   7.645 -0.2838  0.1778  0.0055
 1148ERGO    C116183   0.369   9.338   7.971 -0.1572  0.1117 -0.0207
 1148ERGO    C216184   0.423   9.571   8.300  0.4095  0.0252 -0.0825
 1149ERGO   ROH16185  10.435   9.447   6.990 -0.1515 -0.0077 -0.0261
 1149ERGO    R116186  10.477   9.535   7.256 -0.1230  0.0031 -0.0338
 1149ERGO    R216187  10.388   9.394   7.476 -0.0744 -0.0039 -0.0159
 1149ERGO    R316188  10.648   9.410   7.552 -0.0647  0.0285 -0.0573
 1149ERGO    R416189  10.499   9.377   7.803 -0.0250  0.1029 -0.0270
 1149ERGO    R516190  10.643   9.534   7.757 -0.0379  0.0918 -0.0964
 1149ERGO    C116191  10.809   9.381   8.064  0.0128  0.1955 -0.0722
 1149ERGO    C216192  10.961   9.480   8.375  0.2985  0.1610  0.0179
 1150ERGO   ROH16193  15.152  16.891   7.025  0.2841  0.1275 -0.1057
 1150ERGO    R116194  15.421  16.899   7.111  0.2793  0.0890 -0.0856
 1150ERGO    R216195  15.509  17.069   7.309  0.3051  0.1318 -0.1322
 1150ERGO    R316196  15.602  16.839   7.421  0.2383  0.1445 -0.0509
 1150ERGO    R416197  15.697  17.053   7.599  0.3056  0.1826 -0.1302
 1150ERGO    R516198  15.819  16.898   7.505  0.2575  0.1113 -0.0768
 1150ERGO    C116199  15.894  16.828   7.873  0.2431  0.2240 -0.0528
 1150ERGO    C216200  16.117  16.866   8.039  0.0565  0.0553  0.2506
 1151ERGO   ROH16201   5.218   3.773   6.706  0.0856  0.0043  0.0777
 1151ERGO    R116202   5.451   3.665   6.824  0.0876 -0.0438  0.0290
 1151ERGO    R216203   5.548   3.751   7.068  0.1512 -0.0692  0.0109
 1151ERGO    R316204   5.534   3.487   7.130  0.1143 -0.0683  0.0082
 1151ERGO    R416205   5.606   3.618   7.382 -0.0913 -0.0542  0.0646
 1151ERGO    R516206   5.711   3.453   7.287 -0.0063 -0.0535  0.1522
 1151ERGO    C116207   5.626   3.293   7.623 -0.2672 -0.0447  0.0932
 1151ERGO    C216208   5.648   3.177   7.971 -0.0553  0.1930  0.1541
 1152ERGO   ROH16209   9.483  15.601   6.623  0.1021  0.1630 -0.0318
 1152ERGO    R116210   9.537  15.749   6.858 -0.0879  0.0310  0.0998
 1152ERGO    R216211   9.371  15.743   7.079 -0.1598 -0.2628  0.0505
 1152ERGO    R316212   9.600  15.675   7.208 -0.1464 -0.1877  0.0637
 1152ERGO    R416213   9.412  15.743   7.422 -0.1024 -0.0437  0.0442
 1152ERGO    R516214   9.611  15.826   7.394 -0.1087 -0.0731 -0.0371
 1152ERGO    C116215   9.651  15.679   7.743 -0.0563  0.1544  0.0528
 1152ERGO    C216216   9.701  15.757   8.059 -0.1468  0.1318 -0.0083
 1153ERGO   ROH16217  16.897   8.330   6.860 -0.1470 -0.0381 -0.0127
 1153ERGO    R116218  17.142   8.286   6.994 -0.0147  0.2442 -0.1538
 1153ERGO    R216219  17.270   8.484   7.138 -0.3330  0.3136  0.0453
 1153ERGO    R316220  17.261   8.300   7.338  0.0698  0.0370 -0.1736
 1153ERGO    R416221  17.492   8.470   7.403 -0.2838  0.4522  0.0137
 1153ERGO    R516222  17.492   8.253   7.385  0.1800  0.4632 -0.2523
 1153ERGO    C116223  17.612   8.290   7.745  0.1226  0.2733 -0.2103
 1153ERGO    C216224  17.572   8.553   7.968 -0.1225  0.2917  0.3381
 1154ERGO   ROH16225  14.588   3.508   6.442 -0.0984 -0.0735  0.0402
 1154ERGO    R116226  14.700   3.416   6.685  0.0048  0.0512  0.0409
 1154ERGO    R216227  14.724   3.577   6.909 -0.1469  0.0891  0.0296
 1154ERGO    R316228  14.587   3.375   7.029  0.0593 -0.0423  0.0483
 1154ERGO    R416229  14.682   3.542   7.250 -0.1225  0.0868  0.0326
 1154ERGO    R516230  14.713   3.328   7.227  0.1040  0.1132  0.0589
 1154ERGO    C116231  14.530   3.333   7.562  0.0851 -0.0380  0.0519
 1154ERGO    C216232  14.237   3.544   7.709  0.1348  0.1717 -0.0648
 1155ERGO   ROH16233   1.522   6.025   6.762  0.1450  0.0756  0.1015
 1155ERGO    R116234   1.424   6.007   7.027  0.1297  0.0378  0.0930
 1155ERGO    R216235   1.586   5.939   7.241  0.1134 -0.0079  0.0895
 1155ERGO    R316236   1.490   6.172   7.345  0.1225 -0.0194  0.1245
 1155ERGO    R416237   1.592   6.024   7.576 -0.0264 -0.1282  0.1240
 1155ERGO    R516238   1.392   6.108   7.554  0.0044 -0.0694  0.0561
 1155ERGO    C116239   1.506   6.291   7.869 -0.0992 -0.2091  0.1770
 1155ERGO    C216240   1.607   6.102   8.149 -0.0221 -0.4736  0.0462
 1156ERGO   ROH16241  17.048   9.822   6.888  0.1841 -0.1726 -0.0325
 1156ERGO    R116242  17.228   9.922   7.082  0.1496 -0.1527 -0.0109
 1156ERGO    R216243  17.147   9.995   7.336  0.1021 -0.1126 -0.0385
 1156ERGO    R316244  17.343   9.823   7.412  0.0795 -0.1099  0.0271
 1156ERGO    R416245  17.285   9.978   7.653 -0.0260 -0.1278  0.0171
 1156ERGO    R516246  17.480   9.949   7.562  0.0136 -0.1125  0.0924
 1156ERGO    C116247  17.549   9.806   7.908 -0.1215 -0.1341  0.1110
 1156ERGO    C216248  17.786   9.550   8.014 -0.1384  0.0105  0.3812
 1157ERGO   ROH16249   7.980   5.889   6.628 -0.1093  0.1287  0.0842
 1157ERGO    R116250   8.061   5.864   6.899 -0.0040  0.0808  0.0507
 1157ERGO    R216251   8.317   5.922   6.984  0.0628 -0.0174 -0.0491
 1157ERGO    R316252   8.187   6.085   7.159  0.1873  0.0208  0.0065
 1157ERGO    R416253   8.424   5.992   7.305  0.2162 -0.0207 -0.1002
 1157ERGO    R516254   8.217   5.978   7.372  0.2542  0.0346 -0.0048
 1157ERGO    C116255   8.365   6.185   7.656  0.4223  0.0132 -0.0778
 1157ERGO    C216256   8.641   6.315   7.918 -0.1779 -0.1237  0.0521
 1158ERGO   ROH16257  13.935  12.691   6.703  0.0432 -0.0764  0.1140
 1158ERGO    R116258  14.004  12.613   6.967  0.0293 -0.1562  0.0950
 1158ERGO    R216259  14.193  12.419   7.020  0.1099 -0.0946  0.0490
 1158ERGO    R316260  14.304  12.614   7.173 -0.0087 -0.1058  0.1495
 1158ERGO    R416261  14.467  12.376   7.225  0.0874 -0.0509  0.0871
 1158ERGO    R516262  14.369  12.502   7.374  0.0016 -0.1553  0.1169
 1158ERGO    C116263  14.731  12.535   7.488 -0.0370 -0.0360  0.2037
 1158ERGO    C216264  14.875  12.560   7.673  0.0398  0.1443 -0.3627
 1159ERGO   ROH16265  16.185  15.489   6.668 -0.0972 -0.0245  0.0896
 1159ERGO    R116266  16.196  15.632   6.912 -0.1255 -0.1180  0.1464
 1159ERGO    R216267  16.059  15.551   7.138  0.0069 -0.3154  0.1590
 1159ERGO    R316268  16.305  15.566   7.252  0.0345 -0.1805  0.0837
 1159ERGO    R416269  16.119  15.554   7.478  0.1011 -0.1071  0.1420
 1159ERGO    R516270  16.273  15.704   7.445  0.0491 -0.0814  0.0151
 1159ERGO    C116271  16.385  15.569   7.784  0.1818  0.1409  0.0613
 1159ERGO    C216272  16.487  15.674   8.070 -0.2687  0.0350  0.5604
 1160ERGO   ROH16273   2.246  17.321   6.130  0.1559 -0.2028  0.0403
 1160ERGO    R116274   2.292  17.347   6.408  0.0046  0.0208  0.0492
 1160ERGO    R216275   2.247  17.583   6.545 -0.1518  0.1153 -0.1417
 1160ERGO    R316276   2.094  17.423   6.704 -0.1786  0.1727 -0.1131
 1160ERGO    R416277   2.287  17.548   6.886  0.1047 -0.1594 -0.1973
 1160ERGO    R516278   2.248  17.334   6.864 -0.1382 -0.0978 -0.3053
 1160ERGO    C116279   2.167  17.378   7.234  0.2288 -0.2653 -0.2029
 1160ERGO    C216280   2.235  17.411   7.630 -0.0848  0.0814 -0.1944
 1161ERGO   ROH16281   4.726  12.114   6.665  0.0997 -0.2289  0.0766
 1161ERGO    R116282   4.456  12.174   6.723  0.1380  0.0531 -0.0262
 1161ERGO    R216283   4.269  11.980   6.783 -0.0952  0.2432 -0.1193
 1161ERGO    R316284   4.229  12.132   7.004 -0.0224  0.2643 -0.1205
 1161ERGO    R416285   4.058  11.897   7.044  0.0967  0.2018  0.0247
 1161ERGO    R516286   3.997  12.106   7.054  0.0175  0.1778  0.0263
 1161ERGO    C116287   3.899  11.992   7.404  0.2767  0.1975  0.1073
 1161ERGO    C216288   3.843  11.985   7.796 -0.3863  0.2159 -0.0453
 1162ERGO   ROH16289   2.686   2.390   6.759 -0.2169 -0.1578 -0.0244
 1162ERGO    R116290   2.761   2.480   7.017 -0.1760 -0.0608 -0.0696
 1162ERGO    R216291   2.710   2.335   7.246 -0.0749 -0.0093 -0.0130
 1162ERGO    R316292   2.978   2.364   7.285 -0.0725  0.0796 -0.0909
 1162ERGO    R416293   2.861   2.375   7.554  0.0163 -0.1240 -0.0422
 1162ERGO    R516294   2.995   2.522   7.464 -0.0766 -0.0158 -0.0054
 1162ERGO    C116295   3.200   2.425   7.771  0.0716 -0.1073 -0.1323
 1162ERGO    C216296   3.433   2.427   8.054 -0.1006 -0.0837  0.0729
 1163ERGO   ROH16297  16.910   3.892   6.317  0.1391 -0.0587  0.0635
 1163ERGO    R116298  17.034   3.837   6.566  0.3014  0.1132  0.0231
 1163ERGO    R216299  17.187   4.024   6.700 -0.0681  0.3974  0.0623
 1163ERGO    R316300  17.017   3.968   6.905  0.0764 -0.0400  0.0738
 1163ERGO    R416301  17.253   4.086   7.034 -0.1336  0.4190  0.0711
 1163ERGO    R516302  17.160   3.895   7.083  0.2733  0.1932  0.0200
 1163ERGO    C116303  17.131   4.070   7.420 -0.0362  0.0209  0.0870
 1163ERGO    C216304  17.145   4.157   7.738  0.2849 -0.1504  0.0316
 1164ERGO   ROH16305   8.394   2.352   6.795  0.0498 -0.1790 -0.1719
 1164ERGO    R116306   8.221   2.207   6.965  0.0733 -0.1011 -0.0791
 1164ERGO    R216307   8.313   2.055   7.177  0.1072 -0.0356 -0.0392
 1164ERGO    R316308   8.139   2.207   7.320  0.1559  0.0389 -0.0608
 1164ERGO    R416309   8.221   1.996   7.505  0.0616  0.0334 -0.0403
 1164ERGO    R516310   8.017   2.049   7.453  0.0899  0.1027 -0.0537
 1164ERGO    C116311   8.004   2.105   7.830  0.0809  0.1435 -0.0613
 1164ERGO    C216312   7.841   2.234   8.084 -0.1004 -0.0113 -0.2406
 1165ERGO   ROH16313  16.038   5.069   6.643  0.0078  0.0676  0.0659
 1165ERGO    R116314  16.079   5.053   6.923 -0.0299  0.0690  0.0717
 1165ERGO    R216315  15.969   5.234   7.100 -0.1127  0.0295  0.0633
 1165ERGO    R316316  15.871   5.011   7.218 -0.0630 -0.0057  0.0378
 1165ERGO    R416317  15.826   5.225   7.414 -0.1171 -0.0375  0.0590
 1165ERGO    R516318  15.929   5.035   7.450 -0.0741 -0.0167  0.0412
 1165ERGO    C116319  15.650   5.009   7.708 -0.0731 -0.1095  0.0326
 1165ERGO    C216320  15.478   4.946   7.913 -0.0403 -0.3542  0.0156
 1166ERGO   ROH16321  13.894   4.137   6.759  0.1060 -0.1625  0.0021
 1166ERGO    R116322  13.968   4.206   7.024 -0.0338 -0.1560  0.0395
 1166ERGO    R216323  13.919   4.456   7.131 -0.0252 -0.1306 -0.0176
 1166ERGO    R316324  13.796   4.312   7.326 -0.1864 -0.0728 -0.0748
 1166ERGO    R416325  13.808   4.586   7.432 -0.0594 -0.0875 -0.0484
 1166ERGO    R516326  13.880   4.405   7.530 -0.2058 -0.1404 -0.0353
 1166ERGO    C116327  13.628   4.527   7.790 -0.2307 -0.0081 -0.1201
 1166ERGO    C216328  13.526   4.616   8.093  0.0395  0.0029  0.0997
 1167ERGO   ROH16329  10.346   8.212   6.649  0.1458 -0.0824 -0.0080
 1167ERGO    R116330  10.292   8.053   6.877 -0.1308 -0.1725 -0.1322
 1167ERGO    R216331  10.313   8.149   7.135  0.1992 -0.4494 -0.0422
 1167ERGO    R316332  10.057   8.061   7.155 -0.0105  0.1222 -0.0379
 1167ERGO    R416333  10.149   8.084   7.432  0.1526 -0.3816 -0.0537
 1167ERGO    R516334  10.061   7.908   7.339 -0.2974 -0.0842 -0.2032
 1167ERGO    C116335   9.813   7.963   7.623 -0.0714  0.1944 -0.0564
 1167ERGO    C216336   9.669   7.842   7.907  0.1695  0.0721 -0.0863
 1168ERGO   ROH16337   4.239   8.074   7.076  0.0547  0.1239 -0.0619
 1168ERGO    R116338   4.380   8.120   7.317 -0.0684  0.2746 -0.0168
 1168ERGO    R216339   4.275   8.270   7.524 -0.3545  0.0554  0.0071
 1168ERGO    R316340   4.329   8.048   7.670 -0.0390  0.0898 -0.0499
 1168ERGO    R416341   4.304   8.263   7.868 -0.2427  0.0206 -0.0029
 1168ERGO    R516342   4.472   8.125   7.846 -0.0806  0.2287 -0.0784
 1168ERGO    C116343   4.371   8.050   8.206  0.1187  0.0326 -0.0625
 1168ERGO    C216344   4.351   8.012   8.652  0.2043 -0.4104 -0.1080
 1169ERGO   ROH16345   0.108  13.202   8.142 -0.0215 -0.3971 -0.2299
 1169ERGO    R116346  -0.148  13.302   8.208  0.0423 -0.2656 -0.1797
 1169ERGO    R216347  -0.382  13.184   8.120 -0.0366 -0.1863 -0.0768
 1169ERGO    R316348  -0.442  13.181   8.385  0.0399 -0.0868 -0.0576
 1169ERGO    R416349  -0.702  13.175   8.250 -0.0004 -0.1624  0.0151
 1169ERGO    R516350  -0.639  13.316   8.403  0.0327 -0.0951 -0.0573
 1169ERGO    C116351  -0.945  13.167   8.574  0.0925 -0.0551  0.0864
 1169ERGO    C216352  -1.281  13.093   8.521  0.1421  0.1877 -0.2005
 1170ERGO   ROH16353  16.064   8.775   8.413 -0.0631  0.1129  0.0772
 1170ERGO    R116354  15.844   8.889   8.274 -0.1057  0.0531  0.0963
 1170ERGO    R216355  15.633   9.011   8.404 -0.0742  0.1002  0.1031
 1170ERGO    R316356  15.695   9.219   8.241 -0.1274  0.0318  0.0084
 1170ERGO    R416357  15.425   9.278   8.336 -0.0644  0.1107  0.1145
 1170ERGO    R516358  15.490   9.270   8.129 -0.1696  0.0309  0.0943
 1170ERGO    C116359  15.362   9.629   8.143 -0.1085  0.0525  0.0322
 1170ERGO    C216360  15.435   9.937   8.207  0.0105  0.0434  0.0510
 1171ERGO   ROH16361  15.602   1.291   6.417  0.1933 -0.0722  0.0087
 1171ERGO    R116362  15.746   1.424   6.620  0.2438  0.1189 -0.1519
 1171ERGO    R216363  15.785   1.697   6.621 -0.2778  0.1919 -0.1077
 1171ERGO    R316364  15.678   1.680   6.870  0.1221 -0.1091  0.0575
 1171ERGO    R416365  15.806   1.944   6.861 -0.7677  0.3746 -0.2389
 1171ERGO    R516366  15.839   1.788   7.011 -0.0121  0.5030 -0.2131
 1171ERGO    C116367  15.717   2.072   7.235 -0.6776  0.1983 -0.1603
 1171ERGO    C216368  15.737   2.262   7.507  0.1530  0.1952 -0.1369
 1172ERGO   ROH16369   4.525  10.993   6.658  0.2383  0.2088 -0.1224
 1172ERGO    R116370   4.525  10.999   6.941  0.1294  0.0881 -0.1187
 1172ERGO    R216371   4.757  11.029   7.089  0.0662  0.0859 -0.0173
 1172ERGO    R316372   4.620  11.236   7.200 -0.0301  0.0029  0.0191
 1172ERGO    R416373   4.735  11.093   7.428  0.0515  0.0256 -0.0072
 1172ERGO    R516374   4.526  11.144   7.401  0.0243 -0.0729  0.0103
 1172ERGO    C116375   4.594  11.324   7.730 -0.0476 -0.0872  0.0328
 1172ERGO    C216376   4.508  11.724   7.985  0.0248  0.0695  0.0284
 1173ERGO   ROH16377  16.673  12.079   6.764 -0.3083  0.0056  0.1553
 1173ERGO    R116378  16.810  11.976   6.990 -0.1214  0.1692  0.1199
 1173ERGO    R216379  16.843  12.121   7.223 -0.2511  0.2051  0.1174
 1173ERGO    R316380  16.729  11.902   7.337  0.0522  0.0511  0.1366
 1173ERGO    R416381  16.818  12.065   7.563 -0.3465  0.2968  0.1260
 1173ERGO    R516382  16.866  11.855   7.527  0.0292  0.3569  0.2327
 1173ERGO    C116383  16.697  11.827   7.868 -0.1173  0.2057  0.1491
 1173ERGO    C216384  16.660  11.854   8.194  0.0347  0.0703 -0.0832
 1174ERGO   ROH16385  15.967   4.139   6.534  0.0710  0.1684 -0.0427
 1174ERGO    R116386  15.974   4.011   6.787  0.2052  0.1073 -0.0772
 1174ERGO    R216387  16.145   4.090   6.989  0.0361  0.3161 -0.0142
 1174ERGO    R316388  15.915   4.106   7.133 -0.0285 -0.0778 -0.0636
 1174ERGO    R416389  16.129   4.099   7.334 -0.0593  0.2188 -0.0153
 1174ERGO    R516390  15.956   3.967   7.324  0.1473 -0.0574 -0.0840
 1174ERGO    C116391  15.904   4.118   7.670 -0.1755 -0.2077 -0.0623
 1174ERGO    C216392  15.842   4.056   7.986  0.0277  0.1247  0.2304
 1175ERGO   ROH16393   2.602  13.924   6.714 -0.0362 -0.0539  0.0763
 1175ERGO    R116394   2.532  13.993   6.979  0.1011 -0.3119  0.1824
 1175ERGO    R216395   2.675  13.905   7.199  0.5945 -0.0271 -0.0154
 1175ERGO    R316396   2.688  14.170   7.256 -0.0061  0.0038  0.0484
 1175ERGO    R416397   2.677  14.037   7.518  0.7918 -0.1603  0.0410
 1175ERGO    R516398   2.545  14.196   7.447  0.2310 -0.4586  0.3149
 1175ERGO    C116399   2.690  14.363   7.758  0.3427 -0.2089  0.1338
 1175ERGO    C216400   2.608  14.502   8.060 -0.0268  0.1688 -0.0177
 1176ERGO   ROH16401  13.990   0.444  10.388 -0.0618  0.0011 -0.0107
 1176ERGO    R116402  14.027   0.373  10.117 -0.0546  0.0027 -0.0095
 1176ERGO    R216403  13.818   0.361   9.936 -0.0302  0.1334 -0.0444
 1176ERGO    R316404  13.974   0.531   9.793  0.0884  0.0584 -0.0073
 1176ERGO    R416405  13.883   0.333   9.598  0.0274  0.1068 -0.0319
 1176ERGO    R516406  14.089   0.391   9.637  0.0507  0.0010  0.0141
 1176ERGO    C116407  14.066   0.478   9.266  0.1724  0.0209  0.0101
 1176ERGO    C216408  14.004   0.450   8.938  0.1940  0.0474 -0.5300
 1177ERGO   ROH16409   2.400   8.279   6.948  0.0502  0.0632 -0.1319
 1177ERGO    R116410   2.341   8.178   7.205  0.0452 -0.0818 -0.1892
 1177ERGO    R216411   2.477   7.964   7.316  0.1857 -0.0125 -0.2213
 1177ERGO    R316412   2.517   8.138   7.521 -0.0288 -0.0512 -0.1446
 1177ERGO    R416413   2.676   7.902   7.591  0.2448  0.1055 -0.2367
 1177ERGO    R516414   2.525   7.999   7.716  0.1236 -0.1236 -0.2035
 1177ERGO    C116415   2.829   8.028   7.945  0.0780  0.1378 -0.1736
 1177ERGO    C216416   3.043   7.758   8.124 -0.1162  0.2990  0.0767
 1178ERGO   ROH16417   7.141  15.664   8.588  0.1712  0.0389  0.0375
 1178ERGO    R116418   6.974  15.701   8.813  0.0261  0.0124 -0.0632
 1178ERGO    R216419   6.872  15.490   8.960  0.0167 -0.0067 -0.0868
 1178ERGO    R316420   6.987  15.621   9.168 -0.1458  0.0693 -0.0447
 1178ERGO    R416421   6.786  15.448   9.292  0.0150 -0.1497 -0.1050
 1178ERGO    R516422   6.807  15.663   9.319 -0.2046 -0.1383 -0.0609
 1178ERGO    C116423   6.844  15.548   9.681 -0.1385 -0.1617 -0.0763
 1178ERGO    C216424   6.808  15.598  10.087 -0.0896 -0.0230  0.2252
 1179ERGO   ROH16425   6.274  10.021   6.588 -0.0636 -0.3167 -0.1368
 1179ERGO    R116426   6.366  10.099   6.845 -0.1042 -0.1739 -0.1641
 1179ERGO    R216427   6.226  10.042   7.076 -0.0900 -0.1377 -0.1451
 1179ERGO    R316428   6.461   9.930   7.153 -0.0460 -0.0101 -0.0921
 1179ERGO    R416429   6.330  10.008   7.403 -0.1664 -0.1293 -0.1198
 1179ERGO    R516430   6.531  10.062   7.340 -0.1801  0.0006 -0.0496
 1179ERGO    C116431   6.612   9.883   7.667 -0.1696 -0.0047 -0.0553
 1179ERGO    C216432   6.577   9.658   8.007 -0.0803  0.1930  0.2598
 1180ERGO   ROH16433   8.130   3.487   6.533  0.0157 -0.0725 -0.0039
 1180ERGO    R116434   8.242   3.557   6.783 -0.0091 -0.0277 -0.0048
 1180ERGO    R216435   8.226   3.813   6.887 -0.0969 -0.0285 -0.0108
 1180ERGO    R316436   8.118   3.686   7.101 -0.0550 -0.0611 -0.0095
 1180ERGO    R416437   8.243   3.925   7.213  0.0001 -0.1001  0.0087
 1180ERGO    R516438   8.276   3.719   7.277 -0.0063 -0.1162 -0.0434
 1180ERGO    C116439   8.151   3.869   7.604  0.0959 -0.1723  0.0212
 1180ERGO    C216440   7.894   3.844   7.909 -0.3559  0.0067  0.0913
 1181ERGO   ROH16441  17.707   0.849   6.161  0.1506 -0.1538 -0.0529
 1181ERGO    R116442  17.772   0.933   6.424  0.0722  0.0346 -0.0923
 1181ERGO    R216443  17.821   0.755   6.630 -0.1136  0.1797  0.0837
 1181ERGO    R316444  18.053   0.894   6.651 -0.0515  0.0803  0.0683
 1181ERGO    R416445  17.995   0.804   6.924 -0.1316  0.2173  0.0887
 1181ERGO    R516446  18.035   1.008   6.861 -0.0267  0.1711  0.0179
 1181ERGO    C116447  18.314   0.963   7.116 -0.0838  0.1460  0.0772
 1181ERGO    C216448  18.414   1.120   7.339  0.1934  0.1100  0.0797
 1182ERGO   ROH16449  12.523   6.385   6.090 -0.0815  0.2267 -0.0568
 1182ERGO    R116450  12.617   6.297   6.342 -0.1331  0.0793 -0.0881
 1182ERGO    R216451  12.884   6.307   6.413 -0.1406 -0.0062 -0.0445
 1182ERGO    R316452  12.789   6.445   6.627 -0.1457 -0.0982  0.0130
 1182ERGO    R416453  12.977   6.252   6.741 -0.0663 -0.0722 -0.0761
 1182ERGO    R516454  12.769   6.281   6.799 -0.0643 -0.1538 -0.0306
 1182ERGO    C116455  12.940   6.349   7.133 -0.0278 -0.1970 -0.0405
 1182ERGO    C216456  13.301   6.315   7.282  0.1367 -0.0504  0.0216
 1183ERGO   ROH16457   6.423   0.453   6.396  0.1520  0.2314  0.0763
 1183ERGO    R116458   6.417   0.323   6.648  0.0074  0.1476  0.0310
 1183ERGO    R216459   6.624   0.344   6.831 -0.0091 -0.0740  0.0763
 1183ERGO    R316460   6.425   0.424   6.997  0.0220  0.0208  0.0682
 1183ERGO    R416461   6.628   0.310   7.174 -0.0316 -0.0661  0.0772
 1183ERGO    R516462   6.417   0.256   7.167 -0.0572  0.0279  0.0731
 1183ERGO    C116463   6.443   0.366   7.531 -0.0154  0.0274  0.0703
 1183ERGO    C216464   6.466   0.422   7.899  0.2930 -0.0722  0.1643
 1184ERGO   ROH16465   1.012   0.993   6.277  0.1185  0.0414 -0.2146
 1184ERGO    R116466   1.203   0.881   6.454 -0.0357 -0.0324 -0.0925
 1184ERGO    R216467   1.431   1.016   6.531  0.0417 -0.1772 -0.0655
 1184ERGO    R316468   1.339   0.962   6.781 -0.0972  0.0034 -0.0755
 1184ERGO    R416469   1.630   0.936   6.802 -0.1210 -0.1711  0.0575
 1184ERGO    R516470   1.482   0.787   6.861 -0.2399 -0.0492  0.0701
 1184ERGO    C116471   1.660   0.838   7.194 -0.3462  0.0019  0.1196
 1184ERGO    C216472   1.803   1.027   7.463  0.1710 -0.1853 -0.2387
 1185ERGO   ROH16473   8.334   1.569   6.699 -0.1462  0.1655  0.0849
 1185ERGO    R116474   8.379   1.642   6.968 -0.1608  0.0170  0.1271
 1185ERGO    R216475   8.249   1.520   7.179 -0.0550 -0.2054  0.0597
 1185ERGO    R316476   8.502   1.479   7.269 -0.0174 -0.1009  0.0074
 1185ERGO    R416477   8.356   1.579   7.503 -0.0300 -0.2012  0.0518
 1185ERGO    R516478   8.542   1.659   7.421 -0.0779 -0.1002  0.0280
 1185ERGO    C116479   8.656   1.575   7.775  0.0199 -0.1007 -0.0018
 1185ERGO    C216480   8.683   1.570   8.210  0.0212 -0.0677  0.1296
 1186ERGO   ROH16481   2.616   5.078   6.419  0.0433  0.1537  0.0279
 1186ERGO    R116482   2.743   5.146   6.662  0.0213  0.2286  0.0202
 1186ERGO    R216483   2.752   5.406   6.758 -0.1775  0.2312  0.0536
 1186ERGO    R316484   2.644   5.293   6.980 -0.0599  0.1098  0.0486
 1186ERGO    R416485   2.757   5.546   7.074 -0.1135  0.1020  0.1092
 1186ERGO    R516486   2.796   5.348   7.156 -0.0205  0.0872  0.0161
 1186ERGO    C116487   2.658   5.521   7.467  0.0342 -0.0871  0.1369
 1186ERGO    C216488   2.455   5.509   7.669 -0.3836  0.1164 -0.0986
 1187ERGO   ROH16489  15.863   9.294   6.684  0.0019  0.0858 -0.0973
 1187ERGO    R116490  16.026   9.206   6.898 -0.0990  0.1177 -0.0073
 1187ERGO    R216491  16.296   9.154   6.869 -0.1306 -0.0905  0.0760
 1187ERGO    R316492  16.318   9.329   7.076 -0.0446  0.0345 -0.0367
 1187ERGO    R416493  16.571   9.181   7.076 -0.1940 -0.2404  0.1823
 1187ERGO    R516494  16.436   9.207   7.244 -0.2510  0.0226  0.1054
 1187ERGO    C116495  16.753   9.360   7.390 -0.1505 -0.2103  0.1383
 1187ERGO    C216496  16.996   9.358   7.468 -0.4173  0.4018  0.2568
 1188ERGO   ROH16497   6.990  15.994   6.491 -0.0722  0.0048  0.0934
 1188ERGO    R116498   7.136  15.879   6.704 -0.1884  0.0053  0.1746
 1188ERGO    R216499   7.328  16.019   6.845 -0.1050 -0.0639  0.1281
 1188ERGO    R316500   7.180  15.943   7.060 -0.1927  0.1577  0.1491
 1188ERGO    R416501   7.451  15.986   7.166 -0.0629 -0.3921  0.0818
 1188ERGO    R516502   7.329  15.806   7.188 -0.4096 -0.1723  0.0639
 1188ERGO    C116503   7.383  15.895   7.555 -0.1208 -0.3753  0.0746
 1188ERGO    C216504   7.389  16.039   7.793 -0.3662  0.0552 -0.1496
 1189ERGO   ROH16505   5.924  11.965   6.691  0.0868  0.0049 -0.0865
 1189ERGO    R116506   5.884  11.843   6.943 -0.2172  0.0195 -0.1255
 1189ERGO    R216507   6.085  11.818   7.131 -0.2915 -0.4642 -0.1013
 1189ERGO    R316508   5.905  11.943   7.292 -0.0554 -0.1173 -0.0940
 1189ERGO    R416509   6.067  11.778   7.473 -0.4097 -0.5105 -0.1116
 1189ERGO    R516510   5.850  11.778   7.457 -0.4211 -0.0493 -0.1375
 1189ERGO    C116511   5.888  11.872   7.825 -0.2569 -0.2117 -0.1109
 1189ERGO    C216512   5.926  11.666   8.068 -0.0391 -0.0178 -0.3502
 1190ERGO   ROH16513  10.592  17.187   6.742 -0.2918  0.0240  0.1118
 1190ERGO    R116514  10.723  17.258   6.983 -0.0382 -0.1197  0.0210
 1190ERGO    R216515  10.590  17.377   7.194  0.2536  0.0800  0.0981
 1190ERGO    R316516  10.695  17.169   7.334  0.0733 -0.0462  0.0488
 1190ERGO    R416517  10.625  17.368   7.538  0.2262 -0.0387  0.0975
 1190ERGO    R516518  10.819  17.273   7.511  0.1503 -0.1945  0.0835
 1190ERGO    C116519  10.744  17.167   7.870  0.0410 -0.2263  0.0508
 1190ERGO    C216520  10.774  17.287   8.207  0.1218  0.0981 -0.3630
 1191ERGO   ROH16521   0.231   2.645   6.741 -0.2967 -0.1887  0.1547
 1191ERGO    R116522   0.415   2.601   6.952 -0.1362 -0.0380  0.0482
 1191ERGO    R216523   0.355   2.654   7.216 -0.0066 -0.0377  0.0760
 1191ERGO    R316524   0.430   2.395   7.252  0.1848  0.0152  0.0738
 1191ERGO    R416525   0.426   2.509   7.521 -0.0615 -0.0257  0.0949
 1191ERGO    R516526   0.592   2.403   7.427  0.0813  0.1224  0.1688
 1191ERGO    C116527   0.538   2.181   7.733  0.0862  0.0308  0.1039
 1191ERGO    C216528   0.414   1.888   7.978  0.1576  0.1072  0.0754
 1192ERGO   ROH16529   9.391  11.319   6.848 -0.0677 -0.1068 -0.1422
 1192ERGO    R116530   9.334  11.316   7.126  0.1012 -0.0951 -0.1060
 1192ERGO    R216531   9.089  11.392   7.228  0.2230  0.0958  0.0572
 1192ERGO    R316532   9.097  11.148   7.346  0.0955  0.0710  0.0153
 1192ERGO    R416533   8.949  11.318   7.535  0.1182  0.0850  0.0071
 1192ERGO    R516534   9.125  11.196   7.579  0.0546  0.0099  0.0295
 1192ERGO    C116535   8.874  11.045   7.824 -0.0625  0.0554 -0.0613
 1192ERGO    C216536   8.538  11.112   7.956  0.1964  0.1390  0.1533
 1193ERGO   ROH16537   7.084   2.127   6.502 -0.1849  0.2907  0.0409
 1193ERGO    R116538   7.127   2.144   6.781 -0.0344  0.2505  0.0204
 1193ERGO    R216539   7.258   2.356   6.900 -0.2111  0.3672  0.0054
 1193ERGO    R316540   7.033   2.369   7.051 -0.1381  0.0553  0.1512
 1193ERGO    R416541   7.242   2.489   7.218 -0.1640  0.2344  0.0645
 1193ERGO    R516542   7.109   2.326   7.274  0.0527  0.0576  0.0907
 1193ERGO    C116543   7.021   2.580   7.546 -0.0679 -0.1358  0.2359
 1193ERGO    C216544   6.791   2.631   7.891 -0.1469 -0.0125  0.1891
 1194ERGO   ROH16545  16.875  13.944   8.219 -0.0032 -0.3326 -0.2934
 1194ERGO    R116546  16.756  13.807   8.437  0.1627 -0.3632 -0.2187
 1194ERGO    R216547  16.894  13.626   8.593  0.4200 -0.0397 -0.0509
 1194ERGO    R316548  16.808  13.785   8.796  0.1280 -0.0140 -0.1893
 1194ERGO    R416549  16.880  13.532   8.925  0.1059  0.0656 -0.0311
 1194ERGO    R516550  16.690  13.637   8.942  0.0398 -0.0172 -0.2675
 1194ERGO    C116551  16.793  13.627   9.310 -0.3510  0.1510 -0.1495
 1194ERGO    C216552  16.757  13.601   9.684  0.2614 -0.0061  0.0913
 1195ERGO   ROH16553  14.840   5.342   6.418  0.1044  0.0462  0.0410
 1195ERGO    R116554  14.697   5.476   6.623  0.0982  0.1044  0.0015
 1195ERGO    R216555  14.525   5.344   6.795  0.0327  0.1616 -0.0066
 1195ERGO    R316556  14.679   5.460   6.986  0.0342  0.1469 -0.0017
 1195ERGO    R416557  14.420   5.417   7.116  0.0645  0.0944  0.0174
 1195ERGO    R516558  14.529   5.605   7.103  0.0353  0.1044  0.0409
 1195ERGO    C116559  14.504   5.569   7.482  0.0844  0.0414  0.0359
 1195ERGO    C216560  14.450   5.856   7.767  0.0422  0.1729 -0.2961
 1196ERGO   ROH16561   3.743  10.090   7.091 -0.2287 -0.2194 -0.0505
 1196ERGO    R116562   3.719   9.967   7.344 -0.3173 -0.2124 -0.0546
 1196ERGO    R216563   3.860  10.054   7.566 -0.1234 -0.4263 -0.0882
 1196ERGO    R316564   3.613  10.068   7.678 -0.0732 -0.0942 -0.0105
 1196ERGO    R416565   3.795  10.034   7.905 -0.0419 -0.2882 -0.0643
 1196ERGO    R516566   3.620   9.912   7.859 -0.2136 -0.0758  0.0114
 1196ERGO    C116567   3.525  10.035   8.207  0.0527  0.1039  0.0225
 1196ERGO    C216568   3.314  10.022   8.469 -0.0885 -0.3006 -0.0427
 1197ERGO   ROH16569  15.635   5.870   6.392  0.0847  0.0125 -0.0094
 1197ERGO    R116570  15.561   5.751   6.638  0.1866 -0.1329 -0.0478
 1197ERGO    R216571  15.746   5.651   6.817  0.2903  0.1578  0.0124
 1197ERGO    R316572  15.619   5.816   6.992 -0.0529 -0.0622 -0.0188
 1197ERGO    R416573  15.741   5.609   7.160  0.1740  0.0827  0.0023
 1197ERGO    R516574  15.532   5.669   7.159  0.0777 -0.2310 -0.0939
 1197ERGO    C116575  15.620   5.740   7.524 -0.2159 -0.1676 -0.0329
 1197ERGO    C216576  15.812   5.590   7.859 -0.0252  0.1812 -0.1826
 1198ERGO   ROH16577   7.520   4.634   6.792 -0.3514 -0.0929  0.1803
 1198ERGO    R116578   7.660   4.794   6.979 -0.0567 -0.0591 -0.0607
 1198ERGO    R216579   7.587   4.810   7.245  0.0779  0.3383 -0.0413
 1198ERGO    R316580   7.846   4.739   7.287  0.0076  0.0446 -0.0801
 1198ERGO    R416581   7.744   4.808   7.553  0.1313  0.1932 -0.0684
 1198ERGO    R516582   7.922   4.889   7.457  0.2107 -0.0206 -0.1098
 1198ERGO    C116583   8.079   4.741   7.771  0.0964 -0.1670 -0.1207
 1198ERGO    C216584   8.093   4.788   8.110  0.1269  0.1911  0.1071
 1199ERGO   ROH16585   2.187   4.960   6.555  0.1687 -0.0672 -0.0551
 1199ERGO    R116586   2.336   5.054   6.776  0.0458 -0.0058  0.0023
 1199ERGO    R216587   2.220   5.188   6.988 -0.0992 -0.1064 -0.0141
 1199ERGO    R316588   2.343   4.995   7.135 -0.0237 -0.0508 -0.0030
 1199ERGO    R416589   2.241   5.186   7.333 -0.2233 -0.1485 -0.0062
 1199ERGO    R516590   2.446   5.115   7.315 -0.1671 -0.0102  0.0550
 1199ERGO    C116591   2.368   5.003   7.672 -0.2248 -0.1208  0.0089
 1199ERGO    C216592   2.284   4.960   7.913  0.0581  0.0578  0.2899
 1200ERGO   ROH16593  11.707  11.811   6.604  0.4387 -0.1319 -0.0131
 1200ERGO    R116594  11.741  11.668   6.846  0.2903 -0.0755  0.0417
 1200ERGO    R216595  11.691  11.780   7.094  0.1495 -0.0147 -0.0166
 1200ERGO    R316596  11.530  11.563   7.124  0.1230 -0.0013 -0.0551
 1200ERGO    R416597  11.647  11.605   7.389  0.0603 -0.0050 -0.0229
 1200ERGO    R516598  11.650  11.420   7.274  0.0749 -0.0091 -0.0207
 1200ERGO    C116599  11.471  11.299   7.588 -0.0166  0.0133 -0.0627
 1200ERGO    C216600  11.544  11.143   7.885 -0.0275 -0.1239  0.3779
 1201ERGO   ROH16601  12.124   1.154  10.373  0.0449  0.0424  0.1421
 1201ERGO    R116602  11.996   1.146  10.121  0.0341  0.0954  0.1458
 1201ERGO    R216603  12.123   1.216   9.886  0.0639  0.0174  0.1389
 1201ERGO    R316604  12.041   0.970   9.806 -0.0651  0.0554  0.1530
 1201ERGO    R416605  12.096   1.115   9.557 -0.0630  0.0419  0.1418
 1201ERGO    R516606  11.911   1.012   9.609 -0.0970  0.1207  0.1866
 1201ERGO    C116607  12.003   0.825   9.289 -0.2580  0.0919  0.1568
 1201ERGO    C216608  12.128   0.658   9.041  0.1860 -0.1003  0.3946
 1202ERGO   ROH16609   7.713   8.229   6.578  0.0129 -0.0914  0.0021
 1202ERGO    R116610   7.786   8.442   6.750 -0.0020 -0.0873  0.0022
 1202ERGO    R216611   7.776   8.420   7.025  0.1588 -0.1458  0.0012
 1202ERGO    R316612   8.036   8.498   7.009  0.1112 -0.0066 -0.1218
 1202ERGO    R416613   7.976   8.496   7.296  0.2493 -0.0688 -0.0860
 1202ERGO    R516614   8.059   8.662   7.182  0.1063 -0.0096 -0.1140
 1202ERGO    C116615   8.337   8.614   7.439  0.2575  0.1067 -0.2523
 1202ERGO    C216616   8.606   8.650   7.705 -0.0766 -0.3133 -0.4150
 1203ERGO   ROH16617  17.320  15.596   6.586  0.1542  0.0599  0.0942
 1203ERGO    R116618  17.430  15.416   6.775  0.2316  0.0994  0.0866
 1203ERGO    R216619  17.647  15.479   6.933  0.0646  0.2703  0.2467
 1203ERGO    R316620  17.480  15.408   7.135  0.0153  0.0042  0.1176
 1203ERGO    R416621  17.738  15.458   7.265 -0.0981  0.1984  0.2881
 1203ERGO    R516622  17.617  15.278   7.282  0.0665  0.0649  0.1291
 1203ERGO    C116623  17.635  15.379   7.649 -0.2390 -0.0931  0.1911
 1203ERGO    C216624  17.614  15.550   7.842 -0.0786  0.0987  0.0023
 1204ERGO   ROH16625   5.506  13.311   6.633 -0.0610 -0.0948 -0.0839
 1204ERGO    R116626   5.370  13.290   6.880  0.0778 -0.1228 -0.0089
 1204ERGO    R216627   5.491  13.345   7.123  0.1358  0.1265 -0.0927
 1204ERGO    R316628   5.281  13.514   7.153 -0.0352 -0.0844 -0.0762
 1204ERGO    R416629   5.404  13.501   7.418  0.2000  0.2873 -0.1574
 1204ERGO    R516630   5.195  13.464   7.371  0.1976  0.0051  0.0409
 1204ERGO    C116631   5.155  13.751   7.619  0.0769  0.1831 -0.1796
 1204ERGO    C216632   5.199  13.935   7.810  0.0141 -0.2872  0.2322
 1205ERGO   ROH16633   5.611  12.880   6.903  0.2695 -0.0327 -0.0048
 1205ERGO    R116634   5.544  12.923   7.174  0.2176  0.1586 -0.0479
 1205ERGO    R216635   5.582  12.732   7.369 -0.0409  0.2108  0.0502
 1205ERGO    R316636   5.721  12.931   7.492  0.1136  0.1298  0.0128
 1205ERGO    R416637   5.557  12.812   7.705 -0.0815  0.3657  0.0118
 1205ERGO    R516638   5.565  13.023   7.650  0.1411  0.3435 -0.0747
 1205ERGO    C116639   5.672  13.046   8.015  0.0399  0.3797 -0.0458
 1205ERGO    C216640   5.855  13.348   8.311  0.2197 -0.1428 -0.1910
 1206ERGO   ROH16641  13.233  17.136   6.939  0.0068 -0.2703  0.0004
 1206ERGO    R116642  13.188  17.039   7.201 -0.1079 -0.0700  0.0561
 1206ERGO    R216643  13.363  17.088   7.409 -0.1402 -0.0131  0.0644
 1206ERGO    R316644  13.140  17.184   7.531 -0.1250  0.1779 -0.0509
 1206ERGO    R416645  13.355  17.222   7.727 -0.2063 -0.1554  0.1245
 1206ERGO    R516646  13.166  17.119   7.761 -0.3533  0.0346 -0.0582
 1206ERGO    C116647  13.141  17.391   8.028 -0.2303 -0.0590  0.0512
 1206ERGO    C216648  13.125  17.638   8.313  0.3387  0.2476  0.1180
 1207ERGO   ROH16649  11.146  14.778   7.031 -0.1727 -0.1036 -0.1773
 1207ERGO    R116650  11.125  14.500   7.084 -0.0343 -0.1135 -0.1621
 1207ERGO    R216651  11.310  14.316   6.993  0.0833 -0.0266 -0.1200
 1207ERGO    R316652  11.323  14.248   7.256  0.0742  0.0071 -0.1121
 1207ERGO    R416653  11.453  14.027   7.116 -0.0623 -0.0813 -0.0804
 1207ERGO    R516654  11.289  14.011   7.258 -0.0511  0.0297 -0.0648
 1207ERGO    C116655  11.548  13.794   7.435 -0.1557 -0.0814 -0.0499
 1207ERGO    C216656  11.664  13.659   7.816  0.0472  0.3243  0.2315
 1208ERGO   ROH16657   4.128   1.999   8.331 -0.0576 -0.3352 -0.0237
 1208ERGO    R116658   4.142   1.830   8.558  0.2440 -0.2475  0.0282
 1208ERGO    R216659   4.340   1.853   8.749  0.1071  0.2911  0.1232
 1208ERGO    R316660   4.129   1.871   8.919 -0.0333 -0.1728  0.0120
 1208ERGO    R416661   4.359   1.827   9.093  0.0076  0.4568  0.1420
 1208ERGO    R516662   4.175   1.711   9.090  0.2851 -0.0076  0.0883
 1208ERGO    C116663   4.171   1.829   9.453 -0.1821  0.1177  0.0486
 1208ERGO    C216664   4.065   1.928   9.749  0.0850  0.1168 -0.0120
 1209ERGO   ROH16665  13.055  10.036   6.462 -0.0183 -0.0330  0.1105
 1209ERGO    R116666  12.999  10.026   6.739  0.0362 -0.0500  0.1210
 1209ERGO    R216667  12.842   9.829   6.852  0.0326 -0.0384  0.1352
 1209ERGO    R316668  13.059   9.793   7.012  0.0596 -0.0820  0.0889
 1209ERGO    R416669  12.832   9.705   7.175  0.0440  0.1921  0.2259
 1209ERGO    R516670  12.982   9.852   7.231  0.1696  0.1266  0.0748
 1209ERGO    C116671  13.030   9.599   7.513  0.0761  0.2855  0.2353
 1209ERGO    C216672  12.989   9.433   7.728  0.2294  0.1003 -0.1763
 1210ERGO   ROH16673   0.603  15.015   6.635 -0.0509  0.1577  0.0674
 1210ERGO    R116674   0.698  14.899   6.875 -0.1358  0.0338  0.0417
 1210ERGO    R216675   0.846  15.040   7.060  0.0843 -0.1505  0.0110
 1210ERGO    R316676   0.653  14.954   7.232  0.0167  0.0817  0.0541
 1210ERGO    R416677   0.861  15.071   7.404  0.3445 -0.4346  0.0301
 1210ERGO    R516678   0.775  14.871   7.421 -0.0254 -0.2934 -0.0765
 1210ERGO    C116679   0.688  15.009   7.765  0.4326 -0.3822  0.0816
 1210ERGO    C216680   0.604  15.032   8.092 -0.1409  0.0436 -0.1201
 1211ERGO   ROH16681  12.262  14.724   6.637 -0.0510  0.1070 -0.0624
 1211ERGO    R116682  12.254  14.680   6.917 -0.0444 -0.0571 -0.0868
 1211ERGO    R216683  12.253  14.887   7.101  0.1693 -0.1618  0.0377
 1211ERGO    R316684  12.030  14.761   7.191  0.0672 -0.0225 -0.0030
 1211ERGO    R416685  12.159  14.865   7.432  0.0891 -0.0943  0.0201
 1211ERGO    R516686  12.098  14.659   7.397 -0.0348 -0.0622  0.0140
 1211ERGO    C116687  11.895  14.735   7.711 -0.0536  0.0758 -0.0284
 1211ERGO    C216688  11.751  14.579   7.917 -0.1153 -0.1850  0.1477
 1212ERGO   ROH16689   7.605   7.130   6.283 -0.1172  0.0403  0.0425
 1212ERGO    R116690   7.563   7.140   6.563 -0.0891  0.0725  0.0466
 1212ERGO    R216691   7.689   6.969   6.739 -0.1783 -0.0057  0.0443
 1212ERGO    R316692   7.766   7.200   6.858 -0.0252 -0.0466  0.0254
 1212ERGO    R416693   7.720   7.015   7.080 -0.1448  0.0143  0.0379
 1212ERGO    R516694   7.632   7.212   7.057 -0.0113  0.0649  0.0225
 1212ERGO    C116695   7.810   7.259   7.391  0.0184 -0.0125  0.0165
 1212ERGO    C216696   8.058   7.373   7.652 -0.3478  0.0001  0.2162
 1213ERGO   ROH16697   3.151   8.057   6.774  0.0127  0.1954 -0.1132
 1213ERGO    R116698   3.139   8.151   7.041  0.0395  0.1568 -0.0976
 1213ERGO    R216699   3.049   7.994   7.250  0.0304  0.1350 -0.1135
 1213ERGO    R316700   3.288   8.060   7.360  0.0465  0.0876 -0.1214
 1213ERGO    R416701   3.123   7.978   7.587  0.0749  0.0317 -0.1284
 1213ERGO    R516702   3.231   8.165   7.568  0.0817  0.0279 -0.0844
 1213ERGO    C116703   3.390   8.031   7.887  0.1159 -0.0729 -0.1444
 1213ERGO    C216704   3.502   7.881   8.239  0.0644 -0.0456 -0.0802
 1214ERGO   ROH16705  17.771  11.119   6.899  0.1064 -0.0495 -0.2513
 1214ERGO    R116706  17.696  11.333   7.069  0.0909 -0.0555 -0.2488
 1214ERGO    R216707  17.869  11.446   7.251  0.0531 -0.1128 -0.1696
 1214ERGO    R316708  17.802  11.676   7.124  0.1450 -0.0862 -0.1686
 1214ERGO    R416709  17.878  11.760   7.394 -0.2722 -0.1655 -0.0271
 1214ERGO    R516710  17.692  11.807   7.291 -0.1439 -0.1969 -0.2716
 1214ERGO    C116711  17.820  12.160   7.358 -0.3754 -0.1712  0.0569
 1214ERGO    C216712  17.805  12.414   7.587 -0.0306  0.1231 -0.2309
 1215ERGO   ROH16713   7.794   0.199   8.398  0.1677 -0.0094  0.0535
 1215ERGO    R116714   7.733   0.474   8.365  0.0569 -0.0188  0.1775
 1215ERGO    R216715   7.876   0.674   8.489  0.2691 -0.0020 -0.0938
 1215ERGO    R316716   7.902   0.769   8.235 -0.2379  0.0146 -0.1494
 1215ERGO    R416717   7.944   1.003   8.407  0.4696 -0.0620 -0.1776
 1215ERGO    R516718   7.801   0.986   8.243  0.0324  0.1412  0.1549
 1215ERGO    C116719   8.007   1.283   8.121  0.1104 -0.0814 -0.2785
 1215ERGO    C216720   8.203   1.590   8.131  0.3517 -0.1572  0.2477
 1216ERGO   ROH16721  16.002   3.625   6.480  0.1637 -0.2200  0.0303
 1216ERGO    R116722  16.106   3.502   6.713  0.1551 -0.1748  0.0592
 1216ERGO    R216723  16.149   3.640   6.948  0.1487 -0.1274  0.0361
 1216ERGO    R316724  15.994   3.443   7.054  0.1420 -0.1045  0.0666
 1216ERGO    R416725  16.144   3.552   7.282  0.1352 -0.0676  0.0509
 1216ERGO    R516726  16.133   3.343   7.222  0.1328 -0.0768  0.0889
 1216ERGO    C116727  15.996   3.316   7.577  0.1210 -0.0113  0.0881
 1216ERGO    C216728  16.007   3.367   7.920  0.3119 -0.1693  0.0843
 1217ERGO   ROH16729   6.890   7.995   7.016 -0.1983 -0.1309 -0.1115
 1217ERGO    R116730   7.011   7.939   7.266  0.0062 -0.1864 -0.2190
 1217ERGO    R216731   6.864   7.902   7.497  0.2021  0.0942 -0.0348
 1217ERGO    R316732   7.003   7.669   7.509 -0.0837 -0.0839 -0.1093
 1217ERGO    R416733   6.895   7.704   7.779  0.3863  0.2262  0.0387
 1217ERGO    R516734   7.104   7.670   7.727  0.2612 -0.0806 -0.2677
 1217ERGO    C116735   7.043   7.370   7.954  0.2251  0.1358  0.0116
 1217ERGO    C216736   6.860   7.272   8.354  0.3489 -0.0034 -0.2157
 1218ERGO   ROH16737   0.066  12.966   6.229 -0.2011  0.0039  0.0109
 1218ERGO    R116738   0.021  13.146   6.443 -0.0163 -0.0824  0.1245
 1218ERGO    R216739  -0.225  13.262   6.491  0.1248  0.2226  0.1316
 1218ERGO    R316740  -0.190  13.157   6.739 -0.0890 -0.0030  0.0702
 1218ERGO    R416741  -0.414  13.343   6.769  0.0422  0.1539  0.0958
 1218ERGO    R516742  -0.232  13.340   6.888 -0.0212 -0.0849  0.1920
 1218ERGO    C116743  -0.492  13.291   7.164 -0.2067 -0.0979  0.0172
 1218ERGO    C216744  -0.663  13.190   7.482  0.0383  0.0421  0.1362
 1219ERGO   ROH16745  16.766  16.265   6.801 -0.0697 -0.1526  0.0606
 1219ERGO    R116746  16.948  16.237   7.016 -0.0080  0.0403  0.0349
 1219ERGO    R216747  17.005  16.443   7.192 -0.2103  0.0980  0.0288
 1219ERGO    R316748  16.934  16.260   7.379  0.0181  0.0149  0.0389
 1219ERGO    R416749  17.141  16.421   7.508 -0.1744  0.2917  0.0289
 1219ERGO    R516750  17.139  16.204   7.489  0.0973  0.2793  0.0401
 1219ERGO    C116751  17.153  16.236   7.869  0.0608  0.3267  0.0385
 1219ERGO    C216752  17.120  16.359   8.113 -0.3112 -0.1130  0.0248
 1220ERGO   ROH16753  10.039   4.483   7.892  0.0354 -0.0774 -0.0549
 1220ERGO    R116754   9.796   4.625   7.926 -0.0062 -0.1603  0.0024
 1220ERGO    R216755   9.743   4.777   8.151  0.0798 -0.0119 -0.0729
 1220ERGO    R316756   9.697   4.973   7.968 -0.1305 -0.1711 -0.1945
 1220ERGO    R416757   9.549   5.058   8.205  0.1460  0.0378 -0.0954
 1220ERGO    R516758   9.469   5.037   8.004 -0.0886 -0.1389  0.0135
 1220ERGO    C116759   9.393   5.405   8.066 -0.0128 -0.0829 -0.2226
 1220ERGO    C216760   9.454   5.734   8.175 -0.0446  0.0281 -0.2623
 1221ERGO   ROH16761   0.780  17.089   6.607  0.0150  0.0637 -0.1736
 1221ERGO    R116762   0.998  17.211   6.740  0.0184  0.0459 -0.1638
 1221ERGO    R216763   0.974  17.452   6.873  0.0438  0.0717 -0.2099
 1221ERGO    R316764   1.077  17.311   7.081 -0.0108  0.0901 -0.1692
 1221ERGO    R416765   1.056  17.586   7.181  0.0740  0.1263 -0.2409
 1221ERGO    R516766   1.234  17.460   7.183  0.0349  0.0669 -0.2018
 1221ERGO    C116767   1.200  17.531   7.556  0.0404  0.1757 -0.2208
 1221ERGO    C216768   1.039  17.613   7.852 -0.0783  0.2526  0.1009
 1222ERGO   ROH16769  12.122  10.471   6.689  0.0109  0.2445  0.0159
 1222ERGO    R116770  12.183  10.538   6.957 -0.1378  0.0974  0.0895
 1222ERGO    R216771  12.005  10.500   7.165 -0.2248 -0.0946 -0.0149
 1222ERGO    R316772  12.213  10.362   7.274 -0.2290 -0.0943 -0.0076
 1222ERGO    R416773  12.032  10.415   7.499 -0.2406 -0.1105 -0.0180
 1222ERGO    R516774  12.244  10.463   7.489 -0.2435 -0.1056 -0.0020
 1222ERGO    C116775  12.242  10.237   7.796 -0.2536 -0.1195 -0.0128
 1222ERGO    C216776  12.263  10.121   8.109  0.0402  0.0694  0.2743
 1223ERGO   ROH16777  14.409  11.316   8.469 -0.0699 -0.0712  0.3563
 1223ERGO    R116778  14.164  11.175   8.454 -0.0614 -0.0681  0.1338
 1223ERGO    R216779  14.055  11.091   8.215  0.1448 -0.0554  0.0294
 1223ERGO    R316780  14.053  10.848   8.338  0.0376 -0.0602  0.0174
 1223ERGO    R416781  13.890  10.811   8.098  0.0363  0.0169  0.0106
 1223ERGO    R516782  13.831  10.765   8.303  0.0073  0.0318  0.0027
 1223ERGO    C116783  13.792  10.420   8.146 -0.1276  0.0545 -0.0118
 1223ERGO    C216784  13.691  10.122   8.266 -0.0940 -0.0492  0.1102
 1224ERGO   ROH16785   9.936  12.063   7.062 -0.2404  0.0403 -0.1144
 1224ERGO    R116786   9.767  12.039   7.288 -0.1397  0.0211 -0.0404
 1224ERGO    R216787   9.857  11.946   7.533  0.0038  0.1385 -0.0480
 1224ERGO    R316788   9.752  12.180   7.623 -0.0787  0.1122 -0.0756
 1224ERGO    R416789   9.781  12.014   7.863  0.1585  0.2182 -0.0276
 1224ERGO    R516790   9.600  12.114   7.796  0.0598  0.0876  0.0397
 1224ERGO    C116791   9.638  12.273   8.140  0.1712  0.2399 -0.0415
 1224ERGO    C216792   9.711  12.367   8.447  0.0729  0.1137  0.0537
 1225ERGO   ROH16793   6.434   2.879   6.703  0.0252 -0.1360 -0.0446
 1225ERGO    R116794   6.392   2.806   6.973  0.1670 -0.1815 -0.0334
 1225ERGO    R216795   6.599   2.784   7.155  0.2292  0.1538 -0.0524
 1225ERGO    R316796   6.448   2.958   7.299 -0.0298 -0.0638 -0.0533
 1225ERGO    R416797   6.656   2.869   7.485 -0.0140  0.0999  0.0047
 1225ERGO    R516798   6.441   2.864   7.519 -0.0242 -0.1508 -0.0917
 1225ERGO    C116799   6.547   3.082   7.812 -0.3988 -0.1357  0.0372
 1225ERGO    C216800   6.687   3.358   8.013  0.0201 -0.0763  0.0578
 1226ERGO   ROH16801   6.899  14.403   6.715  0.1301 -0.1841 -0.0795
 1226ERGO    R116802   7.025  14.317   6.953  0.1415 -0.1979 -0.0893
 1226ERGO    R216803   7.245  14.446   7.060  0.2296 -0.2788 -0.1591
 1226ERGO    R316804   7.090  14.457   7.283  0.2774 -0.1614 -0.1322
 1226ERGO    R416805   7.365  14.486   7.382  0.2877 -0.0902 -0.2035
 1226ERGO    R516806   7.217  14.341   7.449  0.3134 -0.0574 -0.0911
 1226ERGO    C116807   7.290  14.520   7.778  0.3662  0.1299 -0.2042
 1226ERGO    C216808   7.469  14.544   8.138  0.3248 -0.0894  0.0036
 1227ERGO   ROH16809  16.340   2.573   6.612 -0.1635 -0.0446  0.0542
 1227ERGO    R116810  16.510   2.420   6.780 -0.0801  0.0318  0.0376
 1227ERGO    R216811  16.759   2.508   6.858 -0.1628  0.1905  0.1012
 1227ERGO    R316812  16.662   2.459   7.108 -0.1604  0.0456  0.0759
 1227ERGO    R416813  16.954   2.434   7.134 -0.1263  0.3158  0.1111
 1227ERGO    R516814  16.804   2.286   7.193 -0.0029  0.1557  0.0567
 1227ERGO    C116815  16.976   2.344   7.529 -0.1026  0.2528  0.0931
 1227ERGO    C216816  17.012   2.419   7.897  0.1661 -0.2883 -0.3081
 1228ERGO   ROH16817  12.438   1.538   6.352  0.0297 -0.2098  0.1635
 1228ERGO    R116818  12.436   1.433   6.615  0.1699 -0.1605  0.1850
 1228ERGO    R216819  12.660   1.433   6.777  0.1839  0.1321  0.1694
 1228ERGO    R316820  12.494   1.561   6.951  0.0465 -0.0235  0.1556
 1228ERGO    R416821  12.742   1.517   7.102  0.1013  0.2661  0.1567
 1228ERGO    R516822  12.540   1.459   7.163  0.1634  0.0538  0.1688
 1228ERGO    C116823  12.634   1.686   7.455 -0.0759  0.1981  0.1363
 1228ERGO    C216824  12.737   1.612   7.778  0.1226  0.0971  0.2279
 1229ERGO   ROH16825  14.238   1.538   6.710 -0.0441  0.1306 -0.0403
 1229ERGO    R116826  14.220   1.684   6.951  0.1102  0.1150 -0.0196
 1229ERGO    R216827  14.067   1.600   7.165  0.0642  0.2201 -0.0182
 1229ERGO    R316828  14.300   1.627   7.302  0.1017  0.0035 -0.0337
 1229ERGO    R416829  14.091   1.698   7.495  0.1649  0.1585 -0.0060
 1229ERGO    R516830  14.265   1.818   7.441  0.2694  0.0217 -0.0063
 1229ERGO    C116831  14.325   1.781   7.816  0.2588 -0.0807 -0.0134
 1229ERGO    C216832  14.110   1.769   8.113 -0.0691  0.2813  0.4589
 1230ERGO   ROH16833  13.119   0.862   8.678 -0.0421 -0.0858  0.0875
 1230ERGO    R116834  13.317   0.982   8.841  0.0288 -0.1001  0.0133
 1230ERGO    R216835  13.275   1.221   8.973  0.1532 -0.0126 -0.0984
 1230ERGO    R316836  13.350   1.075   9.191  0.0992  0.0552 -0.0345
 1230ERGO    R416837  13.388   1.355   9.271  0.1505  0.0730 -0.1357
 1230ERGO    R516838  13.536   1.195   9.281  0.1137  0.0470 -0.0589
 1230ERGO    C116839  13.524   1.297   9.649  0.0980  0.1864 -0.0975
 1230ERGO    C216840  13.583   1.300  10.057 -0.1229  0.1724  0.2053
 1231ERGO   ROH16841   5.713  17.312   6.528  0.0604 -0.1604 -0.0107
 1231ERGO    R116842   5.714  17.546   6.687  0.0683 -0.1709  0.0050
 1231ERGO    R216843   5.482  17.678   6.758  0.0803 -0.0904 -0.1002
 1231ERGO    R316844   5.580  17.648   7.010 -0.0538 -0.1444 -0.0539
 1231ERGO    R416845   5.366  17.847   7.037  0.1709  0.1175 -0.1860
 1231ERGO    R516846   5.572  17.868   7.103  0.1714 -0.1110 -0.1119
 1231ERGO    C116847   5.390  17.916   7.435  0.0978  0.1881 -0.1924
 1231ERGO    C216848   5.146  17.961   7.650 -0.2070  0.2160  0.0306
 1232ERGO   ROH16849   1.641  14.316   6.684 -0.2415  0.1377 -0.0578
 1232ERGO    R116850   1.730  14.306   6.953 -0.1772  0.0700 -0.0814
 1232ERGO    R216851   1.711  14.522   7.124 -0.0082  0.0701 -0.0634
 1232ERGO    R316852   1.580  14.344   7.282 -0.0693  0.1359 -0.0392
 1232ERGO    R416853   1.746  14.500   7.467 -0.0000  0.0941 -0.0626
 1232ERGO    R516854   1.741  14.283   7.449 -0.0835  0.0925 -0.0401
 1232ERGO    C116855   1.642  14.321   7.816 -0.0527  0.1699 -0.0394
 1232ERGO    C216856   1.594  14.272   8.095 -0.1016  0.1449 -0.0428
 1233ERGO   ROH16857   8.372  16.865   8.377 -0.1491 -0.0454  0.0547
 1233ERGO    R116858   8.479  16.618   8.290 -0.1211 -0.0223  0.0229
 1233ERGO    R216859   8.750  16.579   8.251 -0.1245  0.0412 -0.0736
 1233ERGO    R316860   8.712  16.370   8.420 -0.0145  0.0368 -0.0531
 1233ERGO    R416861   8.972  16.317   8.296 -0.0163  0.1288 -0.0929
 1233ERGO    R516862   8.802  16.181   8.304  0.0382  0.0640 -0.0548
 1233ERGO    C116863   9.065  15.969   8.482  0.1500  0.1760 -0.0850
 1233ERGO    C216864   9.356  15.666   8.430  0.0475  0.0286 -0.1648
 1234ERGO   ROH16865   1.663  10.651   6.616 -0.0215  0.2769 -0.0108
 1234ERGO    R116866   1.723  10.455   6.810 -0.1652  0.1174 -0.1237
 1234ERGO    R216867   1.850  10.515   7.048  0.0614 -0.1437 -0.1737
 1234ERGO    R316868   1.635  10.391   7.158 -0.0424  0.1012 -0.0949
 1234ERGO    R416869   1.856  10.334   7.342  0.0186 -0.3308 -0.2864
 1234ERGO    R516870   1.723  10.188   7.249 -0.2650 -0.0870 -0.2828
 1234ERGO    C116871   1.657  10.113   7.617 -0.1037 -0.2099 -0.2780
 1234ERGO    C216872   1.760  10.074   8.003 -0.2022 -0.1116 -0.2773
 1235ERGO   ROH16873   4.825  16.388   6.872  0.1327 -0.0214 -0.1343
 1235ERGO    R116874   4.904  16.306   7.132  0.0491  0.0624 -0.0805
 1235ERGO    R216875   4.839  16.448   7.359 -0.0697  0.1111 -0.1386
 1235ERGO    R316876   4.738  16.209   7.440 -0.0542  0.1113 -0.1221
 1235ERGO    R416877   4.823  16.341   7.688 -0.0214  0.1050 -0.1389
 1235ERGO    R516878   4.880  16.142   7.621 -0.0310  0.1101 -0.1456
 1235ERGO    C116879   4.719  16.055   7.955  0.0214  0.1016 -0.1236
 1235ERGO    C216880   4.662  15.816   8.133 -0.1270 -0.0008  0.0161
 1236ERGO   ROH16881  12.315   0.590   6.515 -0.2076 -0.2331  0.0469
 1236ERGO    R116882  12.306   0.496   6.782 -0.2247 -0.1006  0.0943
 1236ERGO    R216883  12.509   0.542   6.963 -0.1066 -0.2443  0.0064
 1236ERGO    R316884  12.307   0.644   7.115  0.0537  0.0559  0.0253
 1236ERGO    R416885  12.501   0.539   7.309 -0.0939 -0.2398  0.0065
 1236ERGO    R516886  12.288   0.491   7.299 -0.1668  0.0805  0.0208
 1236ERGO    C116887  12.307   0.633   7.652  0.0640  0.0446  0.0242
 1236ERGO    C216888  12.352   0.653   7.959  0.0731 -0.2068 -0.0344
 1237ERGO   ROH16889  13.137  12.653   6.678 -0.1178 -0.0414  0.0274
 1237ERGO    R116890  13.128  12.713   6.954 -0.2243 -0.2292  0.0670
 1237ERGO    R216891  13.156  12.520   7.149  0.0864 -0.3131 -0.0512
 1237ERGO    R316892  13.353  12.685   7.239 -0.1803 -0.0431  0.0511
 1237ERGO    R416893  13.300  12.503   7.463  0.1140 -0.2728 -0.0625
 1237ERGO    R516894  13.299  12.721   7.469 -0.2427 -0.2736  0.0736
 1237ERGO    C116895  13.569  12.649   7.730 -0.1204  0.0042  0.0268
 1237ERGO    C216896  13.641  12.576   8.140 -0.2178  0.0687  0.1073
 1238ERGO   ROH16897   6.340  13.627   6.859  0.0003 -0.1485  0.0036
 1238ERGO    R116898   6.431  13.712   7.113 -0.1620  0.1450 -0.0319
 1238ERGO    R216899   6.271  13.853   7.288 -0.4534 -0.1037 -0.0838
 1238ERGO    R316900   6.338  13.654   7.460 -0.0363  0.0939 -0.0075
 1238ERGO    R416901   6.192  13.848   7.625 -0.3501 -0.0988 -0.0600
 1238ERGO    R516902   6.391  13.767   7.664 -0.1866  0.2844 -0.0745
 1238ERGO    C116903   6.210  13.658   7.982  0.1016  0.0896  0.0255
 1238ERGO    C216904   6.215  13.677   8.379  0.2455 -0.0042  0.1135
 1239ERGO   ROH16905   5.657  10.786   6.666  0.1293 -0.0135  0.0424
 1239ERGO    R116906   5.561  10.743   6.929  0.2283 -0.0982  0.0662
 1239ERGO    R216907   5.714  10.623   7.126  0.3818  0.0300  0.0328
 1239ERGO    R316908   5.653  10.849   7.265  0.2208 -0.0187  0.0421
 1239ERGO    R416909   5.741  10.656   7.468  0.3106  0.0288  0.0382
 1239ERGO    R516910   5.554  10.768   7.468  0.2439 -0.0907  0.0210
 1239ERGO    C116911   5.700  10.887   7.799  0.1180 -0.0176  0.0501
 1239ERGO    C216912   5.759  11.170   7.914 -0.2454  0.2279  0.1216
 1240ERGO   ROH16913  16.337   7.032   6.615 -0.1064 -0.1811 -0.0711
 1240ERGO    R116914  16.299   6.957   6.885 -0.0665 -0.0888 -0.0398
 1240ERGO    R216915  16.505   6.859   7.042 -0.0814 -0.1932 -0.0885
 1240ERGO    R316916  16.429   7.060   7.209  0.1169 -0.1004 -0.1076
 1240ERGO    R416917  16.570   6.869   7.381 -0.2798 -0.3541 -0.0432
 1240ERGO    R516918  16.370   6.949   7.412 -0.1860 -0.0495 -0.1611
 1240ERGO    C116919  16.538   7.064   7.735 -0.2093 -0.3605 -0.0347
 1240ERGO    C216920  16.492   7.258   8.018  0.0338 -0.0153 -0.4846
 1241ERGO   ROH16921   5.093   8.643   6.935  0.1064  0.2154 -0.1397
 1241ERGO    R116922   4.986   8.689   7.193 -0.0818  0.3334 -0.2365
 1241ERGO    R216923   5.124   8.627   7.424 -0.4658 -0.0855 -0.1051
 1241ERGO    R316924   5.075   8.888   7.484  0.0466  0.0082 -0.0478
 1241ERGO    R416925   5.026   8.743   7.735 -0.3755  0.0182 -0.1148
 1241ERGO    R516926   4.889   8.880   7.635 -0.0501  0.3436 -0.1401
 1241ERGO    C116927   4.923   9.056   7.972  0.1580  0.1666 -0.0666
 1241ERGO    C216928   4.881   9.252   8.262  0.1146 -0.2352 -0.0049
 1242ERGO   ROH16929  17.064   5.262   6.589 -0.0575  0.1370 -0.0254
 1242ERGO    R116930  17.014   5.415   6.822 -0.1440  0.0904 -0.0136
 1242ERGO    R216931  16.763   5.438   6.934 -0.1373 -0.1538  0.0524
 1242ERGO    R316932  16.890   5.352   7.158  0.0066 -0.0291  0.0211
 1242ERGO    R416933  16.700   5.553   7.254 -0.1482 -0.1937  0.0654
 1242ERGO    R516934  16.914   5.549   7.293 -0.1306  0.0011  0.0040
 1242ERGO    C116935  16.783   5.539   7.651 -0.0195 -0.0998  0.0436
 1242ERGO    C216936  16.679   5.664   7.975 -0.0350  0.0290  0.2304
 1243ERGO   ROH16937  10.863   5.498   6.121 -0.2425 -0.2434 -0.0358
 1243ERGO    R116938  10.755   5.559   6.375 -0.0417 -0.2378  0.0501
 1243ERGO    R216939  10.488   5.617   6.414  0.0428  0.0828  0.2099
 1243ERGO    R316940  10.504   5.418   6.597 -0.1158 -0.0388  0.0943
 1243ERGO    R416941  10.376   5.638   6.740  0.1063 -0.0050  0.2372
 1243ERGO    R516942  10.554   5.529   6.803  0.0138 -0.2036  0.1526
 1243ERGO    C116943  10.327   5.463   7.103 -0.0055 -0.1703  0.1445
 1243ERGO    C216944  10.151   5.552   7.389 -0.1028  0.1881  0.0800
 1244ERGO   ROH16945  16.208  17.613   6.726  0.1525 -0.1109 -0.1199
 1244ERGO    R116946  16.311  17.453   6.936  0.1841 -0.0755 -0.1094
 1244ERGO    R216947  16.575  17.371   6.944  0.2477  0.1450 -0.0018
 1244ERGO    R316948  16.569  17.486   7.191  0.0333  0.0780  0.0272
 1244ERGO    R416949  16.777  17.279   7.209  0.1632  0.2036  0.0847
 1244ERGO    R516950  16.605  17.303   7.342  0.0683  0.0564 -0.0025
 1244ERGO    C116951  16.889  17.333   7.595 -0.0873  0.1749  0.1623
 1244ERGO    C216952  17.140  17.245   7.658  0.2168 -0.0580  0.0147
 1245ERGO   ROH16953  15.081   4.307   6.406 -0.1423 -0.1806 -0.0636
 1245ERGO    R116954  15.100   4.387   6.676  0.0949 -0.3027 -0.0413
 1245ERGO    R216955  14.893   4.513   6.809  0.3739  0.0664  0.0587
 1245ERGO    R316956  14.927   4.311   6.987  0.0289 -0.0662 -0.0179
 1245ERGO    R416957  14.837   4.538   7.149  0.3681  0.0203  0.0611
 1245ERGO    R516958  15.015   4.417   7.183  0.1773 -0.2824  0.0377
 1245ERGO    C116959  14.836   4.362   7.515  0.0408 -0.1310 -0.0094
 1245ERGO    C216960  14.613   4.333   7.763  0.0703  0.3709 -0.1458
 1246ERGO   ROH16961   8.641  12.386   6.775 -0.0198 -0.1143  0.1447
 1246ERGO    R116962   8.716  12.414   7.046  0.1883 -0.0192  0.0789
 1246ERGO    R216963   8.954  12.533   7.124  0.1079  0.2864 -0.1352
 1246ERGO    R316964   8.789  12.689   7.274  0.0396  0.0763  0.0138
 1246ERGO    R416965   9.044  12.692   7.417  0.2221  0.5108 -0.2884
 1246ERGO    R516966   8.849  12.640   7.500  0.3916  0.2297 -0.0381
 1246ERGO    C116967   8.941  12.931   7.729  0.2243  0.4443 -0.2377
 1246ERGO    C216968   8.896  12.995   8.050  0.0070  0.0841  0.1386
 1247ERGO   ROH16969   2.899   6.792   6.831  0.0005  0.1905  0.1301
 1247ERGO    R116970   2.842   6.623   7.050 -0.0819  0.1535  0.0822
 1247ERGO    R216971   3.039   6.486   7.189 -0.1469 -0.0215  0.0193
 1247ERGO    R316972   2.928   6.610   7.404 -0.0449 -0.0131  0.0660
 1247ERGO    R416973   3.020   6.351   7.506  0.1368  0.0659  0.0756
 1247ERGO    R516974   2.819   6.433   7.523  0.1188 -0.0202  0.1976
 1247ERGO    C116975   2.904   6.387   7.892  0.3978  0.1247  0.1522
 1247ERGO    C216976   2.904   6.235   8.144 -0.2095  0.1955 -0.3036
 1248ERGO   ROH16977   0.800   4.800   6.603 -0.0700 -0.2133  0.0319
 1248ERGO    R116978   0.710   4.835   6.869  0.1015 -0.0861  0.0737
 1248ERGO    R216979   0.664   4.623   7.039  0.0384 -0.0113  0.1449
 1248ERGO    R316980   0.835   4.758   7.202  0.2264 -0.1005  0.0254
 1248ERGO    R416981   0.674   4.593   7.383  0.0892  0.1642  0.1603
 1248ERGO    R516982   0.704   4.808   7.396  0.3233  0.1460  0.0335
 1248ERGO    C116983   0.840   4.701   7.737  0.2952  0.1827  0.0572
 1248ERGO    C216984   0.703   4.583   8.085 -0.1643 -0.1774  0.0623
 1249ERGO   ROH16985   4.504  17.489   6.701 -0.0739  0.1129  0.1239
 1249ERGO    R116986   4.418  17.364   6.939 -0.1034  0.0845  0.1001
 1249ERGO    R216987   4.560  17.380   7.175  0.0889 -0.2868  0.0251
 1249ERGO    R316988   4.323  17.470   7.274  0.2867  0.0163  0.2340
 1249ERGO    R416989   4.430  17.295   7.484  0.1158 -0.3336  0.0223
 1249ERGO    R516990   4.233  17.282   7.392  0.0430  0.0664  0.1218
 1249ERGO    C116991   4.132  17.329   7.757  0.3172 -0.0764  0.2168
 1249ERGO    C216992   3.989  17.299   8.014  0.2593  0.0077  0.0843
 1250ERGO   ROH16993   1.250   8.275   6.650  0.0238  0.0588 -0.0590
 1250ERGO    R116994   1.371   8.226   6.901  0.0294 -0.0230 -0.0776
 1250ERGO    R216995   1.434   8.428   7.078  0.0594 -0.0805 -0.0235
 1250ERGO    R316996   1.286   8.279   7.251  0.0530 -0.1103 -0.0589
 1250ERGO    R416997   1.475   8.425   7.421  0.1265 -0.2326 -0.0324
 1250ERGO    R516998   1.443   8.209   7.418  0.0666 -0.2220 -0.1171
 1250ERGO    C116999   1.360   8.283   7.783  0.1596 -0.3494 -0.0707
 1250ERGO    C217000   1.183   8.380   8.105  0.2376  0.0255  0.0852
 1251ERGO   ROH17001  13.772   4.393   6.151 -0.0574 -0.1392 -0.0109
 1251ERGO    R117002  13.704   4.553   6.374 -0.2760 -0.0164 -0.1595
 1251ERGO    R217003  13.453   4.550   6.489 -0.2072 -0.4652  0.0113
 1251ERGO    R317004  13.592   4.496   6.716  0.0884  0.1268 -0.0128
 1251ERGO    R417005  13.328   4.582   6.810 -0.1968 -0.7361  0.0438
 1251ERGO    R517006  13.521   4.664   6.871 -0.4362 -0.0285 -0.0724
 1251ERGO    C117007  13.387   4.551   7.210  0.0868 -0.3380  0.0401
 1251ERGO    C217008  13.261   4.485   7.462 -0.0622  0.4366  0.0980
 1252ERGO   ROH17009  11.630  16.796   6.538 -0.0061  0.3967 -0.1971
 1252ERGO    R117010  11.534  16.767   6.803 -0.0992  0.2912 -0.2407
 1252ERGO    R217011  11.696  16.690   7.013 -0.2054  0.0528 -0.2390
 1252ERGO    R317012  11.603  16.919   7.127 -0.0899  0.0443 -0.1264
 1252ERGO    R417013  11.714  16.763   7.350 -0.0171 -0.0385 -0.2279
 1252ERGO    R517014  11.513  16.847   7.337  0.0001  0.0139 -0.1008
 1252ERGO    C117015  11.637  17.020   7.654  0.2009 -0.0997 -0.1157
 1252ERGO    C217016  11.870  17.148   7.925  0.1188  0.0321  0.1589
 1253ERGO   ROH17017   2.112   3.684   6.571 -0.0755  0.0458 -0.0220
 1253ERGO    R117018   2.051   3.585   6.829 -0.0826 -0.0104 -0.0449
 1253ERGO    R217019   2.246   3.538   7.021 -0.0940  0.0039 -0.0288
 1253ERGO    R317020   2.088   3.700   7.173 -0.1496 -0.0571 -0.0218
 1253ERGO    R417021   2.239   3.540   7.366 -0.0357  0.0395 -0.0283
 1253ERGO    R517022   2.023   3.563   7.358 -0.0494 -0.0697  0.0051
 1253ERGO    C117023   2.088   3.693   7.710 -0.0539  0.0029 -0.0214
 1253ERGO    C217024   2.098   3.544   8.015  0.3972  0.0376  0.3026
 1254ERGO   ROH17025   9.790  14.203   7.031  0.0158  0.0345  0.0093
 1254ERGO    R117026   9.746  14.433   7.190 -0.0607  0.0938 -0.0961
 1254ERGO    R217027   9.501  14.491   7.305 -0.0636  0.0310 -0.0721
 1254ERGO    R317028   9.647  14.501   7.534 -0.0179  0.2174 -0.1078
 1254ERGO    R417029   9.395  14.634   7.600 -0.1652 -0.0818 -0.0530
 1254ERGO    R517030   9.595  14.715   7.628 -0.2531  0.1621 -0.1060
 1254ERGO    C117031   9.469  14.727   7.988 -0.1814  0.0275 -0.0753
 1254ERGO    C217032   9.391  14.769   8.395 -0.0715  0.0960  0.2573
 1255ERGO   ROH17033   4.625  16.084   6.508  0.2790 -0.0491 -0.0574
 1255ERGO    R117034   4.507  15.992   6.748  0.2340  0.0948 -0.0243
 1255ERGO    R217035   4.586  15.759   6.873  0.1079  0.0935  0.0489
 1255ERGO    R317036   4.619  15.923   7.087  0.2025  0.1444 -0.0030
 1255ERGO    R417037   4.668  15.653   7.192  0.1436  0.1538  0.0604
 1255ERGO    R517038   4.527  15.800   7.271  0.2024  0.2202  0.0508
 1255ERGO    C117039   4.747  15.746   7.579  0.2534  0.2369  0.0184
 1255ERGO    C217040   4.863  15.523   7.756 -0.0537 -0.0339  0.0553
 1256ERGO   ROH17041  10.502   4.538   6.326  0.0777  0.1743  0.1248
 1256ERGO    R117042  10.670   4.511   6.552  0.0662  0.4438  0.1669
 1256ERGO    R217043  10.615   4.636   6.793 -0.3593  0.1314  0.2403
 1256ERGO    R317044  10.637   4.384   6.892  0.2635  0.0994  0.0624
 1256ERGO    R417045  10.665   4.558   7.126 -0.5316  0.0322  0.2446
 1256ERGO    R517046  10.804   4.402   7.063  0.0215  0.4699  0.2768
 1256ERGO    C117047  10.715   4.276   7.412 -0.0474 -0.0556  0.0802
 1256ERGO    C217048  10.861   4.155   7.694 -0.0943  0.0316 -0.1466
 1257ERGO   ROH17049   7.004   1.166   6.497 -0.0276  0.3957 -0.1143
 1257ERGO    R117050   7.062   1.128   6.772 -0.1990  0.1991 -0.1029
 1257ERGO    R217051   7.289   1.231   6.892 -0.1935 -0.0169  0.0798
 1257ERGO    R317052   7.108   1.340   7.064 -0.2156  0.0022  0.0447
 1257ERGO    R417053   7.362   1.346   7.210 -0.1764  0.2920 -0.0324
 1257ERGO    R517054   7.175   1.260   7.279 -0.0981  0.2217  0.0926
 1257ERGO    C117055   7.236   1.515   7.555 -0.1872  0.4898 -0.1308
 1257ERGO    C217056   7.139   1.581   7.839  0.1792 -0.0347 -0.4366
 1258ERGO   ROH17057   3.938   4.890   6.325  0.3100 -0.0120 -0.2283
 1258ERGO    R117058   4.124   4.867   6.538  0.1965 -0.1302 -0.1407
 1258ERGO    R217059   4.081   4.983   6.785  0.1846 -0.0446 -0.1829
 1258ERGO    R317060   4.123   4.731   6.875 -0.0728 -0.0656 -0.1124
 1258ERGO    R417061   4.063   4.886   7.116  0.3295  0.1219 -0.1245
 1258ERGO    R517062   4.238   4.760   7.083  0.1408 -0.1235 -0.2183
 1258ERGO    C117063   4.092   4.593   7.393  0.1722  0.1992 -0.0244
 1258ERGO    C217064   4.245   4.379   7.601  0.3665 -0.0366  0.0895
 1259ERGO   ROH17065  15.010  17.420  10.515 -0.1607  0.0346  0.0061
 1259ERGO    R117066  15.111  17.343  10.262  0.0671  0.2503  0.0292
 1259ERGO    R217067  14.956  17.215  10.072  0.4057 -0.1805  0.0368
 1259ERGO    R317068  15.039  17.420   9.914 -0.0967  0.0152  0.0067
 1259ERGO    R417069  14.928  17.224   9.727  0.2017 -0.2232  0.0505
 1259ERGO    R517070  15.126  17.313   9.718  0.0278  0.1956 -0.0461
 1259ERGO    C117071  14.989  17.422   9.379 -0.3886 -0.0640  0.0302
 1259ERGO    C217072  15.091  17.359   9.051  0.2650 -0.0761 -0.2991
 1260ERGO   ROH17073   4.938  10.023   6.922 -0.2153 -0.1748  0.1699
 1260ERGO    R117074   5.059   9.824   7.083 -0.1132 -0.1195  0.1623
 1260ERGO    R217075   5.331   9.818   7.134 -0.0854 -0.0884  0.0094
 1260ERGO    R317076   5.248   9.813   7.393  0.0646 -0.0170  0.0599
 1260ERGO    R417077   5.540   9.793   7.408  0.0655 -0.2792 -0.1202
 1260ERGO    R517078   5.396   9.659   7.500 -0.0046 -0.1546 -0.0346
 1260ERGO    C117079   5.585   9.775   7.811  0.2941 -0.3234 -0.1483
 1260ERGO    C217080   5.780   9.621   8.157 -0.4004  0.2171 -0.0543
 1261ERGO   ROH17081  14.258   8.142   6.401 -0.0687  0.0889  0.0397
 1261ERGO    R117082  14.403   8.152   6.644 -0.0330  0.1067  0.0182
 1261ERGO    R217083  14.618   8.322   6.682 -0.0236  0.1082 -0.0261
 1261ERGO    R317084  14.475   8.401   6.899  0.0068  0.1272 -0.0136
 1261ERGO    R417085  14.746   8.500   6.949  0.0172  0.1072 -0.0454
 1261ERGO    R517086  14.627   8.376   7.083  0.0229  0.1225 -0.0293
 1261ERGO    C117087  14.687   8.678   7.308  0.0696  0.1243 -0.0450
 1261ERGO    C217088  14.830   8.847   7.547 -0.0429  0.1390 -0.0315
 1262ERGO   ROH17089  15.380   9.535   6.656 -0.0507 -0.2825  0.0027
 1262ERGO    R117090  15.274   9.622   6.904 -0.1338 -0.1757 -0.0674
 1262ERGO    R217091  15.084   9.478   7.043 -0.1010 -0.1765 -0.0105
 1262ERGO    R317092  15.265   9.496   7.245 -0.1395  0.0249  0.0056
 1262ERGO    R417093  15.009   9.444   7.378 -0.1207 -0.0357 -0.0015
 1262ERGO    R517094  15.146   9.608   7.421 -0.2152  0.0542 -0.0699
 1262ERGO    C117095  15.134   9.442   7.764 -0.1686  0.2352  0.0190
 1262ERGO    C217096  14.952   9.408   8.065 -0.1789 -0.0150 -0.0702
 1263ERGO   ROH17097   2.351  15.144   6.613 -0.1645  0.3472  0.0163
 1263ERGO    R117098   2.414  15.247   6.869 -0.2519  0.1367  0.1236
 1263ERGO    R217099   2.371  15.105   7.102 -0.0086 -0.1975 -0.0344
 1263ERGO    R317100   2.634  15.157   7.144 -0.0649  0.1163 -0.0290
 1263ERGO    R417101   2.512  15.170   7.411  0.0032 -0.6732  0.0707
 1263ERGO    R517102   2.635  15.323   7.316 -0.2638 -0.2561  0.3565
 1263ERGO    C117103   2.842  15.257   7.630 -0.0428 -0.6558  0.1370
 1263ERGO    C217104   2.847  15.375   8.036  0.1656 -0.2081 -0.1213
 1264ERGO   ROH17105   1.616   6.608   6.761 -0.0147  0.1158  0.0746
 1264ERGO    R117106   1.617   6.574   7.042  0.0334  0.1526  0.0797
 1264ERGO    R217107   1.688   6.777   7.216 -0.1351  0.2417  0.0512
 1264ERGO    R317108   1.446   6.724   7.326 -0.0823  0.0389  0.0697
 1264ERGO    R417109   1.614   6.803   7.553 -0.1121  0.1036  0.0664
 1264ERGO    R517110   1.497   6.620   7.536  0.0182  0.0242  0.0366
 1264ERGO    C117111   1.343   6.767   7.852 -0.0491 -0.1670  0.0927
 1264ERGO    C217112   1.124   6.634   8.071 -0.1267  0.2815  0.0748
 1265ERGO   ROH17113  17.764   2.334   6.722 -0.4116  0.0072 -0.1435
 1265ERGO    R117114  17.871   2.326   6.984 -0.2887  0.2323 -0.1832
 1265ERGO    R217115  17.765   2.473   7.193 -0.4903  0.0577 -0.1524
 1265ERGO    R317116  17.753   2.230   7.315  0.0148  0.0347 -0.1300
 1265ERGO    R417117  17.808   2.418   7.532 -0.4988  0.1845 -0.1309
 1265ERGO    R517118  17.922   2.239   7.484 -0.0694  0.4343 -0.0644
 1265ERGO    C117119  17.822   2.159   7.843 -0.0295  0.2368 -0.0973
 1265ERGO    C217120  17.818   1.924   8.153  0.3277 -0.2920  0.2338
 1266ERGO   ROH17121   2.100  12.849   6.595  0.0396  0.1903 -0.0500
 1266ERGO    R117122   2.148  13.041   6.798 -0.0161  0.1763 -0.0234
 1266ERGO    R217123   1.972  13.247   6.852 -0.1463  0.0322  0.1032
 1266ERGO    R317124   1.985  13.148   7.105  0.0362 -0.0203  0.0749
 1266ERGO    R417125   1.986  13.439   7.139 -0.4224 -0.0177  0.1527
 1266ERGO    R517126   2.131  13.298   7.221 -0.1864  0.1853  0.0995
 1266ERGO    C117127   2.006  13.457   7.544 -0.4120 -0.0960  0.1550
 1266ERGO    C217128   2.063  13.576   7.925  0.2967  0.0798 -0.0493
 1267ERGO   ROH17129  17.124   7.492   6.214  0.1568 -0.0551  0.0592
 1267ERGO    R117130  17.118   7.387   6.477  0.1704 -0.0593  0.0584
 1267ERGO    R217131  17.317   7.222   6.576  0.2637  0.0741  0.1031
 1267ERGO    R317132  17.327   7.408   6.774  0.0930  0.0844  0.1029
 1267ERGO    R417133  17.389   7.156   6.907  0.2717  0.1384  0.1140
 1267ERGO    R517134  17.235   7.297   6.965  0.1549  0.0178  0.0918
 1267ERGO    C117135  17.441   7.291   7.286  0.1162  0.1854  0.1201
 1267ERGO    C217136  17.419   7.344   7.677 -0.0145 -0.1248  0.1852
 1268ERGO   ROH17137   7.417   5.060   6.765  0.1350 -0.0719 -0.1003
 1268ERGO    R117138   7.391   5.229   6.991  0.0457 -0.0410 -0.1331
 1268ERGO    R217139   7.276   5.144   7.228 -0.0451 -0.0097 -0.1654
 1268ERGO    R317140   7.510   5.230   7.335 -0.0871  0.0076 -0.0866
 1268ERGO    R417141   7.312   5.272   7.547 -0.1465 -0.0863 -0.1227
 1268ERGO    R517142   7.449   5.421   7.466 -0.1556 -0.0385 -0.0508
 1268ERGO    C117143   7.554   5.427   7.833 -0.2451 -0.1147 -0.0237
 1268ERGO    C217144   7.675   5.241   8.074 -0.0081 -0.0625 -0.0502
 1269ERGO   ROH17145  14.172   9.242   6.696 -0.2121 -0.2411  0.1366
 1269ERGO    R117146  14.167   9.366   6.951 -0.2054 -0.1531  0.0943
 1269ERGO    R217147  13.933   9.447   7.071 -0.2020 -0.1166  0.0742
 1269ERGO    R317148  14.023   9.293   7.277 -0.1919 -0.0431  0.1255
 1269ERGO    R417149  13.940   9.545   7.403 -0.1431  0.0228  0.0326
 1269ERGO    R517150  14.134   9.448   7.422 -0.1512  0.0056  0.0451
 1269ERGO    C117151  14.028   9.457   7.789 -0.0991  0.1730  0.0566
 1269ERGO    C217152  13.903   9.628   8.112  0.1217 -0.0579  0.1873
 1270ERGO   ROH17153   8.515  11.964   6.807  0.1796 -0.0661 -0.0376
 1270ERGO    R117154   8.460  12.018   7.080  0.1903 -0.0382 -0.0409
 1270ERGO    R217155   8.204  12.009   7.184  0.1834  0.0589 -0.0490
 1270ERGO    R317156   8.318  11.837   7.361  0.1143  0.0218 -0.0405
 1270ERGO    R417157   8.104  11.968   7.513  0.1632  0.1094 -0.0486
 1270ERGO    R517158   8.314  11.954   7.570  0.1565  0.0309 -0.0451
 1270ERGO    C117159   8.152  11.782   7.870  0.0866  0.1042 -0.0404
 1270ERGO    C217160   7.845  11.571   8.089  0.2096 -0.0791  0.2836
 1271ERGO   ROH17161  14.316  13.510   7.111  0.0588  0.2521 -0.0299
 1271ERGO    R117162  14.233  13.618   7.359  0.0560  0.1350  0.0214
 1271ERGO    R217163  14.176  13.461   7.579 -0.0674  0.0184 -0.0864
 1271ERGO    R317164  14.357  13.622   7.701 -0.0129 -0.1428  0.0502
 1271ERGO    R417165  14.170  13.549   7.913 -0.0518 -0.2057 -0.0250
 1271ERGO    R517166  14.228  13.751   7.856  0.0363 -0.1960  0.1270
 1271ERGO    C117167  14.336  13.752   8.222  0.0083 -0.4875  0.1389
 1271ERGO    C217168  14.511  13.754   8.539 -0.0324 -0.0017  0.1049
 1272ERGO   ROH17169   8.796  17.169   6.662  0.1774 -0.3936  0.1666
 1272ERGO    R117170   8.754  17.229   6.935 -0.0528 -0.2090  0.0942
 1272ERGO    R217171   8.536  17.135   7.077  0.0008 -0.3976  0.0621
 1272ERGO    R317172   8.727  17.042   7.246  0.0528  0.0221  0.2433
 1272ERGO    R417173   8.474  16.981   7.380  0.0686 -0.3860  0.0815
 1272ERGO    R517174   8.642  17.091   7.464 -0.1923 -0.0412  0.1603
 1272ERGO    C117175   8.617  16.805   7.716  0.1568  0.0147  0.2629
 1272ERGO    C217176   8.534  16.506   7.806 -0.0745 -0.2963  0.2403
 1273ERGO   ROH17177  12.047   1.821   6.612  0.0378 -0.2352  0.1811
 1273ERGO    R117178  12.115   1.987   6.832  0.1516 -0.1334  0.0718
 1273ERGO    R217179  12.000   1.957   7.081 -0.0161  0.2357  0.0491
 1273ERGO    R317180  12.259   1.940   7.163 -0.0734 -0.0470  0.1826
 1273ERGO    R417181  12.108   1.999   7.407 -0.1139  0.2819  0.0752
 1273ERGO    R517182  12.279   2.110   7.331  0.0629  0.0209  0.0945
 1273ERGO    C117183  12.414   2.008   7.673 -0.2247  0.0434  0.2158
 1273ERGO    C217184  12.506   1.983   8.012  0.0381 -0.0303  0.4239
 1274ERGO   ROH17185   9.015   0.878   6.726 -0.1518 -0.1292 -0.0609
 1274ERGO    R117186   9.137   0.763   6.954 -0.0094  0.0206 -0.0593
 1274ERGO    R217187   9.301   0.906   7.124 -0.0686  0.1866 -0.1408
 1274ERGO    R317188   9.128   0.817   7.314  0.0441  0.1132 -0.0715
 1274ERGO    R417189   9.339   0.954   7.464 -0.0881  0.4354 -0.1711
 1274ERGO    R517190   9.269   0.750   7.496  0.1349  0.3752 -0.0410
 1274ERGO    C117191   9.199   0.897   7.841  0.0063  0.5113 -0.1237
 1274ERGO    C217192   9.240   0.860   8.139 -0.0506 -0.2481 -0.1586
 1275ERGO   ROH17193   6.072   8.164   6.545  0.1523 -0.0261 -0.0031
 1275ERGO    R117194   5.902   8.087   6.758  0.1416 -0.0048 -0.0021
 1275ERGO    R217195   5.965   7.882   6.932  0.0858 -0.0617 -0.0372
 1275ERGO    R317196   5.922   8.073   7.121  0.1703 -0.0735 -0.0083
 1275ERGO    R417197   5.887   7.818   7.263  0.0785 -0.0655 -0.0408
 1275ERGO    R517198   5.745   7.984   7.256  0.1478 -0.0150 -0.0093
 1275ERGO    C117199   5.802   7.960   7.633  0.1536 -0.0787 -0.0157
 1275ERGO    C217200   5.886   8.026   7.897  0.2498  0.0809 -0.2440
 1276ERGO   ROH17201  13.563   0.821   6.498  0.1513 -0.0809 -0.0396
 1276ERGO    R117202  13.478   0.915   6.751  0.2350  0.0344 -0.0534
 1276ERGO    R217203  13.409   0.744   6.957 -0.0129  0.1257 -0.0597
 1276ERGO    R317204  13.594   0.887   7.095  0.1542 -0.1067 -0.0360
 1276ERGO    R417205  13.428   0.761   7.302 -0.1430  0.2245 -0.0566
 1276ERGO    R517206  13.474   0.974   7.284  0.1981  0.1544 -0.1214
 1276ERGO    C117207  13.613   0.906   7.632 -0.0618  0.0639 -0.0326
 1276ERGO    C217208  13.679   0.915   7.928 -0.0132  0.3988 -0.0745
 1277ERGO   ROH17209   0.454   5.675   6.893  0.0309 -0.0225  0.1626
 1277ERGO    R117210   0.530   5.786   7.142 -0.0880 -0.0375  0.2059
 1277ERGO    R217211   0.358   5.798   7.359 -0.1379 -0.2016  0.1752
 1277ERGO    R317212   0.562   5.669   7.485 -0.0804 -0.1050  0.1826
 1277ERGO    R417213   0.419   5.810   7.699 -0.0941 -0.0875  0.1637
 1277ERGO    R517214   0.632   5.822   7.655 -0.1027 -0.0347  0.1302
 1277ERGO    C117215   0.646   5.697   8.015 -0.0147  0.0698  0.1640
 1277ERGO    C217216   0.540   5.759   8.225 -0.2077  0.0676 -0.1706
 1278ERGO   ROH17217   6.320  11.550   6.557 -0.0372  0.0063  0.0090
 1278ERGO    R117218   6.304  11.602   6.835 -0.1342 -0.1726  0.0389
 1278ERGO    R217219   6.313  11.401   7.025  0.2054 -0.2706 -0.0690
 1278ERGO    R317220   6.516  11.550   7.126 -0.0464  0.0276  0.0114
 1278ERGO    R417221   6.454  11.358   7.338  0.3445 -0.2638 -0.1306
 1278ERGO    R517222   6.463  11.574   7.358 -0.0511 -0.2567  0.0415
 1278ERGO    C117223   6.726  11.473   7.615  0.1890  0.0200 -0.0909
 1278ERGO    C217224   6.972  11.343   7.794 -0.1468 -0.1438 -0.0980
 1279ERGO   ROH17225   2.115  13.724  10.284 -0.1315  0.0383  0.0075
 1279ERGO    R117226   2.167  13.655  10.015 -0.0743  0.1474 -0.0092
 1279ERGO    R217227   1.965  13.623   9.828 -0.0408  0.1051 -0.0321
 1279ERGO    R317228   2.111  13.805   9.688 -0.1202  0.2198  0.0302
 1279ERGO    R417229   2.000  13.625   9.484  0.1814  0.0640 -0.0123
 1279ERGO    R517230   2.210  13.677   9.511  0.1208  0.2726  0.1185
 1279ERGO    C117231   2.157  13.797   9.152  0.2363  0.1477  0.0577
 1279ERGO    C217232   2.115  13.756   8.740  0.0732  0.3455 -0.0581
 1280ERGO   ROH17233   7.026   9.163   6.531  0.1018  0.0089  0.0524
 1280ERGO    R117234   6.936   9.109   6.794  0.0660  0.0502  0.0484
 1280ERGO    R217235   7.062   8.928   6.960  0.0140  0.0414  0.0754
 1280ERGO    R317236   7.072   9.139   7.131  0.0387  0.0538  0.0596
 1280ERGO    R417237   7.137   8.906   7.297 -0.0091  0.0530  0.0817
 1280ERGO    R517238   6.981   9.053   7.336  0.0116  0.0828  0.0613
 1280ERGO    C117239   7.189   9.091   7.653  0.0006  0.0715  0.0705
 1280ERGO    C217240   7.391   9.155   7.810  0.5175  0.4113 -0.1521
 1281ERGO   ROH17241  14.566  16.213   7.190  0.0070  0.2351 -0.0232
 1281ERGO    R117242  14.726  16.043   7.350 -0.0875  0.1765  0.0100
 1281ERGO    R217243  14.998  16.017   7.313 -0.1189 -0.0759 -0.0652
 1281ERGO    R317244  15.008  16.082   7.577  0.0195  0.0492 -0.0992
 1281ERGO    R417245  15.265  15.952   7.523 -0.1470 -0.2919 -0.0941
 1281ERGO    R517246  15.123  15.898   7.679 -0.1787 -0.0402 -0.0327
 1281ERGO    C117247  15.429  15.975   7.893 -0.0334 -0.3002 -0.1430
 1281ERGO    C217248  15.600  15.989   8.066 -0.1176  0.0947 -0.0495
 1282ERGO   ROH17249  15.384   6.905   6.462 -0.0591  0.1621 -0.0134
 1282ERGO    R117250  15.384   6.722   6.677  0.0034  0.1076 -0.0583
 1282ERGO    R217251  15.478   6.788   6.929  0.0235  0.0632 -0.0505
 1282ERGO    R317252  15.233   6.702   7.008  0.0488 -0.0017 -0.0444
 1282ERGO    R417253  15.396   6.696   7.252  0.0092  0.2002 -0.0154
 1282ERGO    R517254  15.279   6.532   7.169  0.0954  0.1060  0.0546
 1282ERGO    C117255  15.118   6.563   7.514  0.0245  0.2191  0.0107
 1282ERGO    C217256  14.979   6.762   7.803 -0.1246 -0.1795  0.0485
 1283ERGO   ROH17257   4.630   1.887   6.700  0.2642  0.0958  0.0054
 1283ERGO    R117258   4.694   1.837   6.971  0.1910 -0.0170  0.0012
 1283ERGO    R217259   4.517   1.887   7.177  0.1185 -0.1500 -0.0328
 1283ERGO    R317260   4.566   1.626   7.238  0.1539 -0.1697 -0.1349
 1283ERGO    R417261   4.418   1.732   7.470  0.2581 -0.2477 -0.0345
 1283ERGO    R517262   4.611   1.629   7.474  0.2630 -0.2440 -0.1541
 1283ERGO    C117263   4.407   1.397   7.698  0.3726 -0.3230 -0.1314
 1283ERGO    C217264   4.254   1.086   7.931 -0.1844  0.1663  0.1408
 1284ERGO   ROH17265   5.755   9.206   6.701  0.0772 -0.1601 -0.0344
 1284ERGO    R117266   5.913   9.059   6.884  0.2370  0.0579  0.0097
 1284ERGO    R217267   6.078   9.181   7.070 -0.0050  0.2956  0.0863
 1284ERGO    R317268   5.938   9.029   7.246  0.1501  0.0687  0.0152
 1284ERGO    R417269   6.187   9.092   7.386  0.0961  0.2201  0.0290
 1284ERGO    R517270   6.103   8.894   7.354  0.2789  0.1629 -0.0710
 1284ERGO    C117271   6.118   8.898   7.735  0.3006 -0.0369 -0.0711
 1284ERGO    C217272   6.021   8.932   8.083 -0.0686  0.1412  0.2980
 1285ERGO   ROH17273  11.320   0.729   6.503 -0.1944 -0.1855 -0.0362
 1285ERGO    R117274  11.225   0.710   6.769 -0.1112 -0.1552 -0.0044
 1285ERGO    R217275  11.361   0.573   6.966  0.0108 -0.0323 -0.0028
 1285ERGO    R317276  11.342   0.809   7.099 -0.0669 -0.0030 -0.0647
 1285ERGO    R417277  11.392   0.612   7.308  0.0877  0.0804 -0.0218
 1285ERGO    R517278  11.229   0.755   7.302  0.0158 -0.0002 -0.0174
 1285ERGO    C117279  11.393   0.856   7.632  0.0597  0.1735 -0.0909
 1285ERGO    C217280  11.374   0.943   7.960 -0.3661  0.2573  0.0598
 1286ERGO   ROH17281   4.294   0.899   6.509 -0.0136  0.2334 -0.1060
 1286ERGO    R117282   4.128   1.001   6.714 -0.0742  0.1221 -0.0976
 1286ERGO    R217283   3.853   0.965   6.715 -0.0598 -0.0353 -0.1009
 1286ERGO    R317284   3.900   0.864   6.963  0.0036 -0.0316 -0.1123
 1286ERGO    R417285   3.609   0.898   6.950  0.0026 -0.0989 -0.0549
 1286ERGO    R517286   3.743   0.976   7.104  0.0077 -0.0762 -0.0797
 1286ERGO    C117287   3.511   0.764   7.320  0.0985 -0.1326 -0.0389
 1286ERGO    C217288   3.412   0.786   7.645 -0.0716 -0.1671 -0.0158
 1287ERGO   ROH17289  14.329  17.534   6.611  0.0183 -0.1102 -0.0795
 1287ERGO    R117290  14.385  17.626   6.873 -0.0634 -0.0974 -0.0659
 1287ERGO    R217291  14.244  17.541   7.094 -0.0397 -0.1955 -0.0882
 1287ERGO    R317292  14.492  17.479   7.188 -0.0139 -0.0613 -0.0655
 1287ERGO    R417293  14.331  17.531   7.429 -0.1609 -0.4838 -0.0628
 1287ERGO    R517294  14.522  17.624   7.376 -0.2275 -0.2386  0.1114
 1287ERGO    C117295  14.614  17.466   7.711 -0.2071 -0.5257 -0.0267
 1287ERGO    C217296  14.520  17.414   8.095 -0.1595 -0.1566 -0.1032
 1288ERGO   ROH17297   7.431  17.412   6.474 -0.0681  0.0063  0.0059
 1288ERGO    R117298   7.515  17.497   6.730  0.1379 -0.1018 -0.0249
 1288ERGO    R217299   7.337  17.570   6.930  0.3041  0.1146  0.0446
 1288ERGO    R317300   7.473  17.383   7.073  0.1316 -0.0564 -0.0099
 1288ERGO    R417301   7.352  17.557   7.275  0.1040 -0.1372  0.0478
 1288ERGO    R517302   7.562  17.503   7.259  0.0887 -0.2301  0.1282
 1288ERGO    C117303   7.488  17.375   7.610 -0.1744 -0.4442 -0.0015
 1288ERGO    C217304   7.294  17.527   7.868 -0.0904  0.0071  0.0164
 1289ERGO   ROH17305   5.358   1.868   6.385  0.0848 -0.1977  0.0238
 1289ERGO    R117306   5.119   1.980   6.488  0.0730 -0.1852 -0.0176
 1289ERGO    R217307   5.060   1.982   6.758  0.0622 -0.1144 -0.0226
 1289ERGO    R317308   5.029   2.249   6.716  0.0433 -0.1270 -0.0961
 1289ERGO    R417309   4.965   2.210   7.000 -0.0939 -0.0802 -0.1142
 1289ERGO    R517310   4.840   2.309   6.851 -0.0363 -0.1290 -0.2012
 1289ERGO    C117311   4.882   2.593   7.102 -0.2026 -0.0722 -0.2366
 1289ERGO    C217312   4.882   2.589   7.448  0.2468 -0.0012  0.1164
 1290ERGO   ROH17313  11.871   5.448   6.299 -0.2430  0.1018  0.3059
 1290ERGO    R117314  11.986   5.196   6.358 -0.1010  0.1265  0.1480
 1290ERGO    R217315  12.128   5.149   6.591  0.0052  0.0817  0.0829
 1290ERGO    R317316  11.951   4.944   6.618  0.1064 -0.0099  0.0433
 1290ERGO    R417317  12.179   4.870   6.788  0.0432  0.1635  0.1877
 1290ERGO    R517318  12.089   4.748   6.631  0.2017  0.0706  0.1771
 1290ERGO    C117319  12.042   4.515   6.929  0.1605  0.1252  0.2116
 1290ERGO    C217320  12.097   4.270   7.185 -0.0065  0.0719 -0.0845
 1291ERGO   ROH17321   9.335   1.780   6.891 -0.0921 -0.0609  0.0106
 1291ERGO    R117322   9.582   1.878   6.989 -0.0182 -0.1365 -0.0962
 1291ERGO    R217323   9.599   2.057   7.199  0.1194  0.0171 -0.2347
 1291ERGO    R317324   9.763   1.869   7.305  0.0153 -0.0046 -0.1110
 1291ERGO    R417325   9.837   2.118   7.442  0.2604  0.0845 -0.3886
 1291ERGO    R517326   9.972   1.983   7.336  0.1168 -0.1286 -0.3093
 1291ERGO    C117327  10.130   1.977   7.683  0.2451  0.1034 -0.3621
 1291ERGO    C217328  10.311   1.987   7.958  0.0165  0.2659 -0.3505
 1292ERGO   ROH17329  15.173   1.475   6.353 -0.0201 -0.0792  0.1431
 1292ERGO    R117330  15.279   1.582   6.593  0.0998 -0.0533  0.0799
 1292ERGO    R217331  15.346   1.849   6.621  0.0937 -0.0433  0.0253
 1292ERGO    R317332  15.180   1.835   6.836  0.2072 -0.0440  0.1130
 1292ERGO    R417333  15.390   2.023   6.916  0.2570 -0.0655  0.0148
 1292ERGO    R517334  15.327   1.845   7.025  0.3040 -0.0646  0.0368
 1292ERGO    C117335  15.260   2.111   7.290  0.4587 -0.0791  0.0911
 1292ERGO    C217336  15.208   2.122   7.632  0.0981 -0.1244  0.1016
 1293ERGO   ROH17337   2.636   9.799   6.875 -0.0735  0.0605  0.1905
 1293ERGO    R117338   2.710   9.786   7.148  0.0137  0.2057  0.1752
 1293ERGO    R217339   2.752  10.012   7.302 -0.2110  0.2919  0.1168
 1293ERGO    R317340   2.570   9.894   7.466 -0.0339  0.1099  0.1866
 1293ERGO    R417341   2.694  10.102   7.631 -0.1732  0.2277  0.1408
 1293ERGO    R517342   2.676   9.891   7.681  0.0522  0.2085  0.1449
 1293ERGO    C117343   2.490  10.044   7.976  0.0150  0.0194  0.2203
 1293ERGO    C217344   2.236  10.116   8.240 -0.1839  0.0705 -0.3285
 1294ERGO   ROH17345  11.372   6.331   6.439 -0.0822 -0.0360  0.1293
 1294ERGO    R117346  11.375   6.316   6.721 -0.2856 -0.1477  0.1270
 1294ERGO    R217347  11.464   6.523   6.881  0.0606 -0.3854  0.2533
 1294ERGO    R317348  11.220   6.494   6.998 -0.0814  0.0851  0.0953
 1294ERGO    R417349  11.407   6.534   7.221 -0.1443 -0.2430  0.2159
 1294ERGO    R517350  11.265   6.370   7.198 -0.4457  0.0149  0.1415
 1294ERGO    C117351  11.144   6.514   7.530 -0.3969  0.2816  0.0458
 1294ERGO    C217352  11.183   6.547   7.941 -0.2232 -0.1680 -0.1875
 1295ERGO   ROH17353   6.880   6.109   6.468  0.1833  0.2067 -0.1502
 1295ERGO    R117354   6.968   6.076   6.735 -0.0618  0.2154 -0.0652
 1295ERGO    R217355   7.223   6.145   6.817 -0.0090 -0.1277  0.0809
 1295ERGO    R317356   7.089   6.292   7.002  0.0722  0.1829 -0.0991
 1295ERGO    R417357   7.370   6.314   7.081  0.0520 -0.1984  0.0926
 1295ERGO    R517358   7.205   6.250   7.207 -0.1409  0.1212  0.0101
 1295ERGO    C117359   7.328   6.550   7.408  0.1638  0.0520 -0.0696
 1295ERGO    C217360   7.540   6.763   7.423 -0.0733  0.0010 -0.2517
 1296ERGO   ROH17361  17.402   1.241   6.629 -0.0283 -0.3313  0.0046
 1296ERGO    R117362  17.608   1.158   6.805  0.0207 -0.0972  0.0622
 1296ERGO    R217363  17.731   1.330   6.981 -0.1998  0.0549  0.0762
 1296ERGO    R317364  17.659   1.143   7.165 -0.0503 -0.0047  0.0753
 1296ERGO    R417365  17.865   1.303   7.299 -0.1129  0.0915  0.0428
 1296ERGO    R517366  17.864   1.086   7.275  0.0037  0.0965  0.0221
 1296ERGO    C117367  17.875   1.112   7.656  0.0779  0.0569  0.0225
 1296ERGO    C217368  17.869   0.983   8.033 -0.1961 -0.2215  0.2000
 1297ERGO   ROH17369  10.430   6.646   6.740  0.0516  0.4131  0.0081
 1297ERGO    R117370  10.335   6.491   6.957 -0.1578  0.3401 -0.1323
 1297ERGO    R217371  10.417   6.534   7.218 -0.1358  0.0257 -0.0825
 1297ERGO    R317372  10.150   6.553   7.264 -0.1226  0.3033 -0.1040
 1297ERGO    R417373  10.273   6.589   7.527 -0.1066  0.1446 -0.0900
 1297ERGO    R517374  10.118   6.445   7.475 -0.2553  0.3132 -0.1189
 1297ERGO    C117375   9.938   6.639   7.750 -0.0771  0.4744 -0.1146
 1297ERGO    C217376   9.913   6.634   8.100 -0.2345  0.0111  0.0424
 1298ERGO   ROH17377   1.202   4.651   6.706 -0.0221 -0.0411 -0.0632
 1298ERGO    R117378   1.085   4.528   6.933 -0.0393 -0.0166 -0.0577
 1298ERGO    R217379   1.187   4.297   7.045 -0.0708 -0.0296 -0.0474
 1298ERGO    R317380   1.189   4.447   7.272 -0.0479 -0.0178 -0.0564
 1298ERGO    R417381   1.245   4.175   7.363 -0.0960 -0.0160 -0.0382
 1298ERGO    R517382   1.089   4.307   7.438 -0.0718  0.0127 -0.0488
 1298ERGO    C117383   1.281   4.245   7.761 -0.0893  0.0030 -0.0414
 1298ERGO    C217384   1.397   4.158   8.088 -0.0892 -0.1941 -0.1097
 1299ERGO   ROH17385  14.581   0.553   6.483  0.0052 -0.0658 -0.0314
 1299ERGO    R117386  14.599   0.692   6.729  0.1965 -0.0558 -0.0505
 1299ERGO    R217387  14.395   0.692   6.916  0.2005  0.2351 -0.0439
 1299ERGO    R317388  14.592   0.605   7.082  0.0968 -0.0012 -0.0385
 1299ERGO    R417389  14.400   0.740   7.258  0.2558  0.2402 -0.0446
 1299ERGO    R517390  14.614   0.780   7.244  0.3086 -0.0197 -0.0432
 1299ERGO    C117391  14.587   0.688   7.613  0.1907  0.0214 -0.0399
 1299ERGO    C217392  14.636   0.546   7.883 -0.2493 -0.2109 -0.2335
 1300ERGO   ROH17393   7.352  16.872   6.553  0.0485  0.0549 -0.0075
 1300ERGO    R117394   7.389  17.016   6.794 -0.1199  0.0854  0.0034
 1300ERGO    R217395   7.286  16.933   7.036 -0.0967 -0.0088 -0.0119
 1300ERGO    R317396   7.544  16.955   7.117 -0.1281  0.2080  0.0291
 1300ERGO    R417397   7.397  16.869   7.356 -0.0772  0.0379 -0.0107
 1300ERGO    R517398   7.529  17.043   7.340 -0.2322  0.1543  0.0388
 1300ERGO    C117399   7.705  16.854   7.620 -0.0951  0.2686  0.0286
 1300ERGO    C217400   7.719  16.747   8.039  0.2611  0.2053 -0.2057
 1301ERGO   ROH17401   8.325  14.938   6.569 -0.0856 -0.0356 -0.0711
 1301ERGO    R117402   8.201  14.918   6.823 -0.1434  0.0913 -0.0903
 1301ERGO    R217403   8.336  14.962   7.059 -0.1294 -0.0631 -0.0761
 1301ERGO    R317404   8.136  15.140   7.104  0.0533  0.1536 -0.0901
 1301ERGO    R417405   8.218  15.051   7.371 -0.2638 -0.1913 -0.0884
 1301ERGO    R517406   8.016  15.048   7.290 -0.2130  0.1320 -0.2613
 1301ERGO    C117407   7.960  15.269   7.595 -0.1707 -0.0625 -0.1087
 1301ERGO    C217408   7.607  15.389   7.811  0.1291  0.1211  0.1561
 1302ERGO   ROH17409   6.005  15.957   6.740 -0.1188 -0.2335  0.0446
 1302ERGO    R117410   6.136  15.832   6.958 -0.1706 -0.1317  0.1364
 1302ERGO    R217411   6.288  15.972   7.140 -0.0426 -0.0709 -0.0099
 1302ERGO    R317412   6.124  15.852   7.321 -0.1011  0.2023  0.1219
 1302ERGO    R417413   6.351  15.949   7.479  0.1202 -0.0552 -0.0387
 1302ERGO    R517414   6.273  15.746   7.475 -0.1562  0.0475  0.0661
 1302ERGO    C117415   6.233  15.824   7.846  0.1602  0.2102  0.0683
 1302ERGO    C217416   6.222  15.807   8.171 -0.0490 -0.0583  0.2459
 1303ERGO   ROH17417   1.332   3.022   6.515 -0.0301  0.0491 -0.0246
 1303ERGO    R117418   1.316   2.916   6.777  0.0947 -0.0409 -0.0540
 1303ERGO    R217419   1.523   2.774   6.894  0.2688  0.1929 -0.0888
 1303ERGO    R317420   1.495   2.959   7.091  0.0291  0.1027 -0.0325
 1303ERGO    R417421   1.572   2.713   7.230  0.3924  0.1482 -0.1132
 1303ERGO    R517422   1.399   2.838   7.273  0.2118 -0.0990 -0.0570
 1303ERGO    C117423   1.574   2.851   7.612  0.2393  0.0374 -0.0744
 1303ERGO    C217424   1.592   2.792   7.919 -0.1934  0.0772 -0.0229
 1304ERGO   ROH17425  11.343   9.993   6.782 -0.1358  0.1715 -0.0448
 1304ERGO    R117426  11.384  10.120   7.031 -0.0134  0.1461 -0.0514
 1304ERGO    R217427  11.329   9.996   7.272 -0.0897  0.1941 -0.0433
 1304ERGO    R317428  11.587  10.061   7.327 -0.0315 -0.0070 -0.0686
 1304ERGO    R417429  11.460  10.033   7.590 -0.1079  0.3913 -0.0581
 1304ERGO    R517430  11.573  10.206   7.518  0.0787  0.2069 -0.2185
 1304ERGO    C117431  11.778  10.117   7.827 -0.0639  0.3173 -0.0904
 1304ERGO    C217432  11.763  10.080   8.217 -0.1518  0.0096 -0.0322
 1305ERGO   ROH17433  15.744   0.840  10.376  0.0380 -0.0921 -0.0298
 1305ERGO    R117434  15.918   0.797  10.157  0.0549 -0.1757 -0.0021
 1305ERGO    R217435  15.889   0.583   9.985 -0.0609 -0.1290 -0.0506
 1305ERGO    R317436  15.887   0.777   9.795  0.1132 -0.0882 -0.0108
 1305ERGO    R417437  15.897   0.525   9.644 -0.0618 -0.0602 -0.0612
 1305ERGO    R517438  16.034   0.695   9.624  0.0692 -0.1628 -0.0084
 1305ERGO    C117439  15.899   0.674   9.267  0.1010  0.0182 -0.0299
 1305ERGO    C217440  15.743   0.644   8.935 -0.0182  0.1558 -0.1636
 1306ERGO   ROH17441  15.932  12.436   6.945  0.0060 -0.1859  0.0190
 1306ERGO    R117442  15.803  12.374   7.189  0.0003 -0.1755  0.0183
 1306ERGO    R217443  15.919  12.214   7.383  0.0373 -0.0842  0.0702
 1306ERGO    R317444  15.867  12.428   7.543 -0.0633 -0.0654  0.0139
 1306ERGO    R417445  15.815  12.194   7.712  0.1380 -0.0486  0.1048
 1306ERGO    R517446  15.679  12.359   7.674  0.0157 -0.1509  0.0858
 1306ERGO    C117447  15.706  12.382   8.054  0.1024 -0.0104  0.0722
 1306ERGO    C217448  15.673  12.160   8.328 -0.1384 -0.0442 -0.0296
 1307ERGO   ROH17449  16.445   8.458   6.799  0.0857  0.0052  0.0611
 1307ERGO    R117450  16.549   8.527   7.053  0.0205 -0.0448  0.1017
 1307ERGO    R217451  16.518   8.366   7.275  0.1083 -0.1705  0.0248
 1307ERGO    R317452  16.789   8.386   7.288  0.0953  0.0019  0.0536
 1307ERGO    R417453  16.706   8.322   7.562  0.1173 -0.1943  0.0153
 1307ERGO    R517454  16.831   8.490   7.500  0.0117 -0.0789  0.1102
 1307ERGO    C117455  17.070   8.315   7.741  0.1104 -0.0462  0.0368
 1307ERGO    C217456  17.084   8.262   8.179  0.0427 -0.2051 -0.0195
 1308ERGO   ROH17457   6.064   5.599   6.807  0.0175 -0.1557  0.1085
 1308ERGO    R117458   6.018   5.786   7.015  0.0364 -0.0733  0.0390
 1308ERGO    R217459   5.906   5.714   7.257 -0.1690  0.0677 -0.0128
 1308ERGO    R317460   6.129   5.831   7.359 -0.1375 -0.0854  0.0975
 1308ERGO    R417461   5.929   5.856   7.571 -0.2724  0.1851 -0.0571
 1308ERGO    R517462   6.047   6.018   7.484 -0.0654  0.0439 -0.0444
 1308ERGO    C117463   6.153   6.048   7.850 -0.3030  0.1098  0.0207
 1308ERGO    C217464   6.197   6.005   8.195  0.0326  0.0822 -0.1474
 1309ERGO   ROH17465   2.731  11.575   6.681  0.1355  0.0784 -0.0546
 1309ERGO    R117466   2.644  11.413   6.897  0.1039  0.0830 -0.0650
 1309ERGO    R217467   2.809  11.230   7.023  0.0809  0.0821 -0.0454
 1309ERGO    R317468   2.736  11.366   7.246  0.0566  0.0813 -0.0513
 1309ERGO    R417469   2.817  11.103   7.344 -0.1209  0.0131 -0.0654
 1309ERGO    R517470   2.628  11.203   7.383 -0.0898  0.1073 -0.1278
 1309ERGO    C117471   2.753  11.157   7.740 -0.2611 -0.0278 -0.0825
 1309ERGO    C217472   2.827  11.336   8.067  0.0771  0.1441  0.2648
 1310ERGO   ROH17473  15.667   0.124   6.465 -0.1748 -0.0034  0.1716
 1310ERGO    R117474  15.821  -0.026   6.650 -0.1546 -0.1358  0.0473
 1310ERGO    R217475  15.995   0.093   6.828 -0.0141 -0.2785 -0.0052
 1310ERGO    R317476  15.852  -0.047   7.012  0.0177 -0.2710  0.0285
 1310ERGO    R417477  16.033   0.119   7.171 -0.1615 -0.0126 -0.0056
 1310ERGO    R517478  16.009  -0.097   7.185 -0.0007 -0.0331  0.1263
 1310ERGO    C117479  15.920   0.003   7.542 -0.2172  0.1493  0.0258
 1310ERGO    C217480  15.805  -0.052   7.823  0.0254 -0.1399 -0.0732
 1311ERGO   ROH17481  14.725   7.743   6.495 -0.0835  0.1012 -0.1221
 1311ERGO    R117482  14.664   7.714   6.769  0.0972  0.0790 -0.0827
 1311ERGO    R217483  14.687   7.922   6.950  0.1922  0.0719 -0.0844
 1311ERGO    R317484  14.428   7.860   7.005  0.2330  0.0413  0.0783
 1311ERGO    R417485  14.531   7.979   7.253  0.3071  0.2659 -0.0603
 1311ERGO    R517486  14.432   7.785   7.232  0.3523  0.2220  0.1364
 1311ERGO    C117487  14.197   7.955   7.481  0.4123  0.3503  0.1065
 1311ERGO    C217488  14.123   8.123   7.813 -0.2093  0.1787 -0.3688
 1312ERGO   ROH17489   0.952   1.980   6.429 -0.0268 -0.0045  0.0137
 1312ERGO    R117490   1.063   1.828   6.641 -0.0530 -0.0566 -0.0091
 1312ERGO    R217491   1.316   1.876   6.741 -0.0430 -0.1177 -0.0028
 1312ERGO    R317492   1.184   1.895   6.978 -0.0389 -0.1283 -0.0001
 1312ERGO    R417493   1.456   1.818   7.052 -0.0471 -0.1662 -0.0103
 1312ERGO    R517494   1.273   1.717   7.110 -0.0576 -0.1520 -0.0198
 1312ERGO    C117495   1.414   1.802   7.455 -0.0457 -0.2044 -0.0120
 1312ERGO    C217496   1.514   1.878   7.720 -0.1765  0.1811  0.0996
 1313ERGO   ROH17497   2.531   9.650   9.107  0.0692 -0.0504  0.1428
 1313ERGO    R117498   2.339   9.456   9.031  0.0348  0.1037 -0.1800
 1313ERGO    R217499   2.368   9.299   8.806  0.4114 -0.0811 -0.0151
 1313ERGO    R317500   2.332   9.096   8.982 -0.2264  0.0737  0.0592
 1313ERGO    R417501   2.259   8.983   8.721  0.5833 -0.1160 -0.1091
 1313ERGO    R517502   2.137   8.982   8.902 -0.0183  0.0745 -0.4868
 1313ERGO    C117503   2.162   8.607   8.837  0.0846  0.0089 -0.0945
 1313ERGO    C217504   2.064   8.265   8.770  0.0456 -0.0729  0.0033
 1314ERGO   ROH17505   0.383   6.264   6.569 -0.1562  0.0561 -0.0055
 1314ERGO    R117506   0.505   6.178   6.809 -0.0896  0.0612 -0.0393
 1314ERGO    R217507   0.614   6.354   6.992 -0.1646  0.0696 -0.0132
 1314ERGO    R317508   0.450   6.225   7.166 -0.0766 -0.0561 -0.0201
 1314ERGO    R417509   0.610   6.406   7.334 -0.4187  0.2942 -0.0448
 1314ERGO    R517510   0.586   6.190   7.361 -0.1225  0.2670  0.0806
 1314ERGO    C117511   0.454   6.314   7.696 -0.4842  0.3069 -0.0697
 1314ERGO    C217512   0.577   6.269   8.007 -0.2395 -0.0564  0.2391
 1315ERGO   ROH17513  13.669   2.947   6.379 -0.2502  0.2041 -0.0028
 1315ERGO    R117514  13.649   2.892   6.656 -0.1054  0.1542 -0.0010
 1315ERGO    R217515  13.683   3.087   6.849  0.0118  0.1187  0.0201
 1315ERGO    R317516  13.439   3.000   6.933  0.0495  0.1193  0.1299
 1315ERGO    R417517  13.573   3.095   7.176  0.0929  0.2606  0.0441
 1315ERGO    R517518  13.482   2.899   7.146  0.1191  0.2334  0.1675
 1315ERGO    C117519  13.279   3.020   7.446  0.1757  0.3438  0.1612
 1315ERGO    C217520  13.009   3.203   7.653 -0.3187  0.0335 -0.1344
 1316ERGO   ROH17521   3.308   4.315   6.700 -0.2010 -0.1056 -0.0862
 1316ERGO    R117522   3.244   4.439   6.946  0.2484 -0.0900  0.0277
 1316ERGO    R217523   3.020   4.371   7.093  0.1392  0.4056  0.0761
 1316ERGO    R317524   3.202   4.334   7.292  0.1400 -0.2038 -0.0136
 1316ERGO    R417525   2.942   4.300   7.422  0.0236  0.6655  0.1095
 1316ERGO    R517526   3.101   4.435   7.484  0.5386  0.1609  0.0375
 1316ERGO    C117527   3.067   4.224   7.800 -0.0429  0.2447  0.0447
 1316ERGO    C217528   3.047   3.765   7.919 -0.2882  0.0496  0.0850
 1317ERGO   ROH17529  12.727  11.714   6.730 -0.1622  0.1004  0.0173
 1317ERGO    R117530  12.703  11.840   6.982 -0.0230  0.0716  0.0459
 1317ERGO    R217531  12.532  11.748   7.180 -0.0577  0.1617  0.0590
 1317ERGO    R317532  12.759  11.748   7.330 -0.0295 -0.0357  0.0188
 1317ERGO    R417533  12.541  11.741   7.525 -0.0086  0.3121  0.0614
 1317ERGO    R517534  12.705  11.883   7.519  0.1616  0.1182 -0.0338
 1317ERGO    C117535  12.759  11.736   7.867  0.0465  0.2144  0.0252
 1317ERGO    C217536  12.632  11.688   8.117  0.1270 -0.0916  0.0481
 1318ERGO   ROH17537   9.698  13.179   7.218 -0.1215 -0.0578  0.1667
 1318ERGO    R117538   9.773  13.113   7.482 -0.0968  0.0001  0.1742
 1318ERGO    R217539  10.035  13.062   7.555 -0.0903  0.0140  0.1604
 1318ERGO    R317540   9.987  13.256   7.740 -0.0712  0.0557  0.1221
 1318ERGO    R417541  10.256  13.155   7.804 -0.0776  0.0508  0.1358
 1318ERGO    R517542  10.087  13.171   7.941 -0.0721  0.0909  0.1370
 1318ERGO    C117543  10.340  13.391   8.123 -0.0523  0.1113  0.0854
 1318ERGO    C217544  10.611  13.411   8.407 -0.0705 -0.1350  0.1138
 1319ERGO   ROH17545   3.209  14.872   6.537  0.0424  0.0587  0.1102
 1319ERGO    R117546   3.325  14.727   6.750 -0.0887  0.0062  0.1493
 1319ERGO    R217547   3.597  14.726   6.799 -0.0715 -0.2734  0.1187
 1319ERGO    R317548   3.519  14.804   7.048  0.0330 -0.0923  0.0934
 1319ERGO    R417549   3.750  14.629   7.094 -0.0862 -0.2179  0.1422
 1319ERGO    R517550   3.552  14.610   7.184 -0.0739 -0.0358  0.1902
 1319ERGO    C117551   3.766  14.646   7.498  0.0033 -0.0156  0.1323
 1319ERGO    C217552   4.000  14.525   7.736 -0.1424  0.0092  0.0252
 1320ERGO   ROH17553  15.640   3.212   6.518  0.0477 -0.1485  0.0246
 1320ERGO    R117554  15.707   3.224   6.793  0.0402 -0.0046  0.0211
 1320ERGO    R217555  15.526   3.167   6.993  0.0820 -0.0695  0.0393
 1320ERGO    R317556  15.717   2.991   7.072  0.2124  0.0974  0.1020
 1320ERGO    R417557  15.582   3.071   7.320 -0.0772 -0.1695  0.0387
 1320ERGO    R517558  15.796   3.079   7.281 -0.0492  0.0837  0.2123
 1320ERGO    C117559  15.795   2.850   7.585 -0.0475 -0.0711  0.0972
 1320ERGO    C217560  15.734   2.589   7.837 -0.5920 -0.4451 -0.1276
 1321ERGO   ROH17561  11.850   8.934   6.913  0.2960 -0.0986 -0.1410
 1321ERGO    R117562  12.012   9.014   7.132  0.1325  0.0235 -0.0605
 1321ERGO    R217563  11.964   9.245   7.277 -0.0576  0.0426 -0.1352
 1321ERGO    R317564  11.964   9.074   7.488 -0.1119  0.0826 -0.1042
 1321ERGO    R417565  12.031   9.334   7.604  0.1343  0.0335 -0.1717
 1321ERGO    R517566  12.144   9.149   7.626 -0.0072 -0.0434 -0.1822
 1321ERGO    C117567  12.070   9.225   7.992  0.1950  0.0658 -0.1638
 1321ERGO    C217568  11.926   9.380   8.268  0.3793 -0.1598  0.3239
 1322ERGO   ROH17569  12.917  15.538   6.780  0.1496  0.0292 -0.0135
 1322ERGO    R117570  13.038  15.400   6.996  0.1880 -0.0472 -0.0840
 1322ERGO    R217571  13.209  15.523   7.175  0.1720 -0.0982 -0.0380
 1322ERGO    R317572  13.036  15.422   7.359  0.2046 -0.2175 -0.0714
 1322ERGO    R417573  13.232  15.570   7.517 -0.0499  0.1234 -0.0496
 1322ERGO    R517574  13.174  15.362   7.544  0.1958  0.0569  0.0320
 1322ERGO    C117575  13.084  15.501   7.888 -0.1485  0.1405 -0.0877
 1322ERGO    C217576  12.973  15.358   8.276  0.1752  0.0904 -0.1505
 1323ERGO   ROH17577   8.209  12.970   8.591  0.1416  0.0795 -0.0485
 1323ERGO    R117578   8.211  13.097   8.844  0.0292 -0.0113 -0.0010
 1323ERGO    R217579   8.008  13.066   9.028 -0.0180 -0.1351 -0.0741
 1323ERGO    R317580   8.212  12.993   9.193 -0.0481 -0.1373 -0.0375
 1323ERGO    R417581   8.002  13.090   9.373  0.0407  0.1718 -0.0922
 1323ERGO    R517582   8.209  13.158   9.367  0.0901  0.0200 -0.1795
 1323ERGO    C117583   8.190  13.037   9.728  0.0467  0.3482 -0.0684
 1323ERGO    C217584   8.250  12.949  10.000  0.0751  0.1519 -0.1175
 1324W        W17585  13.539   9.508  16.686  0.0975  0.1717  0.1138
 1325W        W17586   4.062   3.156   2.244  0.0277 -0.3156 -0.0477
 1326W        W17587   9.684  11.114   3.808  0.0376  0.0567 -0.3239
 1327W        W17588  15.113  16.936   1.712  0.0716 -0.0939  0.2724
 1328W        W17589  11.439  15.963  12.172  0.0457  0.0267  0.1070
 1329W        W17590  14.469  14.144   5.432  0.1055 -0.2498 -0.0510
 1330W        W17591   6.470  14.393  14.677 -0.0167 -0.0681  0.0456
 1331W        W17592   3.781   5.782  14.026 -0.0414 -0.2654 -0.2630
 1332W        W17593  14.475   1.591   3.277  0.2070 -0.1377  0.0665
 1333W        W17594   8.307  13.822  15.481  0.1140 -0.1801  0.1531
 1334W        W17595   7.942  13.242   4.158  0.2358 -0.1928 -0.1795
 1335W        W17596  16.283   9.883  15.235  0.0910  0.1597  0.0433
 1336W        W17597   1.487  10.810   0.298  0.0807 -0.1957  0.2196
 1337W        W17598  10.770   0.197  14.097 -0.1600  0.1675 -0.2278
 1338W        W17599   2.979  12.028  13.726  0.0851 -0.1452 -0.0134
 1339W        W17600  16.379  17.757  11.752  0.0593 -0.1638  0.1311
 1340W        W17601  13.383  16.948   1.405 -0.1152  0.0421 -0.0130
 1341W        W17602   8.099  15.339   5.214 -0.0155  0.1771  0.1795
 1342W        W17603   6.278   7.777  15.810 -0.2308 -0.2358 -0.1801
 1343W        W17604   1.141   6.946  12.377 -0.1941 -0.2442  0.1465
 1344W        W17605   3.908   7.763  13.142  0.0340 -0.0584  0.0010
 1345W        W17606   9.556  17.190   4.943 -0.2636  0.0584 -0.2020
 1346W        W17607  13.645   0.582  16.966  0.3782 -0.1011  0.3078
 1347W        W17608  15.624  11.771   2.692  0.1482  0.4687 -0.0897
 1348W        W17609  14.216   9.287  14.799  0.0613 -0.0228  0.1802
 1349W        W17610   6.745  16.047  13.743 -0.0962  0.1940 -0.2370
 1350W        W17611  11.959  15.118   2.032 -0.0739 -0.0742  0.1695
 1351W        W17612   3.946  10.677  13.188 -0.1029 -0.3217  0.2403
 1352W        W17613  11.587  12.330   5.405 -0.0188 -0.3280  0.1935
 1353W        W17614  15.048  11.688   3.313  0.1668 -0.3465  0.0760
 1354W        W17615   9.535   8.895   0.645 -0.0007 -0.4876 -0.2000
 1355W        W17616  15.275  17.446  14.386  0.2248  0.2322 -0.2949
 1356W        W17617   9.089   7.153  13.029  0.0011 -0.2875 -0.1807
 1357W        W17618   8.522  10.681   1.677  0.1499  0.0198  0.2818
 1358W        W17619   8.126  11.582  12.356 -0.0488 -0.0304  0.0626
 1359W        W17620   2.090   3.546  15.541 -0.0549  0.0547 -0.3216
 1360W        W17621  12.103  10.976   5.799  0.2305 -0.1475 -0.0105
 1361W        W17622   4.475   3.180  13.217  0.0248  0.1033  0.3708
 1362W        W17623   9.672   7.546   4.933  0.4500  0.0145  0.0399
 1363W        W17624   9.906  10.203   5.139  0.1431  0.0611  0.0956
 1364W        W17625  10.267  11.714  12.291 -0.1246 -0.1618 -0.1290
 1365W        W17626  14.997   2.676   1.242  0.0541  0.0281  0.0200
 1366W        W17627   4.908  11.722  12.057 -0.0749 -0.1006 -0.1240
 1367W        W17628   9.049  14.695  12.618  0.1465 -0.1940  0.1273
 1368W        W17629  16.893  16.748   0.173  0.2888 -0.0840  0.1361
 1369W        W17630  15.402   7.568   0.221 -0.2050  0.1218 -0.0829
 1370W        W17631   3.501   1.253  15.378 -0.0321 -0.0279 -0.3943
 1371W        W17632  16.696   2.907   4.202 -0.0977 -0.1073  0.0655
 1372W        W17633  14.048  15.143  14.143 -0.0806 -0.3973 -0.0924
 1373W        W17634  16.450   3.792   0.708  0.1889 -0.0128 -0.1276
 1374W        W17635   1.753   2.091  16.799 -0.0234 -0.0649 -0.1494
 1375W        W17636  11.668  14.178  13.940 -0.2691  0.1225 -0.2592
 1376W        W17637  13.635  13.982   1.909  0.1074 -0.2141  0.0830
 1377W        W17638  15.592  14.393   0.766  0.0456 -0.1693  0.0205
 1378W        W17639   9.498  16.517  13.591 -0.1076 -0.1223 -0.0272
 1379W        W17640   7.058  11.083   2.995 -0.0311  0.0262  0.1571
 1380W        W17641   1.847  11.935   1.672 -0.1213  0.2050 -0.0648
 1381W        W17642   9.187   8.004   0.344  0.0431 -0.1490 -0.1878
 1382W        W17643   0.924   0.900  14.835  0.0256 -0.0651  0.2062
 1383W        W17644   8.644   7.371  15.534  0.1595  0.1191 -0.3531
 1384W        W17645   4.075  14.907  16.460 -0.0744 -0.0385  0.0775
 1385W        W17646  14.326   3.640   5.195  0.1944  0.0108 -0.1460
 1386W        W17647   8.321  10.097   2.463  0.0631 -0.0490  0.3276
 1387W        W17648   5.033  14.362   3.629 -0.2948 -0.3644 -0.1341
 1388W        W17649  17.783   0.865  13.713  0.3123 -0.2293  0.0366
 1389W        W17650   4.876  13.244   2.817  0.0115 -0.0863 -0.0898
 1390W        W17651  16.922   4.123   2.322  0.2397  0.0219 -0.2002
 1391W        W17652   1.737  14.447   5.812  0.0662 -0.0557 -0.1002
 1392W        W17653   3.190   5.656   6.043 -0.2180 -0.0902 -0.1606
 1393W        W17654   0.047  15.243   1.045 -0.2064 -0.1237  0.1846
 1394W        W17655   5.430   1.621  13.529  0.2546 -0.0500  0.0386
 1395W        W17656  10.133   4.107   5.712  0.3799  0.2519 -0.0329
 1396W        W17657   0.461   2.575  13.009 -0.3784  0.0007  0.0297
 1397W        W17658  12.268   5.171   0.830 -0.0063  0.2850 -0.3155
 1398W        W17659  17.239   4.553  16.537  0.0411 -0.0157 -0.0263
 1399W        W17660   8.130   2.792  13.657 -0.0800  0.3337 -0.0563
 1400W        W17661  14.291  15.225   3.648 -0.1737 -0.0686  0.0248
 1401W        W17662  13.922  16.946   6.274  0.0465 -0.3012 -0.1117
 1402W        W17663   1.111   6.796   2.728 -0.0754  0.3012 -0.1346
 1403W        W17664   7.392   5.983  13.161  0.1171 -0.0624 -0.3440
 1404W        W17665   1.671   4.113   2.239  0.4210  0.0198 -0.1563
 1405W        W17666   6.406   5.484  13.095 -0.0299 -0.0081  0.3735
 1406W        W17667   1.239   5.814  15.834 -0.1373  0.2429 -0.0554
 1407W        W17668  14.852   3.662   0.787 -0.3390  0.0707 -0.0570
 1408W        W17669   4.440   0.065   2.830  0.0760  0.1662  0.2289
 1409W        W17670   6.241  10.040   2.873 -0.4010 -0.2849  0.3240
 1410W        W17671   5.658   0.937   0.168  0.2432  0.2952 -0.2629
 1411W        W17672  16.748   3.556  13.822 -0.2291  0.1435 -0.0892
 1412W        W17673  15.479   4.481   3.756  0.0915  0.1397 -0.0341
 1413W        W17674  16.570   3.569  15.887  0.0307  0.2098 -0.2919
 1414W        W17675   6.761  13.403  12.804 -0.0537  0.0694 -0.0632
 1415W        W17676  15.795   5.204   1.143  0.1517 -0.0610 -0.0493
 1416W        W17677  13.054   5.492  11.585 -0.0254  0.3463  0.1214
 1417W        W17678   2.550   2.071  15.152 -0.0774 -0.0160  0.1282
 1418W        W17679   1.280   5.341   1.025  0.0330 -0.1844 -0.2407
 1419W        W17680  12.281  15.228  16.797 -0.1640 -0.3467  0.3959
 1420W        W17681   9.410  15.739   3.533  0.3090 -0.1479 -0.1854
 1421W        W17682   2.056   2.697  16.498  0.1169  0.7048 -0.1311
 1422W        W17683  15.688  14.749   5.418 -0.0600 -0.0484 -0.1683
 1423W        W17684   0.913   8.772   3.226  0.0377 -0.1707  0.1121
 1424W        W17685   5.166   6.464  15.056 -0.0494  0.1449 -0.2152
 1425W        W17686   2.391   0.709  15.805 -0.0838  0.0834  0.3450
 1426W        W17687   8.371   4.322  12.816 -0.2640 -0.1138  0.1941
 1427W        W17688   5.141  16.195   0.938  0.2550 -0.0897 -0.1367
 1428W        W17689   6.634  17.297   4.666 -0.0571  0.0496 -0.0100
 1429W        W17690   4.933  12.920   5.413 -0.0729  0.1511  0.1100
 1430W        W17691  11.451  12.301   2.462 -0.5455 -0.0042 -0.3276
 1431W        W17692   8.299   0.560   0.033 -0.3184  0.1296 -0.0201
 1432W        W17693   3.629  11.047  16.818  0.2233 -0.0229 -0.1189
 1433W        W17694  15.289   5.843  12.388  0.0264 -0.3381 -0.1121
 1434W        W17695   6.411  13.824  12.747  0.0388 -0.4020 -0.0322
 1435W        W17696   7.205  13.718  15.603  0.1997 -0.4377  0.1332
 1436W        W17697   9.343  14.735   0.991  0.2769 -0.0956  0.0945
 1437W        W17698  14.379   4.269  16.747 -0.3091  0.0320 -0.0979
 1438W        W17699   8.330  16.064  14.658  0.2170  0.1593 -0.4554
 1439W        W17700   7.800   2.252  11.985  0.2962  0.0646  0.1265
 1440W        W17701  12.534   9.061  13.870  0.0885  0.1977 -0.0938
 1441W        W17702   4.710  16.784  14.869 -0.1139  0.3542 -0.1525
 1442W        W17703  15.301  15.963   0.833 -0.1811 -0.1425 -0.0867
 1443W        W17704   6.170  15.582   0.832 -0.2016 -0.1133 -0.2144
 1444W        W17705   7.778   1.060   3.747 -0.3101 -0.1053 -0.3589
 1445W        W17706   6.017  12.697  16.470  0.1454 -0.1913  0.0642
 1446W        W17707   5.081   1.531  14.409 -0.3563 -0.0513 -0.0008
 1447W        W17708   8.607  14.346  15.968 -0.1575 -0.1036 -0.1274
 1448W        W17709  11.900   8.685   2.587 -0.1519  0.0112 -0.0546
 1449W        W17710  17.503   5.569   1.597 -0.3560  0.0119  0.0129
 1450W        W17711  14.227   9.129  12.518 -0.0604  0.0148  0.0444
 1451W        W17712  17.336  15.531  15.974  0.0076 -0.0591  0.2803
 1452W        W17713   1.895   3.857  13.926  0.2647  0.1711  0.3067
 1453W        W17714   0.713   8.885   4.052 -0.0221 -0.3160  0.2760
 1454W        W17715  13.256  17.520  15.445  0.0080 -0.0746  0.2706
 1455W        W17716   6.266  12.675   0.467 -0.0548  0.0205  0.0416
 1456W        W17717  11.371  11.326   3.257 -0.2049  0.0366  0.0009
 1457W        W17718   1.197   7.223   0.419  0.1987  0.0775  0.2095
 1458W        W17719   6.433   0.501   5.320  0.0325  0.2420 -0.0495
 1459W        W17720   3.914   9.460  15.719  0.0140  0.0752  0.2512
 1460W        W17721  10.317   7.192   2.732  0.0080  0.0270  0.0389
 1461W        W17722  10.906   6.214  14.659 -0.1170  0.0058 -0.0692
 1462W        W17723   7.631  13.728   4.228 -0.1457 -0.0639  0.1137
 1463W        W17724  10.468   3.369  16.670 -0.1804  0.1046 -0.2359
 1464W        W17725  14.385   3.669  14.708 -0.2450  0.0009  0.0666
 1465W        W17726   6.034  15.818   5.067  0.0603  0.0457 -0.0211
 1466W        W17727   4.195   5.937   2.185  0.4643  0.0694  0.0801
 1467W        W17728  16.700   2.458  12.152  0.1049 -0.3594 -0.1358
 1468W        W17729   9.190  16.405   2.583 -0.1688  0.1783 -0.1525
 1469W        W17730   6.679   4.489  16.476  0.0406 -0.3934 -0.1606
 1470W        W17731  17.779  15.983   5.359 -0.0563  0.1355 -0.0071
 1471W        W17732   2.078  16.379   4.731  0.1534 -0.2931  0.2110
 1472W        W17733  15.843   8.187   6.177 -0.2648  0.2099  0.0281
 1473W        W17734  10.264  10.900   0.369 -0.1070 -0.2054 -0.3179
 1474W        W17735   5.253   6.571   2.867 -0.0849 -0.1859  0.3413
 1475W        W17736  15.406   7.601  10.946 -0.1280 -0.0696 -0.2727
 1476W        W17737  17.773  17.121   0.445  0.0521 -0.3214 -0.1070
 1477W        W17738   3.196  10.408   2.284 -0.1839 -0.0904 -0.1196
 1478W        W17739   2.075   0.283  15.687  0.3540 -0.1267  0.0015
 1479W        W17740  11.376   6.596  12.154  0.0172 -0.2056 -0.2402
 1480W        W17741   2.941   6.719  13.736  0.1488  0.1551  0.2051
 1481W        W17742  16.475   6.881  15.401 -0.0693  0.5544 -0.2905
 1482W        W17743  15.910   6.958  13.691  0.0273 -0.1135  0.0735
 1483W        W17744   7.167  12.575  11.857 -0.1284 -0.5838 -0.1627
 1484W        W17745  14.746   9.576  14.202  0.0777 -0.2183 -0.2175
 1485W        W17746  15.816   0.097  13.971 -0.3246  0.0284  0.1965
 1486W        W17747  17.609   5.320   2.082  0.0587  0.1596 -0.1158
 1487W        W17748   9.036   9.248   3.287  0.0872  0.1465  0.0160
 1488W        W17749   4.012  11.031   1.332  0.0616  0.0245  0.1240
 1489W        W17750  11.262   0.292  13.360 -0.0273  0.1851  0.0491
 1490W        W17751   2.980   0.058  12.825  0.0623 -0.1467  0.0119
 1491W        W17752   6.139  14.722  13.326 -0.2426  0.0814 -0.1233
 1492W        W17753   4.622   2.612  14.207  0.0128 -0.2856  0.2284
 1493W        W17754   5.261  14.815  16.368  0.0383 -0.0881  0.1318
 1494W        W17755  13.204   1.830  14.722 -0.0863  0.0309 -0.2531
 1495W        W17756   7.433  13.233   0.835 -0.3755  0.1109  0.1583
 1496W        W17757  16.564   9.925  13.331  0.2306  0.1143  0.0154
 1497W        W17758  11.263   1.714   5.628  0.1371 -0.5720  0.5103
 1498W        W17759   4.942   7.378   4.864 -0.1926 -0.3651 -0.0632
 1499W        W17760  13.772   1.951  11.570 -0.1990  0.4065  0.4318
 1500W        W17761  15.424   4.725  16.812 -0.0065  0.0229 -0.2625
 1501W        W17762  14.931  13.631   4.727 -0.3068 -0.3186 -0.0441
 1502W        W17763  14.210   7.568  12.839  0.0064  0.0946 -0.0213
 1503W        W17764  11.674   7.855  14.825 -0.4180 -0.0450 -0.1517
 1504W        W17765  17.586   5.026   3.039 -0.1782 -0.0820 -0.0816
 1505W        W17766   1.551   1.861  13.095  0.1720 -0.0125  0.1866
 1506W        W17767   0.879   7.379  12.105 -0.2112  0.3244  0.1383
 1507W        W17768  17.547   8.588  16.174 -0.2153 -0.2530 -0.3959
 1508W        W17769   4.950   2.239   2.510 -0.0983 -0.1734 -0.0187
 1509W        W17770   1.892   7.305  13.667 -0.0647  0.0632  0.0132
 1510W        W17771   4.124   8.456   0.653  0.1223 -0.0638  0.0982
 1511W        W17772   7.611   7.281  15.082 -0.2170  0.0389 -0.0619
 1512W        W17773  12.155   5.703  12.380  0.1222 -0.4123 -0.1815
 1513W        W17774   0.268   4.772  13.496 -0.1431  0.1906  0.2737
 1514W        W17775  12.182   8.789  14.237  0.0108  0.0230  0.1339
 1515W        W17776   4.117   4.822  16.955  0.2455 -0.1623  0.3325
 1516W        W17777   0.759   1.477  16.979  0.0321 -0.0584  0.1859
 1517W        W17778  13.489   9.336   1.177 -0.2562  0.2501 -0.0023
 1518W        W17779   8.610  12.227   2.590  0.0938 -0.0945 -0.0987
 1519W        W17780  11.763  16.329  16.740 -0.0601  0.1477 -0.0603
 1520W        W17781  10.539   2.218  16.356 -0.0876 -0.0196 -0.1456
 1521W        W17782  17.144   5.270   5.130  0.2145  0.1899  0.0331
 1522W        W17783   2.124  17.699  16.097 -0.0781 -0.0204 -0.1039
 1523W        W17784   3.085   1.574  16.502  0.0624  0.0848  0.0322
 1524W        W17785   2.412  15.460  14.803 -0.0220 -0.3081 -0.0401
 1525W        W17786   3.221   3.023   4.814 -0.0383 -0.1373 -0.0650
 1526W        W17787   4.023   9.285   2.150 -0.3501  0.2545  0.1307
 1527W        W17788  13.943  17.365  13.041  0.1930 -0.0268 -0.1065
 1528W        W17789   7.706   5.588   2.341 -0.0626  0.2581  0.1455
 1529W        W17790  16.770   9.729   1.305 -0.1146 -0.1115  0.0761
 1530W        W17791  14.616   8.159   2.585  0.0119 -0.1656  0.0840
 1531W        W17792  12.532  16.294  16.332 -0.0771 -0.1292 -0.2567
 1532W        W17793   2.220  10.991  16.895  0.2602  0.1206 -0.1984
 1533W        W17794   8.208  16.053   4.535  0.2337  0.0579  0.0744
 1534W        W17795  12.702  11.178   3.569  0.0696  0.0254  0.0249
 1535W        W17796  13.840   0.635   5.494  0.0342 -0.1449 -0.0882
 1536W        W17797   5.881  16.297   4.834  0.2258  0.2215  0.1802
 1537W        W17798  13.849   3.909  15.104 -0.1705 -0.1147 -0.2888
 1538W        W17799   3.426   5.987   5.163 -0.2109 -0.2687 -0.1020
 1539W        W17800   0.951   4.114  11.877 -0.0083 -0.3661 -0.2451
 1540W        W17801   1.646   3.242  15.445 -0.1371 -0.0977  0.2317
 1541W        W17802  17.508   3.203  14.969  0.2446 -0.1613 -0.0579
 1542W        W17803  17.298  17.291  12.818 -0.1895  0.4755 -0.2076
 1543W        W17804   1.538   9.801   0.394  0.3419 -0.3677 -0.1017
 1544W        W17805   2.799   4.699   2.013  0.0426  0.2993  0.3244
 1545W        W17806   8.057   3.515  15.436  0.1799  0.0255  0.2513
 1546W        W17807   9.851  10.933  11.752  0.0073  0.1031  0.0655
 1547W        W17808   3.792  17.772   2.113  0.0884 -0.1138  0.0863
 1548W        W17809  10.999   3.510   0.963 -0.0983  0.2894  0.2430
 1549W        W17810  16.418  12.870   4.013 -0.1571  0.0549 -0.0298
 1550W        W17811  15.287  12.862   3.467  0.0635 -0.2143  0.0421
 1551W        W17812   7.653   1.029  14.372  0.0347  0.0881  0.2342
 1552W        W17813  16.388   8.029   5.604 -0.0741 -0.1254 -0.1723
 1553W        W17814   3.322  17.495   2.170  0.2515  0.0257 -0.0040
 1554W        W17815  16.546   2.045   0.560 -0.0655  0.1281 -0.0514
 1555W        W17816  13.273   9.182   4.547 -0.1084  0.0040  0.2570
 1556W        W17817  11.579   2.187  15.857  0.2119 -0.1184 -0.1912
 1557W        W17818  11.664  14.734   0.365  0.2260  0.2338  0.0710
 1558W        W17819   3.896   8.018  14.793  0.2083  0.0776 -0.0080
 1559W        W17820   2.080   8.726  16.692  0.0790 -0.1550 -0.0144
 1560W        W17821   2.312   7.667   2.862  0.0685 -0.0447  0.0646
 1561W        W17822  10.407  12.368   3.376  0.0897  0.0191 -0.1172
 1562W        W17823  12.745   3.058  13.813  0.0429  0.4566 -0.0266
 1563W        W17824  13.408   6.836   4.477  0.2222  0.2073 -0.0248
 1564W        W17825   1.802  12.246   5.965  0.1278 -0.0404  0.1345
 1565W        W17826   6.452  10.790  13.030  0.0120  0.0355 -0.1199
 1566W        W17827   2.277  17.094  11.991  0.4995  0.5091  0.2175
 1567W        W17828   5.383   5.102   1.414  0.0164 -0.0964  0.2240
 1568W        W17829  10.980  17.683  14.664  0.0580 -0.1122 -0.1203
 1569W        W17830  11.783   1.121   4.245  0.0589  0.1573  0.1121
 1570W        W17831  16.038  14.089  16.119 -0.0936 -0.1447 -0.1059
 1571W        W17832  11.473  12.259  13.914  0.1202 -0.1350  0.3523
 1572W        W17833   9.768  11.031  12.234  0.1914  0.0361 -0.2789
 1573W        W17834   5.747  13.180  16.498 -0.1396  0.0300  0.0153
 1574W        W17835   7.227   9.960   4.541 -0.3594  0.0381  0.0435
 1575W        W17836   7.991  11.183   5.412  0.0907 -0.3072 -0.1220
 1576W        W17837  13.013   9.298  13.958  0.1736  0.1202  0.0673
 1577W        W17838  13.017   3.485  13.606  0.1682 -0.2408 -0.0149
 1578W        W17839   4.755   6.390  14.158 -0.0504 -0.0252  0.2042
 1579W        W17840   1.652   8.522  16.765 -0.2761 -0.1711 -0.0096
 1580W        W17841   9.108  11.207   0.828  0.1542  0.0777 -0.2101
 1581W        W17842   6.479   4.794   4.791 -0.3899  0.0383  0.2324
 1582W        W17843   4.871   1.471  13.954  0.2136 -0.2118  0.2356
 1583W        W17844  10.614   4.473  15.789  0.1717  0.1112  0.2969
 1584W        W17845   1.350   1.746   1.556 -0.0234  0.1443  0.1552
 1585W        W17846  14.279  10.784   4.184 -0.3503  0.1104  0.0668
 1586W        W17847  11.656  16.739   5.261 -0.0185 -0.3324 -0.4270
 1587W        W17848   2.625  14.585  16.480  0.2059 -0.0607 -0.4204
 1588W        W17849   0.354  11.736   1.937  0.1748  0.2703  0.1572
 1589W        W17850  10.708  16.612  15.431  0.1830 -0.1738 -0.0172
 1590W        W17851   6.076  12.273  15.136 -0.0864 -0.1044 -0.1081
 1591W        W17852   3.644   4.074   0.057 -0.0315 -0.1146  0.0420
 1592W        W17853  11.704  11.117   0.352 -0.0161  0.3154  0.0444
 1593W        W17854  10.624  13.451  14.196 -0.1476 -0.0372 -0.1407
 1594W        W17855   8.895  11.203  14.194 -0.0840 -0.0251  0.0549
 1595W        W17856  10.804   3.366   4.242  0.0851 -0.2271  0.0294
 1596W        W17857   2.948   1.235   5.322  0.0258 -0.0412  0.3178
 1597W        W17858   7.932   9.000  16.303  0.1033 -0.0644  0.1248
 1598W        W17859   9.744  13.562   6.311 -0.2984  0.2017 -0.0022
 1599W        W17860   5.954  17.739   4.920 -0.3077 -0.0115  0.0985
 1600W        W17861  12.233   4.342   1.972 -0.0038 -0.1671  0.0237
 1601W        W17862  16.573   7.164  15.918 -0.0409 -0.0181  0.0366
 1602W        W17863  11.044   5.556  10.912  0.0619  0.0735  0.1794
 1603W        W17864   5.472  12.431  15.034  0.0128  0.0075  0.2137
 1604W        W17865   3.667   4.249   5.846  0.1781  0.0584 -0.3751
 1605W        W17866  16.713   2.271   0.114  0.2200 -0.0998  0.3809
 1606W        W17867   1.925   0.072   3.990 -0.0995 -0.1212 -0.0427
 1607W        W17868   1.421   1.526  16.007 -0.1188 -0.0709 -0.1457
 1608W        W17869  13.709   1.788  14.980  0.2163 -0.0690 -0.1660
 1609W        W17870  10.222  13.026   3.777  0.2242  0.2775 -0.2989
 1610W        W17871  17.535  15.824  13.253  0.0762  0.0032 -0.0654
 1611W        W17872  16.611  12.335   1.076 -0.1494  0.3651  0.2241
 1612W        W17873   2.312   8.884   3.129 -0.1532  0.0823  0.0649
 1613W        W17874  10.374   3.817   5.373  0.0154  0.1577 -0.1357
 1614W        W17875   3.348   0.954  14.077  0.0848  0.0947 -0.1320
 1615W        W17876   8.246  15.845  12.205 -0.3066 -0.1078  0.0232
 1616W        W17877   9.078  15.059   0.640  0.2591  0.0094 -0.0799
 1617W        W17878  15.212  10.624   1.922 -0.2581 -0.4446  0.2031
 1618W        W17879   4.203  12.587   0.249  0.3004 -0.2375  0.0564
 1619W        W17880  10.347  15.515   2.083 -0.2392  0.2162  0.1664
 1620W        W17881  10.614   0.427   3.325  0.1926  0.3181  0.1538
 1621W        W17882   2.608  11.319   4.827 -0.1854 -0.3473 -0.0125
 1622W        W17883  12.086   1.787   5.208  0.1012 -0.3758 -0.1381
 1623W        W17884  14.146  15.225   0.609  0.0295 -0.0117 -0.1519
 1624W        W17885   9.598   0.057   5.749  0.1965 -0.1959 -0.1076
 1625W        W17886  12.409  15.310   2.789 -0.0469 -0.2315  0.2598
 1626W        W17887   5.782  10.586   5.329 -0.1793  0.1569  0.0438
 1627W        W17888  13.699  14.517   1.741  0.1609  0.1133  0.1152
 1628W        W17889   8.320   8.873   2.238 -0.1033 -0.0937  0.0654
 1629W        W17890   4.719   8.129   2.656  0.0715  0.2122 -0.1219
 1630W        W17891   7.669   4.757  13.965 -0.1174 -0.0202 -0.2695
 1631W        W17892  11.640  17.239   1.788 -0.1338 -0.1897 -0.2911
 1632W        W17893  16.854  12.025   4.133 -0.1503 -0.2675  0.0645
 1633W        W17894  12.849  17.706  15.217 -0.1194 -0.1175 -0.1534
 1634W        W17895   6.020  11.804   3.244 -0.1364  0.2737 -0.0863
 1635W        W17896   2.996  13.157   3.820  0.0629 -0.2638  0.1593
 1636W        W17897   5.322  11.028  11.212  0.0663  0.1313  0.0018
 1637W        W17898  12.802   3.398  15.167 -0.0755 -0.1116 -0.0784
 1638W        W17899  11.193   3.659  14.075  0.0218 -0.3358  0.0522
 1639W        W17900  15.507   4.491   3.236  0.2204  0.2142 -0.4730
 1640W        W17901  17.768   1.043   0.606 -0.0125  0.0696 -0.1192
 1641W        W17902   1.267   1.065  15.787 -0.2021  0.1092  0.0622
 1642W        W17903  10.817   8.878  12.838 -0.4009 -0.1135  0.0417
 1643W        W17904   7.223   4.618   5.241 -0.0918  0.0136  0.0415
 1644W        W17905   0.880   0.461  16.618  0.3184  0.3154 -0.2706
 1645W        W17906  17.785   3.102   5.240 -0.1652 -0.1451 -0.0068
 1646W        W17907   0.739   7.675  13.714  0.0333 -0.4074 -0.0048
 1647W        W17908   2.532   0.555   3.048  0.1538 -0.1595  0.0324
 1648W        W17909  15.056  12.274   5.954  0.0883 -0.2670 -0.2319
 1649W        W17910   9.030   4.086  14.194 -0.2407 -0.1749  0.3321
 1650W        W17911   7.100  16.728  16.685 -0.1012  0.1150  0.1282
 1651W        W17912   7.221  16.226   2.350  0.1999  0.3021  0.1518
 1652W        W17913   4.600   8.600  14.920 -0.1525 -0.4559  0.3376
 1653W        W17914  11.208  10.944   6.017 -0.0889  0.0586  0.3332
 1654W        W17915   0.620   4.246   2.556  0.0638 -0.0825  0.1165
 1655W        W17916   0.110   0.505  14.007  0.2915  0.1651 -0.0613
 1656W        W17917   7.659   9.705   3.590  0.0912  0.0468  0.0608
 1657W        W17918   7.477   7.433   4.658 -0.1623 -0.0441 -0.2316
 1658W        W17919   8.346   2.766   2.265 -0.1410  0.1497 -0.0714
 1659W        W17920  10.139   5.367   2.630 -0.0047  0.0363 -0.0178
 1660W        W17921  15.123   4.950   0.582 -0.2395  0.1121 -0.0371
 1661W        W17922   1.790  17.228   2.000 -0.0199 -0.2341  0.1991
 1662W        W17923  11.434   2.082   1.111  0.3383  0.0622  0.1743
 1663W        W17924   4.626  17.786   1.118  0.2524 -0.1046  0.2083
 1664W        W17925  16.867  12.026   3.015 -0.1068  0.1005 -0.1441
 1665W        W17926  16.133  16.158   1.304  0.0021 -0.1990 -0.0304
 1666W        W17927  17.327   2.301  15.362 -0.1892 -0.1641  0.3432
 1667W        W17928   5.700  17.804   0.079  0.1169 -0.1821  0.2413
 1668W        W17929  15.348   0.526   2.740  0.0066 -0.3743  0.2078
 1669W        W17930  11.027  15.830   2.762 -0.0361  0.1067  0.1539
 1670W        W17931   0.370  11.037   1.537  0.0474 -0.2124  0.0170
 1671W        W17932   0.280  12.149  13.576 -0.0174  0.1088  0.0015
 1672W        W17933  15.000   9.886  14.566  0.0630 -0.0783  0.0905
 1673W        W17934   1.011  15.604   3.754 -0.2888  0.3893  0.3083
 1674W        W17935  17.143   9.998   0.903  0.0750  0.3405 -0.0547
 1675W        W17936   7.714   5.142  15.326 -0.0731 -0.3057  0.1621
 1676W        W17937  14.691   6.313   4.549  0.2016  0.0993  0.0725
 1677W        W17938  10.670  14.199  14.914 -0.1060 -0.1201 -0.0178
 1678W        W17939   9.171   3.156   0.587  0.2042  0.1567 -0.0150
 1679W        W17940   3.082  16.155  12.363  0.0964  0.0144 -0.2388
 1680W        W17941   2.556   1.406  13.988  0.0834 -0.0612 -0.0184
 1681W        W17942   3.068  10.666   4.518 -0.1315 -0.0049  0.1320
 1682W        W17943   3.539  17.551   0.358 -0.0007  0.2047 -0.0275
 1683W        W17944   1.162   1.990  14.637 -0.1738 -0.1383  0.2552
 1684W        W17945   3.987  13.703   3.909  0.1173 -0.0546  0.1807
 1685W        W17946   8.134   1.540   5.732  0.0030  0.0274 -0.2315
 1686W        W17947  13.797  13.242  12.379 -0.0316  0.1341 -0.2921
 1687W        W17948   0.052  15.323   0.007  0.3119 -0.0039  0.2515
 1688W        W17949   1.014   7.043  11.760  0.2624 -0.1129 -0.1249
 1689W        W17950   0.271  17.232  14.420  0.0547  0.2906  0.1271
 1690W        W17951   1.289   8.217   3.752  0.0397 -0.0599 -0.0093
 1691W        W17952   1.976  15.307  12.692  0.1873  0.0950  0.0865
 1692W        W17953  14.860  12.840   5.300  0.0068  0.1526 -0.0223
 1693W        W17954  10.935  14.964   1.648 -0.2616  0.2938  0.0974
 1694W        W17955   8.563   2.332  14.288  0.1139 -0.0211 -0.0116
 1695W        W17956   0.436  12.072  15.470 -0.2238  0.2741 -0.3791
 1696W        W17957   8.219  12.822  16.983 -0.3009 -0.1763  0.2539
 1697W        W17958   8.412  13.842   3.711 -0.2585 -0.1675 -0.3327
 1698W        W17959   2.887   0.235  16.325 -0.0733 -0.1546 -0.2173
 1699W        W17960  15.634   2.300  13.993 -0.2228 -0.0920 -0.3298
 1700W        W17961  10.348   6.727   2.907  0.2061  0.3873  0.1052
 1701W        W17962   8.603   6.150   2.388 -0.2797 -0.1751  0.2106
 1702W        W17963  16.765   9.654  13.675  0.1753  0.0394 -0.1037
 1703W        W17964  10.886  14.134   0.091 -0.3128  0.0713 -0.1587
 1704W        W17965  16.984   2.658  12.600  0.1490 -0.0808  0.2628
 1705W        W17966  13.868  17.376  14.392  0.1048 -0.1072 -0.1013
 1706W        W17967   0.373  17.707   5.451  0.2250  0.1440  0.2262
 1707W        W17968   0.693  16.008   3.987 -0.0430 -0.2062  0.2087
 1708W        W17969  13.368  17.503  14.353 -0.1827  0.0568 -0.1133
 1709W        W17970   4.370   3.135   3.809 -0.2941  0.2117 -0.2652
 1710W        W17971  11.994   9.156   5.774  0.1550  0.0384  0.3464
 1711W        W17972   9.733   0.663  11.801 -0.2448 -0.0009 -0.0054
 1712W        W17973  10.162   3.277   6.019  0.0504  0.1428  0.0526
 1713W        W17974   8.140   8.417   1.875 -0.3071  0.0320  0.1292
 1714W        W17975   7.307  14.488  12.177 -0.3916 -0.0641 -0.1717
 1715W        W17976  10.029  14.179  15.828  0.0294 -0.0055  0.0826
 1716W        W17977  16.048   6.839   4.742  0.0856  0.0326 -0.2867
 1717W        W17978  13.959  12.016   3.225 -0.0472 -0.0160 -0.2029
 1718W        W17979  15.335   2.931   3.895 -0.2408 -0.0251  0.1042
 1719W        W17980   8.405   9.495  12.323 -0.1321 -0.1651 -0.2886
 1720W        W17981   4.848   5.948   2.580  0.0931  0.0599 -0.1305
 1721W        W17982  11.658   1.434   2.013 -0.1438 -0.0007 -0.0234
 1722W        W17983   3.796   8.741   4.306  0.0914 -0.0113  0.0753
 1723W        W17984   5.269   6.770  14.699  0.1337 -0.0713  0.0556
 1724W        W17985   9.932  13.230  15.204  0.1462 -0.3948  0.2172
 1725W        W17986   4.972   7.046   4.416  0.2586 -0.0745 -0.1407
 1726W        W17987  13.221  17.724   6.245 -0.4337 -0.0273 -0.0033
 1727W        W17988   4.519   5.795   2.980  0.2560 -0.2179  0.1429
 1728W        W17989  10.576   0.963   0.145 -0.0238 -0.2115  0.0299
 1729W        W17990   9.534  14.490  16.512  0.0289 -0.0916 -0.1714
 1730W        W17991  12.325  17.053   4.086  0.1750 -0.1481  0.0893
 1731W        W17992   9.943   4.869  15.522 -0.1026 -0.0051 -0.0115
 1732W        W17993  15.746  11.631  16.284  0.2470  0.3465 -0.1018
 1733W        W17994  17.077   3.177   4.296 -0.0393  0.2463 -0.0199
 1734W        W17995  14.676   7.070   0.661  0.0953  0.3180  0.1030
 1735W        W17996   5.086   8.606  11.117 -0.2186 -0.0487 -0.2121
 1736W        W17997   7.894   6.443  15.627 -0.0714  0.0303  0.0796
 1737W        W17998   6.947  12.842  15.936  0.1095 -0.0587 -0.1304
 1738W        W17999   2.944   3.021  12.296  0.2154  0.0951 -0.1288
 1739W        W18000   6.179  10.185  12.958  0.1600 -0.1707  0.0867
 1740W        W18001   3.860   9.734  12.955  0.0723  0.1324  0.0442
 1741W        W18002   4.949  13.083   1.432  0.2559  0.1147 -0.0109
 1742W        W18003  16.149  14.871  14.786  0.0285 -0.2676 -0.2665
 1743W        W18004   0.931   9.135   2.611 -0.2643 -0.0094  0.1860
 1744W        W18005   3.805  11.433   5.433 -0.1975 -0.2523 -0.1971
 1745W        W18006  17.303  17.663  14.302  0.1334 -0.0209 -0.1945
 1746W        W18007  13.144  10.606  16.037  0.4536 -0.3881 -0.0973
 1747W        W18008  16.781   9.136   2.020 -0.1262  0.0715 -0.0738
 1748W        W18009   3.533  17.001   4.977  0.0009  0.3191 -0.3328
 1749W        W18010   4.286   1.830   0.571 -0.1920  0.0183 -0.0270
 1750W        W18011   3.564   2.030  16.436 -0.0108  0.0285 -0.4001
 1751W        W18012  16.800  16.824  16.654 -0.0201 -0.1066 -0.2299
 1752W        W18013   7.549   8.087  15.479 -0.1752  0.2259 -0.0842
 1753W        W18014  11.860   6.531   3.521  0.2336 -0.0863  0.1317
 1754W        W18015   5.523  15.728   5.179 -0.0168 -0.1386  0.0785
 1755W        W18016   8.273   0.613  15.919 -0.0294  0.3161  0.3166
 1756W        W18017  17.204  10.011   2.235  0.1451 -0.2019 -0.2513
 1757W        W18018  11.491  15.931  13.255 -0.2023  0.2800  0.0137
 1758W        W18019   3.288  17.687   3.492  0.0544 -0.0131  0.0063
 1759W        W18020  16.615  13.918   2.323  0.0140  0.1555  0.1207
 1760W        W18021   9.921  14.361   4.075  0.0176 -0.3795  0.1594
 1761W        W18022  13.522   4.490  12.336  0.2483  0.1880  0.1029
 1762W        W18023   9.052   8.594  11.064  0.0222  0.2554  0.1977
 1763W        W18024   8.492  11.985  15.639 -0.1919  0.1085  0.2354
 1764W        W18025  12.293   0.059   4.784 -0.2111 -0.0287  0.0622
 1765W        W18026   0.628   9.324  16.553 -0.3175  0.2357 -0.0803
 1766W        W18027  14.393   7.410   5.269 -0.5085  0.1048 -0.4845
 1767W        W18028  12.990  15.625  13.106 -0.3050  0.1317  0.2060
 1768W        W18029   6.819   9.465   0.068 -0.1434 -0.2496  0.2662
 1769W        W18030  10.269  16.010   1.942  0.0831  0.1245 -0.0945
 1770W        W18031  10.674   9.818  16.505 -0.1209  0.1291  0.2302
 1771W        W18032   9.399  17.398  13.937 -0.3393  0.1930 -0.0998
 1772W        W18033  14.890   4.509   0.411  0.1731 -0.0161 -0.0542
 1773W        W18034  13.685  13.936   0.911  0.1660  0.0161  0.0818
 1774W        W18035  14.942  10.666  13.225  0.1889  0.0594  0.0959
 1775W        W18036   8.556   8.145  14.266 -0.0743 -0.0652  0.2125
 1776W        W18037   3.322  16.810  15.944  0.1382 -0.0880  0.2824
 1777W        W18038  16.466   7.399   0.964  0.0247  0.3362  0.0035
 1778W        W18039  12.117  17.462   3.777 -0.0837  0.0331 -0.2378
 1779W        W18040   5.017   7.658   5.428  0.0103  0.0946 -0.3101
 1780W        W18041   2.484  15.651   3.067 -0.0042 -0.0897 -0.0473
 1781W        W18042   4.385   1.572   0.169 -0.1539 -0.0930  0.1819
 1782W        W18043   4.911   2.242  14.314 -0.2453 -0.1195  0.0480
 1783W        W18044  17.093  11.920  14.514  0.0334  0.0203  0.3855
 1784W        W18045   5.849  12.377   6.422  0.0971 -0.0278  0.1038
 1785W        W18046   9.008  16.858  12.901 -0.1033 -0.4440 -0.0172
 1786W        W18047  10.370   4.084  15.947 -0.1215  0.0401 -0.0931
 1787W        W18048  12.645  16.600   1.176  0.3752  0.0373  0.1346
 1788W        W18049   0.619  17.621   4.596  0.0430  0.1896 -0.1100
 1789W        W18050  13.292   8.716   5.427 -0.3064  0.1230 -0.0545
 1790W        W18051  13.946  16.265   3.905 -0.0051 -0.0194  0.3643
 1791W        W18052  15.551  15.844  11.557  0.3109  0.1376  0.0546
 1792W        W18053   0.716  14.072  12.102  0.1169 -0.0231 -0.0365
 1793W        W18054  12.952  12.958  16.274  0.0342 -0.0564  0.1895
 1794W        W18055   5.274   5.092  12.357 -0.3826 -0.0051  0.1312
 1795W        W18056  14.030   5.291  14.481 -0.2345 -0.0437 -0.1289
 1796W        W18057   4.323  16.556  14.604  0.0705 -0.1092  0.0860
 1797W        W18058  12.687  12.873   1.552  0.2411  0.1104  0.0581
 1798W        W18059   6.391  12.509   1.433  0.1981 -0.0313 -0.1330
 1799W        W18060   1.147  15.550  12.307 -0.0105  0.1944 -0.0906
 1800W        W18061   3.922   0.082  12.232 -0.0788  0.1578 -0.1466
 1801W        W18062  17.240   0.180   1.453  0.0832 -0.0117 -0.3065
 1802W        W18063   8.414  13.290   5.390  0.2924  0.0095 -0.0775
 1803W        W18064   2.107  11.198  14.102 -0.2625 -0.1597 -0.1145
 1804W        W18065   6.385   6.687   5.957  0.0449 -0.2349  0.0644
 1805W        W18066   9.959  14.330  11.811  0.2281  0.0771 -0.0570
 1806W        W18067  11.861  14.590   5.547 -0.0832  0.1250  0.1345
 1807W        W18068  16.524  15.666  14.424 -0.0732 -0.0307 -0.1344
 1808W        W18069   7.707  12.341  16.230 -0.0705  0.0510 -0.0765
 1809W        W18070   2.544   1.728   5.599 -0.1011  0.1700 -0.1441
 1810W        W18071  11.965   4.670   4.542 -0.2672  0.2209 -0.2222
 1811W        W18072   9.116  10.750  12.853  0.1492  0.0182 -0.1111
 1812W        W18073  13.783   9.434   2.048 -0.0886  0.1758  0.1127
 1813W        W18074  12.089  10.199  13.885 -0.1607  0.0933  0.1208
 1814W        W18075   6.828   3.581   3.671  0.2455 -0.1042  0.1037
 1815W        W18076   1.147   1.238  15.256  0.2513 -0.3162  0.0943
 1816W        W18077   7.066   2.125  13.837  0.1908  0.0295 -0.1496
 1817W        W18078   1.139  13.462   3.224 -0.0607 -0.1913  0.1726
 1818W        W18079   4.952   3.403   5.104 -0.4455 -0.1894 -0.2851
 1819W        W18080  15.270   4.242  11.956 -0.0996 -0.0396 -0.0087
 1820W        W18081   0.498   6.473  15.521  0.0159  0.0503  0.0336
 1821W        W18082   4.689   7.844  15.098 -0.0984  0.0591  0.2208
 1822W        W18083   0.385  13.315   5.604  0.1729 -0.2753 -0.1076
 1823W        W18084   6.731   5.047  12.241  0.1578 -0.1212 -0.2141
 1824W        W18085  17.356   0.816  16.779 -0.0873 -0.0571  0.1620
 1825W        W18086   5.992  12.554  14.481  0.1946 -0.0005  0.1743
 1826W        W18087  10.305  16.124   3.814 -0.2070 -0.1370 -0.0812
 1827W        W18088   6.782  14.347   4.539 -0.3666  0.1198  0.0854
 1828W        W18089  14.260   8.763  14.520  0.0328  0.0156 -0.1110
 1829W        W18090   7.266  14.316  15.065  0.0885  0.2037 -0.1403
 1830W        W18091   1.175   9.904   1.874 -0.0520  0.3323  0.0595
 1831W        W18092  17.671   0.737  15.839 -0.0588 -0.1926 -0.0674
 1832W        W18093   0.249  10.972   0.473  0.1891  0.0115 -0.2542
 1833W        W18094  14.835  13.917   1.575 -0.1587  0.1950  0.0850
 1834W        W18095  10.920  10.206  12.098  0.0293 -0.2151  0.1060
 1835W        W18096   3.872   3.487   6.177  0.1994  0.0808  0.0181
 1836W        W18097  13.916  15.906  13.463 -0.2110  0.1333 -0.2093
 1837W        W18098   3.502   3.205  13.077 -0.0307 -0.0680 -0.2462
 1838W        W18099  11.333  10.069   0.716  0.0198  0.1657  0.1812
 1839W        W18100   2.483   6.340   2.606 -0.2679  0.1807 -0.1596
 1840W        W18101  17.620   0.389   1.768 -0.3555  0.1129  0.1401
 1841W        W18102   3.400  16.630   4.724 -0.1875 -0.0026 -0.0588
 1842W        W18103  17.614   9.160   0.991  0.1608  0.0923 -0.1177
 1843W        W18104   5.185  13.025  13.149 -0.3012 -0.1465 -0.0271
 1844W        W18105  13.187  10.023   4.058  0.3155  0.1068  0.1338
 1845W        W18106  11.569  11.987  14.935  0.0533  0.2041 -0.1126
 1846W        W18107   3.620   3.512  14.089  0.1218  0.0629  0.1208
 1847W        W18108   6.347  15.954  16.886  0.0654  0.1224 -0.2048
 1848W        W18109  17.126   8.336  16.114 -0.1751 -0.1016 -0.0333
 1849W        W18110   6.928   7.583  13.351 -0.0689 -0.3685  0.1967
 1850W        W18111   8.547   2.855  13.183 -0.0646  0.1888  0.0436
 1851W        W18112  14.478  14.249   2.275  0.1773  0.0339 -0.0841
 1852W        W18113   5.966  14.518   6.600  0.0587  0.0279  0.0607
 1853W        W18114  15.090   0.277   0.165 -0.0494  0.1927  0.1584
 1854W        W18115   6.909   9.045  12.927  0.0433 -0.1120  0.0074
 1855W        W18116   0.025  10.812   0.035  0.2137 -0.1577  0.1057
 1856W        W18117   2.565   5.564  11.809 -0.0180  0.2564  0.2713
 1857W        W18118   5.802  14.828   3.634 -0.1458 -0.3215 -0.2537
 1858W        W18119   6.444  15.396  10.853 -0.2036 -0.0477  0.1484
 1859W        W18120  11.494   7.557  15.507 -0.0455  0.2770  0.1336
 1860W        W18121   3.966   6.941   1.172  0.0413 -0.0042  0.1106
 1861W        W18122  12.366   0.076   1.363 -0.1047  0.1521  0.0077
 1862W        W18123  11.824  10.533   0.269  0.0698  0.0400  0.1766
 1863W        W18124  12.189   2.443  13.649 -0.0356  0.1396 -0.1304
 1864W        W18125   0.763  17.809  16.541 -0.2091  0.1009  0.1571
 1865W        W18126   9.024  14.547  16.320 -0.1038  0.2348  0.0045
 1866W        W18127   0.687  11.532   1.501 -0.2357  0.1313 -0.3887
 1867W        W18128   6.413   8.984   4.861  0.0339 -0.1060  0.1797
 1868W        W18129   5.043   3.952   0.393  0.1501  0.2323  0.1701
 1869W        W18130  11.834  14.410  13.529 -0.2715 -0.2388  0.1807
 1870W        W18131   6.533   0.928   5.583 -0.1465 -0.0379 -0.3239
 1871W        W18132   7.137  17.575  12.848 -0.0700 -0.3236 -0.0085
 1872W        W18133   6.575   2.254   2.593 -0.3140  0.1134 -0.0196
 1873W        W18134  11.051   7.913   1.570  0.4036 -0.0050 -0.0089
 1874W        W18135   8.509  12.068  13.552 -0.0857 -0.0408 -0.3438
 1875W        W18136  11.026  13.979   4.505  0.2351 -0.3393  0.0593
 1876W        W18137  15.080   3.012   0.121  0.3209 -0.1655  0.2255
 1877W        W18138  12.282  10.221   5.201  0.0100 -0.0322 -0.0447
 1878W        W18139  16.344  11.541  13.220  0.0889 -0.3974 -0.1151
 1879W        W18140   5.345   7.177   6.304  0.2160 -0.2253 -0.0643
 1880W        W18141   7.115   4.787   2.386 -0.2976 -0.0199  0.0344
 1881W        W18142   2.943   1.852  14.306  0.0598  0.1954 -0.0793
 1882W        W18143   0.182  11.283   2.284  0.1895  0.2507 -0.0150
 1883W        W18144   6.045   9.012  13.933 -0.0370 -0.2736 -0.2409
 1884W        W18145  15.088   9.870   5.305  0.0458 -0.0679 -0.2202
 1885W        W18146  12.885   0.852  14.798  0.0178 -0.2856  0.0912
 1886W        W18147  16.980  10.302  16.365 -0.0573 -0.1902 -0.1957
 1887W        W18148   4.188   5.503  15.626  0.1562 -0.2717 -0.1848
 1888W        W18149   2.083   4.033  10.947  0.0396 -0.1890 -0.4625
 1889W        W18150   4.715   1.864   6.202 -0.0033 -0.1817 -0.2689
 1890W        W18151   8.247  16.142   1.885 -0.2427 -0.0015  0.2618
 1891W        W18152   3.723  12.959  12.836 -0.0993 -0.0200 -0.1055
 1892W        W18153   8.264  10.891  14.872 -0.1220  0.1113 -0.2074
 1893W        W18154  16.273  10.170   1.497 -0.1876  0.1958  0.4291
 1894W        W18155  10.939   0.770  14.220  0.0366  0.0708 -0.1856
 1895W        W18156  11.274   9.313  12.483 -0.0772 -0.0666  0.0251
 1896W        W18157   7.682   8.125  14.828 -0.2479 -0.2791  0.2192
 1897W        W18158   0.576   9.087  15.314  0.1113  0.0386 -0.1077
 1898W        W18159  13.584   9.583  12.692 -0.0587  0.2150  0.0373
 1899W        W18160  16.884   2.427   0.657 -0.1357 -0.2706  0.0449
 1900W        W18161   3.067   9.701   2.057 -0.2013  0.2872  0.0719
 1901W        W18162   7.492   3.331   4.765 -0.1046  0.0639 -0.0161
 1902W        W18163   2.935  15.667  14.883 -0.0548  0.1556 -0.0058
 1903W        W18164   1.500  15.678   2.901  0.0575  0.0087  0.0118
 1904W        W18165   8.117  16.066   4.044 -0.3366  0.3252 -0.1386
 1905W        W18166   1.348   6.029  12.431 -0.1177 -0.1345  0.1115
 1906W        W18167   2.838  13.134  11.849  0.2616 -0.0406  0.1121
 1907W        W18168   7.074  13.928  14.114  0.1274  0.0291 -0.1699
 1908W        W18169   5.349   9.902   3.296  0.0393  0.1912 -0.1963
 1909W        W18170  16.160  16.331  16.120 -0.0864 -0.1051 -0.0905
 1910W        W18171  14.081  16.862  14.061 -0.5546  0.2021 -0.3670
 1911W        W18172   0.441  13.603   6.081 -0.2302 -0.1372  0.1447
 1912W        W18173  13.577  11.054  12.770  0.1008 -0.1949 -0.3397
 1913W        W18174   2.561   4.399   0.991 -0.3342  0.1820  0.1048
 1914W        W18175   3.369   8.677   2.454 -0.3086  0.5276  0.2722
 1915W        W18176   0.491   1.502  14.025 -0.2204  0.0958 -0.0624
 1916W        W18177  10.649   2.526   3.749  0.2491 -0.3857  0.1360
 1917W        W18178  15.856   9.235   5.346  0.0361 -0.3119  0.2367
 1918W        W18179  11.889  13.060   6.497  0.0412  0.2349 -0.2421
 1919W        W18180   3.878   6.000   4.889  0.1049  0.0302 -0.1356
 1920W        W18181   0.308   0.710  15.892 -0.0706  0.0410 -0.1128
 1921W        W18182   1.362  15.097  14.104  0.2232 -0.3766 -0.0237
 1922W        W18183   9.901   1.519   1.483 -0.0012 -0.1093  0.1521
 1923W        W18184   2.717  16.252  15.248 -0.0189 -0.2738 -0.3334
 1924W        W18185  11.774   6.981  14.265  0.3926  0.3311  0.2816
 1925W        W18186  15.769   0.920   0.106 -0.3556  0.0556  0.3170
 1926W        W18187   5.291   9.292   3.767  0.0456 -0.2788 -0.1746
 1927W        W18188   9.591   4.380  16.305  0.0679 -0.0099 -0.0027
 1928W        W18189   8.145   6.115  16.026 -0.0617 -0.0199 -0.3009
 1929W        W18190  14.561   4.097   3.022  0.0053  0.1412  0.1276
 1930W        W18191  10.531   4.382   3.591  0.3567  0.2049  0.1857
 1931W        W18192  14.880  11.859   0.537  0.1557  0.0670  0.5015
 1932W        W18193   6.972  10.565   1.679  0.0515 -0.0612 -0.1758
 1933W        W18194  13.523  12.445  13.915 -0.0837  0.1608 -0.0273
 1934W        W18195   1.257   3.516  15.172 -0.0314 -0.0629  0.1550
 1935W        W18196   1.891   8.352  15.598  0.2922  0.0459  0.0469
 1936W        W18197   8.104   3.535   3.075 -0.0085 -0.1330  0.2185
 1937W        W18198  13.021   3.422  13.129 -0.0196  0.1763  0.2732
 1938W        W18199   0.560   5.125   4.864  0.1766  0.1718 -0.2428
 1939W        W18200   0.308  17.343  15.794  0.0057  0.1974 -0.1636
 1940W        W18201  14.470   6.571  12.377 -0.0955  0.1468 -0.0397
 1941W        W18202  16.975   2.229  15.695  0.0562 -0.0785  0.0901
 1942W        W18203  14.015   6.339   0.443 -0.4178  0.0800  0.1522
 1943W        W18204   6.723  16.195   5.189  0.2110 -0.1532  0.0568
 1944W        W18205   3.361  16.855  16.406  0.1848 -0.2466 -0.1874
 1945W        W18206   3.159   3.862  12.601  0.0516 -0.1313  0.1074
 1946W        W18207   0.571   3.755   1.930 -0.0975 -0.0306 -0.0106
 1947W        W18208  14.335   0.905  16.245 -0.0103 -0.0737  0.0278
 1948W        W18209   3.324   4.306  12.298  0.1065  0.1542 -0.0390
 1949W        W18210  16.920   6.135   1.147 -0.0739 -0.4539 -0.1495
 1950W        W18211   2.433  15.038  16.602 -0.1617  0.0019 -0.2675
 1951W        W18212   6.673   1.007   5.088 -0.1090 -0.0109 -0.0926
 1952W        W18213   6.597  15.342  12.623  0.1478 -0.0933  0.2774
 1953W        W18214   3.722   7.363   5.656  0.0552  0.2185  0.0167
 1954W        W18215  17.580   7.197   3.000  0.0556  0.1567  0.0550
 1955W        W18216   1.719   7.250   5.225 -0.0044 -0.0681  0.0557
 1956W        W18217   9.867   6.916   5.185 -0.2013  0.1020  0.0146
 1957W        W18218  11.933   6.428   2.147 -0.0560 -0.3830 -0.0234
 1958W        W18219  14.104   2.730  13.042 -0.1836  0.0219 -0.0692
 1959W        W18220   7.293  16.368   4.549  0.0206 -0.0701  0.1915
 1960W        W18221  13.907   7.707   0.110  0.0663  0.2319 -0.2744
 1961W        W18222  14.885   7.571  15.124  0.0782  0.2578 -0.1199
 1962W        W18223   5.905   6.747  16.701  0.0948 -0.2418 -0.0024
 1963W        W18224  15.157  12.127   0.873  0.2021 -0.0516 -0.0183
 1964W        W18225   8.268  17.813   3.568  0.0400  0.0818 -0.0494
 1965W        W18226  16.760  10.740  16.199 -0.0605  0.0141  0.1012
 1966W        W18227   3.739  10.046   4.691 -0.1086  0.0402 -0.0195
 1967W        W18228  15.558   8.049  14.733 -0.2345  0.0256  0.0737
 1968W        W18229  10.142   8.488   2.536 -0.1856 -0.0363 -0.1495
 1969W        W18230   8.448   3.003  14.075  0.0710 -0.0025  0.3499
 1970W        W18231   5.249   1.304  15.865  0.0825  0.0284  0.4861
 1971W        W18232  11.067  15.854   0.941 -0.0241  0.1898  0.1005
 1972W        W18233   7.683   5.057   4.727  0.1839  0.3579  0.0005
 1973W        W18234  16.030   5.058   2.552 -0.0249  0.0470  0.0539
 1974W        W18235   5.054  14.533   6.456 -0.4288 -0.0873  0.1045
 1975W        W18236   6.627  11.913  12.197  0.0146  0.1277 -0.2633
 1976W        W18237   8.982   7.456   3.293  0.0037 -0.1628 -0.0385
 1977W        W18238   9.467  15.413   0.442  0.0526 -0.0625 -0.2194
 1978W        W18239  14.317  10.276  13.849 -0.2214 -0.1525 -0.4189
 1979W        W18240  12.655  13.612   5.074 -0.1609  0.0555 -0.0260
 1980W        W18241  15.020   8.705  15.483 -0.3785  0.0452  0.0263
 1981W        W18242  16.667  13.256   1.890  0.1795 -0.1635  0.1788
 1982W        W18243   8.692  10.787  14.481  0.4017  0.2660  0.6342
 1983W        W18244  14.207   2.315   5.136 -0.1828 -0.0802 -0.3770
 1984W        W18245   0.712   6.654   3.865  0.2795 -0.2255  0.0084
 1985W        W18246  14.652  12.560  15.675  0.0438  0.0476 -0.0957
 1986W        W18247   8.994   1.624   4.290 -0.0532  0.1335 -0.0358
 1987W        W18248   5.249  14.692   5.401  0.0386  0.1170  0.1889
 1988W        W18249   7.892   9.963  16.496 -0.0573 -0.3534  0.2772
 1989W        W18250   7.844  13.264  11.685  0.0196 -0.0298 -0.1700
 1990W        W18251   1.550   7.632  13.576 -0.1879 -0.1292 -0.0238
 1991W        W18252  17.080   3.485  12.844  0.1604  0.3967  0.1191
 1992W        W18253   5.816   2.014  15.375 -0.2598  0.0576  0.1915
 1993W        W18254  11.853  10.653  12.690 -0.1761  0.0064 -0.1085
 1994W        W18255   5.596   7.168  16.029 -0.1031  0.2519  0.0267
 1995W        W18256   5.160  12.021   5.272 -0.1275 -0.0762 -0.0216
 1996W        W18257   7.706   3.805   1.660  0.0700  0.3812  0.0017
 1997W        W18258   5.761   4.754  15.550  0.0988 -0.0644 -0.2730
 1998W        W18259   1.644  17.464  13.586  0.2091  0.1555 -0.0371
 1999W        W18260  12.620  10.723   0.052 -0.0490 -0.0064 -0.1708
 2000W        W18261   7.523   2.466   2.519 -0.1673 -0.1325  0.3375
 2001W        W18262   9.241  15.482  12.043 -0.1720  0.0945 -0.1835
 2002W        W18263   8.817  10.732   2.328 -0.4976  0.0635  0.1150
 2003W        W18264   2.105  14.245   0.181  0.1103  0.1171  0.1925
 2004W        W18265   3.579  16.540  14.067 -0.1549  0.3072 -0.1768
 2005W        W18266  15.382   0.163  15.725 -0.1409 -0.1402 -0.0073
 2006W        W18267   6.101  17.008  16.557  0.1815 -0.1348  0.2628
 2007W        W18268  14.941  16.838  13.897  0.0247  0.1287  0.1884
 2008W        W18269   0.350   2.337   4.618 -0.0948 -0.1018 -0.4354
 2009W        W18270   5.801  13.436   4.238 -0.1151 -0.2416  0.1278
 2010W        W18271  10.252  16.864  12.401 -0.0459 -0.0701 -0.4091
 2011W        W18272   0.625   0.074  14.913  0.1750 -0.2386 -0.1393
 2012W        W18273  12.082  16.829  14.513  0.3817 -0.1461 -0.1438
 2013W        W18274   4.353   9.017  12.817 -0.1898 -0.0708  0.1310
 2014W        W18275   1.087   4.067   3.128 -0.1777 -0.2844 -0.0944
 2015W        W18276   5.424  10.194  14.427 -0.0512 -0.3820 -0.0217
 2016W        W18277  14.798   7.184   4.342  0.1393  0.0943  0.0707
 2017W        W18278   3.606   4.490  14.375 -0.0852 -0.1927 -0.0186
 2018W        W18279   9.537   7.075   4.188 -0.0878 -0.0037 -0.2139
 2019W        W18280  16.187   8.481  13.669  0.0139 -0.0894  0.1135
 2020W        W18281   6.139   9.009   0.207 -0.3358  0.1230 -0.2598
 2021W        W18282   8.052  17.347   5.451 -0.0348  0.1296 -0.1167
 2022W        W18283  11.701   7.957  14.358 -0.1554  0.0162  0.1710
 2023W        W18284   8.445   3.875  16.553 -0.0314  0.0414 -0.4025
 2024W        W18285  10.216   6.015  13.950  0.0122  0.1005  0.1329
 2025W        W18286   1.492  15.157   4.013 -0.1104  0.0153 -0.4135
 2026W        W18287  14.012  16.601  16.720  0.0492 -0.2940 -0.0033
 2027W        W18288  12.453  15.542   1.269 -0.0982  0.0125 -0.2086
 2028W        W18289   5.699   1.096   2.664  0.1453 -0.0666  0.0314
 2029W        W18290   0.973   5.240  12.762  0.1576 -0.0228  0.3117
 2030W        W18291   5.881  10.585   3.457  0.0211  0.1630 -0.1170
 2031W        W18292   5.849  17.357   0.983  0.0620 -0.1682  0.1203
 2032W        W18293  14.901  10.352  16.126  0.0193 -0.1200  0.1010
 2033W        W18294   6.879   2.679  12.596  0.2998 -0.1909  0.0560
 2034W        W18295   3.465   9.451   2.141 -0.0906  0.0588 -0.1013
 2035W        W18296  16.742  17.531  13.601  0.3851  0.0733 -0.0792
 2036W        W18297   7.990  15.937   5.810  0.0154  0.0450 -0.0727
 2037W        W18298   2.810   4.705   4.003  0.0850  0.3756  0.1601
 2038W        W18299  14.490   2.202  11.562  0.2354  0.1922 -0.1018
 2039W        W18300  17.373  13.398  12.477  0.6855 -0.0042 -0.1746
 2040W        W18301   6.696  17.275   2.901  0.1241  0.0118 -0.1596
 2041W        W18302   6.189  16.344  14.752 -0.1420 -0.3342  0.1466
 2042W        W18303  17.782  16.826   5.221 -0.2751  0.2118  0.3947
 2043W        W18304  17.334   1.078   5.065 -0.2062  0.0185 -0.0085
 2044W        W18305  17.083  14.201   4.201  0.0653 -0.0803  0.2012
 2045W        W18306   0.408   0.171  16.791 -0.0168 -0.1293 -0.0494
 2046W        W18307   0.120   5.073   2.286 -0.4955  0.0160 -0.1058
 2047W        W18308  10.131   7.967  16.038  0.1340  0.0773  0.3052
 2048W        W18309  14.392   9.520   0.063  0.0581 -0.1305  0.1409
 2049W        W18310  16.712   1.469  16.755 -0.0326 -0.1984 -0.0681
 2050W        W18311  10.716  10.860   6.618  0.0790  0.2569 -0.0609
 2051W        W18312   8.556  14.747  12.489 -0.0761 -0.1041 -0.1403
 2052W        W18313  15.788   3.757  14.218 -0.1390  0.1901  0.1648
 2053W        W18314   0.045   7.238   3.472  0.0793 -0.0737  0.0185
 2054W        W18315  16.997   0.019  16.626  0.3743  0.4301 -0.1829
 2055W        W18316  13.941  13.953  16.825 -0.0103  0.0691 -0.4511
 2056W        W18317   7.200   2.815  13.149 -0.0112  0.1044  0.0510
 2057W        W18318   3.994  15.708   5.879 -0.3238  0.0237  0.3829
 2058W        W18319  15.014  10.942   4.770  0.2657 -0.1233  0.3838
 2059W        W18320   7.892  13.546  14.081  0.2804  0.0508 -0.1954
 2060W        W18321  14.603   9.492   1.410  0.0136 -0.0652 -0.0851
 2061W        W18322   6.847   4.234  11.736 -0.2014 -0.2004  0.0607
 2062W        W18323   4.793   7.794  12.293  0.1211  0.1766 -0.1183
 2063W        W18324   5.791  14.917  12.386  0.0824 -0.2340  0.2973
 2064W        W18325   6.985  15.396   0.725 -0.2263  0.1500  0.0987
 2065W        W18326  12.500   0.015  16.062  0.0990 -0.1329 -0.0267
 2066W        W18327   5.058  10.106  13.187  0.2567  0.0613 -0.0330
 2067W        W18328  16.663  17.843  16.050  0.0787 -0.1052  0.5593
 2068W        W18329  16.111  17.508   4.717 -0.2451 -0.1643 -0.1959
 2069W        W18330  12.169  14.789  15.314 -0.1096 -0.1800  0.0025
 2070W        W18331   5.489  16.092   2.210 -0.1488 -0.3021  0.1556
 2071W        W18332   6.268  15.835  12.479  0.2229 -0.0941 -0.0553
 2072W        W18333  17.414  15.986   3.598 -0.2773 -0.0966 -0.0884
 2073W        W18334  11.651  11.178   5.945  0.1334  0.0188  0.0271
 2074W        W18335   8.874   2.588  16.714 -0.1831  0.0370 -0.5067
 2075W        W18336   1.863  11.126  15.930  0.0403  0.0476 -0.0774
 2076W        W18337   3.408  13.546  12.381  0.1079 -0.2202  0.0304
 2077W        W18338  17.114   7.197   4.052  0.2451  0.3600  0.1990
 2078W        W18339  15.306   6.566   1.202 -0.1129 -0.0808  0.2545
 2079W        W18340   3.342  13.636  16.639 -0.0818  0.0589 -0.1443
 2080W        W18341  12.071   7.420   2.152 -0.1544 -0.2543 -0.2405
 2081W        W18342   1.969  13.004   2.733 -0.0655 -0.3192 -0.3403
 2082W        W18343   1.620  17.674  14.035  0.2081 -0.1144 -0.2669
 2083W        W18344   3.109   8.580  12.535 -0.1455 -0.1324 -0.2833
 2084W        W18345  12.638  13.116   5.330 -0.0566 -0.1886 -0.0377
 2085W        W18346   2.551   3.348  16.627  0.2712 -0.3405 -0.2513
 2086W        W18347   9.250  10.305  11.836 -0.0258 -0.0181 -0.1900
 2087W        W18348   3.563  12.786  13.798 -0.1126  0.0412 -0.1557
 2088W        W18349   8.336   1.349   3.115  0.1409 -0.0777  0.0080
 2089W        W18350   1.505   6.388   5.867 -0.0001 -0.0601  0.0547
 2090W        W18351   0.780   2.475   2.958  0.2501  0.2148 -0.1515
 2091W        W18352  17.194  14.276   2.345  0.0888  0.0806  0.1453
 2092W        W18353   9.683   8.743  12.296 -0.2762 -0.1642 -0.4500
 2093W        W18354   6.003   8.979  16.669 -0.3726  0.0721  0.0619
 2094W        W18355  14.057   3.453  15.159  0.0209  0.0805 -0.3112
 2095W        W18356  12.018  10.987   0.875 -0.0111 -0.0700  0.3264
 2096W        W18357  14.895  12.829  16.122 -0.2741 -0.1999 -0.0807
 2097W        W18358   4.274   9.475  12.152  0.1667  0.0506  0.3451
 2098W        W18359  17.846  10.752  12.296  0.4645  0.2192 -0.1092
 2099W        W18360   1.837  16.483  15.482 -0.0396 -0.2551 -0.0052
 2100W        W18361  14.171   8.886   2.469 -0.1427 -0.0989  0.1005
 2101W        W18362  12.279   4.816  10.700 -0.2170 -0.1360 -0.0320
 2102W        W18363   9.190  17.640  13.153 -0.2363  0.2476  0.5161
 2103W        W18364   5.034  15.748  13.830  0.2394 -0.2607  0.0275
 2104W        W18365   6.408  12.625  16.055 -0.1634  0.1581  0.0953
 2105W        W18366   2.498   5.757  12.231  0.0495  0.1145 -0.2587
 2106W        W18367  16.017  10.651  14.179  0.1103 -0.2023 -0.0272
 2107W        W18368  16.219  12.638   3.125  0.1206  0.1362 -0.0499
 2108W        W18369  12.050   4.638   4.028 -0.3671  0.0494 -0.0554
 2109W        W18370  17.630   6.226   3.171 -0.1740  0.1433  0.1531
 2110W        W18371  12.148   9.734  12.106 -0.2305  0.1922 -0.1492
 2111W        W18372   5.960  10.782  15.209 -0.1934  0.2484  0.1204
 2112W        W18373   4.480  11.265   4.573 -0.0747  0.0209 -0.0245
 2113W        W18374   8.920   2.609  15.343  0.2169  0.0583  0.0351
 2114W        W18375   7.244   2.243   3.920  0.0447 -0.1674 -0.0850
 2115W        W18376  12.780  15.905   4.686 -0.3607 -0.0172  0.1687
 2116W        W18377  11.561   8.019   1.600  0.0833  0.0384  0.1372
 2117W        W18378   8.107   7.050   2.965 -0.2412 -0.0658 -0.0324
 2118W        W18379   7.946   8.539   3.615 -0.0315 -0.1355 -0.2635
 2119W        W18380  10.750   6.442   4.543 -0.1310 -0.0411 -0.2252
 2120W        W18381   2.315  17.253   2.086 -0.2617 -0.1373 -0.3287
 2121W        W18382   1.596  10.123  13.386  0.1542  0.1975  0.2310
 2122W        W18383   0.928   0.252   5.953  0.0219 -0.1227 -0.2029
 2123W        W18384   5.050   0.085   5.204 -0.2049  0.0396  0.2566
 2124W        W18385   9.906   3.394  12.189  0.2891 -0.0087  0.0178
 2125W        W18386   3.350   3.371  16.390 -0.0259  0.2494 -0.0806
 2126W        W18387  11.572   5.433  11.680  0.0958 -0.1126 -0.0014
 2127W        W18388   6.781  11.070   1.954  0.0398 -0.0887 -0.0604
 2128W        W18389   3.636   1.281   6.054 -0.0917 -0.0905  0.1106
 2129W        W18390  11.880   7.444  14.544  0.2513 -0.1095  0.1598
 2130W        W18391  12.546  10.229  14.219  0.0119  0.0142  0.1350
 2131W        W18392  10.735   3.591   0.166 -0.2170 -0.0314 -0.1417
 2132W        W18393  10.106   4.695  15.054 -0.1022  0.2452 -0.1596
 2133W        W18394  13.841   3.238   2.426 -0.0194 -0.0070 -0.1147
 2134W        W18395  14.676  16.609   0.101  0.0543 -0.2158 -0.1241
 2135W        W18396   3.675   3.607   4.251 -0.2265 -0.0330  0.1612
 2136W        W18397  17.417  13.218  14.136  0.1227 -0.2449 -0.1826
 2137W        W18398  15.372  13.219   0.046  0.2136  0.2404  0.2255
 2138W        W18399   3.217  10.755   1.279 -0.0382 -0.2212 -0.2012
 2139W        W18400   3.575   8.452  14.945 -0.1367 -0.0206  0.3316
 2140W        W18401  11.732   5.079  11.371  0.1007  0.1645 -0.2872
 2141W        W18402  16.259  14.164   0.072  0.0163  0.1683 -0.2362
 2142W        W18403   1.621  13.500   3.465  0.1585  0.1658 -0.1014
 2143W        W18404   6.698  14.902   5.779 -0.1100  0.0081  0.1743
 2144W        W18405  11.313   7.318  13.857 -0.1122 -0.1929 -0.0833
 2145W        W18406  13.028  11.745  15.475  0.0308  0.0578 -0.2049
 2146W        W18407   7.870   5.936  10.792 -0.2097  0.1000 -0.0882
 2147W        W18408   7.163  17.361   5.680 -0.1448  0.0384  0.2273
 2148W        W18409   8.999   8.915   4.599 -0.0616 -0.1687 -0.0275
 2149W        W18410  15.178  12.872   6.163 -0.1205  0.1907  0.3296
 2150W        W18411   3.335  14.633  11.426  0.0090  0.0373  0.0632
 2151W        W18412   3.070   4.250  16.164  0.1922 -0.1666  0.2046
 2152W        W18413   0.316   7.352   4.909  0.0840 -0.0522  0.2088
 2153W        W18414  15.235   7.484  15.516 -0.1046  0.2470  0.1964
 2154W        W18415   2.216  12.421   4.342 -0.3371 -0.0851 -0.0688
 2155W        W18416   4.047   0.106  15.144  0.0851 -0.0918  0.0463
 2156W        W18417  10.437  16.166  15.539  0.2488  0.1660 -0.1076
 2157W        W18418   7.320  11.008   4.480  0.0440  0.0348  0.1219
 2158W        W18419   9.604   3.517   4.794  0.2136  0.0582 -0.2671
 2159W        W18420   6.877  10.509  13.108 -0.1512  0.0168  0.1038
 2160W        W18421   9.252  16.058   1.073 -0.2261 -0.1468 -0.1022
 2161W        W18422  13.208   9.944   3.488  0.1607 -0.1888 -0.1710
 2162W        W18423  11.663  16.421   2.147 -0.1351 -0.1081  0.0807
 2163W        W18424   8.957  14.314  13.303 -0.1324 -0.3101 -0.0165
 2164W        W18425  14.335  15.801  16.421  0.1362  0.3694 -0.2895
 2165W        W18426  14.263  17.477   5.620  0.3275  0.0935 -0.1283
 2166W        W18427   3.478   5.859  16.678  0.1477  0.0597  0.1565
 2167W        W18428   4.126  11.121   0.671 -0.1185 -0.1250 -0.1957
 2168W        W18429   5.889   6.294  15.414  0.0274  0.1858  0.3765
 2169W        W18430  13.840   8.038  13.864  0.0760  0.0712 -0.0272
 2170W        W18431  13.240   2.860  15.709  0.3426  0.2375  0.0335
 2171W        W18432   6.953   8.691   1.931  0.1053 -0.0615 -0.0276
 2172W        W18433   9.267  14.382  14.097  0.0613 -0.0434  0.0607
 2173W        W18434  13.544  17.007  12.132  0.0522 -0.0885  0.2134
 2174W        W18435   2.900   7.486  16.956  0.3437  0.1879 -0.0258
 2175W        W18436  16.748   0.696  11.638 -0.0793 -0.3864 -0.0706
 2176W        W18437  13.603  16.643   0.101 -0.2472  0.1111 -0.0081
 2177W        W18438   3.456   0.191   0.691  0.1350  0.1876  0.4236
 2178W        W18439  12.860   2.507   5.330  0.4200  0.2245 -0.2733
 2179W        W18440   7.598   3.645  13.390  0.0812  0.0933 -0.0568
 2180W        W18441   3.968   5.602  11.788 -0.1006  0.0251 -0.1081
 2181W        W18442   2.926  11.725   4.902 -0.1715 -0.0984  0.3018
 2182W        W18443   7.460  10.789  13.867 -0.0959 -0.2246 -0.2111
 2183W        W18444  13.823   3.977  16.541 -0.2550  0.1955 -0.2028
 2184W        W18445   3.522  16.001  15.345  0.1894  0.0260  0.1913
 2185W        W18446   0.475  13.276   0.152  0.0949  0.0755  0.0986
 2186W        W18447  10.200   4.159   4.431  0.2155  0.2023 -0.0557
 2187W        W18448   2.889   7.827   5.966  0.1398 -0.0782 -0.1474
 2188W        W18449  10.744   7.352  16.343 -0.0468 -0.0374 -0.1623
 2189W        W18450   8.972  16.678  16.674 -0.2887 -0.1380 -0.1349
 2190W        W18451   6.064  14.049   1.768 -0.2656  0.0413  0.0693
 2191W        W18452   6.696  14.782  13.316 -0.2681  0.0154  0.0461
 2192W        W18453   3.889   9.800  11.967 -0.4862  0.0141  0.2288
 2193W        W18454  12.471   7.400  14.488 -0.3995  0.0201 -0.1230
 2194W        W18455  14.316   6.800  11.510  0.0748 -0.2520  0.1430
 2195W        W18456  11.289   5.106  16.105 -0.3189  0.0887  0.0518
 2196W        W18457  10.999  11.120  13.800  0.0282 -0.0327 -0.0418
 2197W        W18458  16.273  13.427   4.522 -0.2584  0.0248  0.3340
 2198W        W18459   5.729   6.152   4.098  0.5747  0.3347 -0.0265
 2199W        W18460   9.586   6.387  12.710 -0.1230  0.0276  0.2092
 2200W        W18461   5.621   7.628   2.149 -0.0086  0.0179 -0.1891
 2201W        W18462   8.147   9.476  15.079 -0.0564 -0.2450 -0.0748
 2202W        W18463   9.335   5.889   5.868 -0.0748 -0.2059  0.2702
 2203W        W18464  12.858   2.771   3.692 -0.2560  0.2012 -0.2222
 2204W        W18465  10.780   6.585   1.203  0.0082 -0.0229 -0.0584
 2205W        W18466   4.364   0.385  13.081  0.2270 -0.1536 -0.0869
 2206W        W18467   8.413   5.129  12.525  0.1238 -0.2189 -0.1576
 2207W        W18468  13.032   1.717  12.673 -0.0624 -0.2617 -0.0969
 2208W        W18469  16.873   7.163   3.585 -0.0948  0.0557  0.0201
 2209W        W18470   7.615   4.236   4.477 -0.1053  0.1702  0.0758
 2210W        W18471  16.371   8.902   2.352 -0.0023 -0.0946  0.2880
 2211W        W18472   4.721   3.832   3.202 -0.0231  0.1514  0.0974
 2212W        W18473  16.631   6.356   3.379 -0.0317 -0.1911  0.0951
 2213W        W18474  11.620  16.282   6.291 -0.1120 -0.1905 -0.0264
 2214W        W18475   0.511  14.545   0.587  0.1994 -0.0722  0.0030
 2215W        W18476   3.908  11.182   3.819 -0.1129 -0.1046 -0.2038
 2216W        W18477  17.381  10.534  13.930 -0.1902 -0.1956 -0.0856
 2217W        W18478   9.291  14.829  15.359  0.0177 -0.3439 -0.0744
 2218W        W18479   1.568   4.280   3.303 -0.0521 -0.1725  0.1967
 2219W        W18480  17.061   4.075  16.655  0.1844 -0.1974 -0.2981
 2220W        W18481  15.807   6.610  12.663  0.1701  0.1363  0.0488
 2221W        W18482   8.191   4.160   5.882  0.0041  0.2178 -0.0225
 2222W        W18483   5.044   5.507   1.676 -0.1272  0.0614  0.3141
 2223W        W18484  17.796  17.579  12.964 -0.0268  0.0133 -0.0174
 2224W        W18485  16.544  15.434  12.201 -0.1620  0.1727  0.0302
 2225W        W18486  10.878   1.250   2.430  0.0545  0.0078 -0.1133
 2226W        W18487  13.841   8.351   3.109 -0.3257 -0.1069 -0.1565
 2227W        W18488   0.426   7.679   3.422  0.1337  0.1158 -0.2199
 2228W        W18489  11.434   5.803  15.308 -0.4344 -0.0171  0.0162
 2229W        W18490   9.632   7.740  12.135  0.1857 -0.2766 -0.3138
 2230W        W18491  11.936  16.499   4.869  0.0352 -0.1440  0.1303
 2231W        W18492   5.272   9.150   4.400  0.3389  0.2871 -0.2099
 2232W        W18493  13.843   9.444  14.523 -0.0924 -0.1570 -0.1490
 2233W        W18494   5.051  10.085   5.235 -0.0034 -0.1264 -0.1893
 2234W        W18495   1.764   2.783   0.263 -0.1565  0.0168 -0.1031
 2235W        W18496  17.166  11.448  14.376  0.1256 -0.0778  0.3188
 2236W        W18497  12.125   1.951  15.697  0.2133 -0.2235 -0.1434
 2237W        W18498  15.255  14.807   6.006 -0.1921 -0.0324 -0.4293
 2238W        W18499  14.306  16.601   3.557  0.0876  0.2252 -0.1660
 2239W        W18500  14.839   6.716  13.119  0.2015  0.0565 -0.1607
 2240W        W18501   1.941   0.796  16.100 -0.1083  0.1754  0.2415
 2241W        W18502   6.437  10.634  14.978  0.3427  0.2936 -0.0162
 2242W        W18503   1.172   2.843   4.128  0.0616  0.0178 -0.0188
 2243W        W18504   0.547  14.991  11.551  0.0337 -0.0913 -0.0462
 2244W        W18505  14.375  16.094  12.017  0.0954 -0.1912 -0.1828
 2245W        W18506  17.639   1.373  11.665  0.2569  0.0641 -0.0351
 2246W        W18507   5.544  13.246  15.956  0.2831 -0.1170 -0.1114
 2247W        W18508  10.739   8.313   5.873  0.0387 -0.2829 -0.1486
 2248W        W18509  17.685  11.951   4.328 -0.1044 -0.4315  0.1168
 2249W        W18510   7.853   2.815   2.527  0.2887 -0.1491  0.3648
 2250W        W18511  12.241   4.325   2.573 -0.4686  0.0528  0.0226
 2251W        W18512  13.131   5.527  15.733 -0.1429  0.2627  0.0163
 2252W        W18513   7.455   6.981   1.792 -0.1641 -0.0828  0.0606
 2253W        W18514  11.147   6.420   5.075  0.3896 -0.0344  0.1884
 2254W        W18515   9.343   7.002   2.632  0.0358 -0.0073 -0.3078
 2255W        W18516  11.534   4.968   1.215 -0.0526  0.0511 -0.0460
 2256W        W18517   0.586   1.632  13.430 -0.0911 -0.0726 -0.0276
 2257W        W18518  14.103  16.461  12.431  0.1282 -0.0207 -0.1435
 2258W        W18519  16.740  14.110  14.992  0.2915 -0.0898 -0.1381
 2259W        W18520   4.350  14.189   5.676 -0.1533 -0.1806 -0.0117
 2260W        W18521   8.164   8.888   3.258  0.0926  0.0614 -0.0934
 2261W        W18522  17.533   6.466   3.724  0.3378  0.1263  0.0743
 2262W        W18523   8.794   4.867   3.795 -0.3049 -0.0285 -0.3771
 2263W        W18524  13.885  12.215  13.110  0.1820 -0.3163  0.2676
 2264W        W18525  17.817   0.806   3.952  0.3230  0.0962 -0.3400
 2265W        W18526   2.966  11.789   4.035  0.1095  0.0031 -0.1266
 2266W        W18527   8.044  10.293  12.073  0.1339  0.1613  0.2133
 2267W        W18528   6.906  11.739  11.700 -0.0369  0.2196 -0.1527
 2268W        W18529   6.168  12.190   0.692  0.0310 -0.5951  0.2795
 2269W        W18530   9.148   8.031  14.906 -0.2061  0.0368 -0.0426
 2270W        W18531  13.981  13.080   1.937 -0.2560  0.1107 -0.0665
 2271W        W18532   2.792   3.259   5.059 -0.1233  0.0529 -0.1993
 2272W        W18533   7.902   6.320   0.777  0.1400  0.1504  0.3521
 2273W        W18534  10.126   8.593  13.466 -0.0037  0.1407 -0.2371
 2274W        W18535  12.192  16.318  14.586  0.0052 -0.1495 -0.0586
 2275W        W18536  14.312  14.140  14.032  0.0216 -0.1367  0.2886
 2276W        W18537  13.590  12.815   3.528 -0.1338  0.1402 -0.1168
 2277W        W18538   8.600   4.541  11.831 -0.3644 -0.0534  0.0761
 2278W        W18539   8.746  10.594   3.414  0.1423 -0.1191  0.0750
 2279W        W18540   3.634  12.408   4.228 -0.0507  0.1312 -0.1933
 2280W        W18541  13.677  16.927   4.820  0.1125 -0.0220  0.1954
 2281W        W18542  11.800   0.828  14.319  0.1711  0.0259 -0.2956
 2282W        W18543   7.405   1.207   6.042 -0.0644  0.0560  0.2805
 2283W        W18544  10.188   4.645  12.551  0.0513 -0.1642  0.0706
 2284W        W18545   3.922   2.978  12.773 -0.0400  0.0061 -0.0815
 2285W        W18546   0.116  14.438   1.865 -0.2165 -0.2590 -0.0124
 2286W        W18547  17.147   0.452  14.313 -0.2319  0.1800  0.3029
 2287W        W18548   1.956   5.662  13.796 -0.1093  0.0095  0.1532
 2288W        W18549  13.579  10.414   5.397 -0.3426 -0.1566  0.0106
 2289W        W18550  17.119   2.049  16.753  0.0920  0.4140  0.0928
 2290W        W18551   6.353   8.760  14.509  0.2019  0.0529  0.3043
 2291W        W18552   9.682   3.251   4.253 -0.2695  0.1195  0.3854
 2292W        W18553   3.719  12.466  16.215 -0.2917  0.0353 -0.0864
 2293W        W18554   1.540  16.458   2.449 -0.0345  0.3613  0.0589
 2294W        W18555   7.085   6.902  15.805  0.0405  0.1459  0.1131
 2295W        W18556  14.511  14.068  14.598  0.1625  0.1891  0.1581
 2296W        W18557   7.252   0.698   4.115  0.0731 -0.1868  0.1808
 2297W        W18558   1.415   7.727  13.007 -0.2341  0.1158  0.3573
 2298W        W18559   6.474   9.741   1.304  0.1443  0.0277  0.2504
 2299W        W18560  15.304   7.043  13.069  0.1689  0.0022 -0.1628
 2300W        W18561  13.566   7.225   5.498 -0.0483 -0.0585 -0.1912
 2301W        W18562   0.669  12.338   3.348 -0.0575 -0.1445 -0.5105
 2302W        W18563   2.498   5.543  15.115  0.0533 -0.0555  0.0846
 2303W        W18564   5.339  17.797  13.152  0.3888 -0.0797 -0.2694
 2304W        W18565   4.838  12.395   5.395  0.2357 -0.0213  0.1273
 2305W        W18566  14.147  17.549   1.856 -0.1989  0.0023  0.2046
 2306W        W18567  12.252   6.841   1.891  0.1409  0.0706 -0.1699
 2307W        W18568   7.858  11.402  14.498  0.0524 -0.1163  0.0189
 2308W        W18569   2.344   6.029   0.624 -0.2806 -0.0391  0.0652
 2309W        W18570   3.511   4.356   4.601  0.1887  0.1186 -0.1211
 2310W        W18571  17.512   5.553   4.714 -0.0746 -0.3405  0.2361
 2311W        W18572   8.427   6.067   0.833 -0.1623 -0.1079 -0.0856
 2312W        W18573   4.769   4.794  13.463  0.0856 -0.0460 -0.4165
 2313W        W18574  16.351  13.429  13.860 -0.2585  0.1051 -0.0569
 2314W        W18575   3.436   6.499  16.164 -0.0466  0.2463  0.2072
 2315W        W18576   4.124   6.662   2.062 -0.1333 -0.0653 -0.0666
 2316W        W18577   2.271   6.558  14.299  0.3171 -0.1568  0.1918
 2317W        W18578  13.178  12.730   1.642  0.2566  0.0892  0.1344
 2318W        W18579   9.258  11.113  16.968  0.1624  0.4913  0.2034
 2319W        W18580   8.084   7.096  14.931  0.1021  0.0149 -0.1805
 2320W        W18581   1.609   4.315  16.296 -0.0034  0.0596  0.2156
 2321W        W18582   2.476  17.139   0.175  0.1342  0.0519 -0.1611
 2322W        W18583   3.786  16.152   2.397 -0.1157  0.1415  0.0142
 2323W        W18584   7.260   6.693  12.017 -0.2360  0.0398 -0.1831
 2324W        W18585   8.792  13.994   1.836  0.2354  0.2128  0.0873
 2325W        W18586  14.867  10.355   1.672 -0.0058  0.0074 -0.0533
 2326W        W18587  10.627   7.023   1.096  0.0411  0.0238  0.0255
 2327W        W18588  13.328  17.011  15.617  0.3015  0.0672 -0.1811
 2328W        W18589   5.333  11.892   0.350 -0.1085 -0.2643  0.1127
 2329W        W18590  13.818   6.365  12.793  0.1201  0.3757 -0.0169
 2330W        W18591   2.247   2.355  12.331  0.2317  0.2459 -0.3455
 2331W        W18592  14.403   9.095  15.726 -0.0739  0.1847 -0.4461
 2332W        W18593  12.559   5.990   4.689  0.0020 -0.2096 -0.0373
 2333W        W18594   4.660  15.139   0.346 -0.2289 -0.0869  0.1309
 2334W        W18595   0.332  13.697  13.671  0.1435 -0.2793  0.1015
 2335W        W18596   8.144   2.308   3.492 -0.2948 -0.2631 -0.2871
 2336W        W18597  13.404   3.871  12.941 -0.0987  0.1787 -0.1092
 2337W        W18598   3.236   7.017  11.937  0.0176 -0.2969  0.1032
 2338W        W18599   2.448  16.538   4.395 -0.1501 -0.2714 -0.1956
 2339W        W18600   2.037  17.389  13.883  0.0797 -0.1477 -0.0632
 2340W        W18601   5.874  12.307  12.318 -0.0608  0.0295 -0.2195
 2341W        W18602  13.571   8.690   1.814 -0.3046  0.1664  0.0319
 2342W        W18603   9.845   2.289  15.203  0.1863  0.0298 -0.3241
 2343W        W18604  14.917   2.503  16.859  0.0146 -0.0922 -0.3319
 2344W        W18605  11.242   9.498   4.826  0.1967  0.0749  0.1251
 2345W        W18606  12.996  17.357   1.028 -0.1857 -0.0963  0.0996
 2346W        W18607  17.196  10.227  11.797 -0.0329 -0.0134 -0.1322
 2347W        W18608   4.817   4.545  16.073 -0.0134 -0.1699  0.0046
 2348W        W18609  14.233  14.503  13.555 -0.0205 -0.1249  0.1149
 2349W        W18610   4.393   0.394   1.355  0.0651  0.0500  0.1406
 2350W        W18611   2.657   4.256   3.530 -0.2697 -0.2867  0.3042
 2351W        W18612   2.345  15.939  16.861  0.2617 -0.1831 -0.0304
 2352W        W18613  14.210   1.151  14.633 -0.3601  0.1405 -0.1391
 2353W        W18614  15.052   8.662   0.802 -0.5669 -0.0357 -0.0063
 2354W        W18615   3.092  15.198   0.230 -0.0378  0.1369  0.0150
 2355W        W18616   5.434   0.342  14.974  0.2603  0.3142 -0.2472
 2356W        W18617  13.215   7.236   3.463 -0.4084 -0.1190 -0.0363
 2357W        W18618   8.889  15.510  14.441  0.3150 -0.1743  0.0067
 2358W        W18619  15.406  14.415   1.222 -0.1726  0.1252 -0.0947
 2359W        W18620   5.848   2.321   0.671  0.1264 -0.0014  0.1581
 2360W        W18621  14.792   1.102   0.091  0.3129 -0.2451 -0.1894
 2361W        W18622  16.484  11.270   5.122  0.2849 -0.1002  0.0139
 2362W        W18623  17.003  14.207  12.541  0.0909 -0.0183  0.1426
 2363W        W18624   5.735   2.312   3.958  0.5017 -0.0317  0.2020
 2364W        W18625  14.218   0.552  15.399  0.1236  0.1097  0.0463
 2365W        W18626   1.013   8.715  15.469  0.0026 -0.0937 -0.0304
 2366W        W18627   9.087   4.361  13.487 -0.2927  0.1881  0.2078
 2367W        W18628   9.897   3.768  16.447  0.2622  0.1248 -0.0197
 2368W        W18629   7.253   4.230  15.211 -0.0166  0.1536  0.1148
 2369W        W18630  17.024   5.375  14.776  0.1796  0.2045 -0.1413
 2370W        W18631   2.756   0.495   3.833  0.2501 -0.2986  0.0309
 2371W        W18632   5.523   2.433   1.405 -0.0208  0.2085 -0.1747
 2372W        W18633   0.315  16.112  13.774 -0.0371  0.3800  0.2433
 2373W        W18634   4.796   7.596  13.889 -0.1298 -0.2112 -0.0720
 2374W        W18635   6.522  11.269  12.887  0.3093  0.1008 -0.0467
 2375W        W18636   9.636  14.118  15.032  0.0504  0.0924 -0.2705
 2376W        W18637   6.449   1.132   4.440  0.3676 -0.0751  0.0064
 2377W        W18638   6.354  11.712   2.533 -0.2223 -0.1613 -0.0852
 2378W        W18639   0.357  10.513   0.299 -0.2930  0.3373  0.0584
 2379W        W18640   8.340  16.640  12.356  0.2224  0.2193 -0.0774
 2380W        W18641   6.389  14.476   4.865 -0.1762 -0.0087  0.0724
 2381W        W18642   0.654   6.299   4.221 -0.0288 -0.1039 -0.0520
 2382W        W18643   2.534  14.765   5.340  0.0754  0.2877  0.1647
 2383W        W18644   8.741   4.954   1.013 -0.3367  0.0887  0.0069
 2384W        W18645   6.144  11.769  15.124  0.0268 -0.0729  0.2595
 2385W        W18646  14.290   9.242  13.838  0.1082 -0.2125  0.0596
 2386W        W18647   1.097  17.432   2.857 -0.0673 -0.1347  0.1647
 2387W        W18648   8.973  11.433   4.187  0.1781  0.1798 -0.4610
 2388W        W18649  11.531   6.575   4.124  0.2191  0.1639 -0.0633
 2389W        W18650   1.967  13.324   1.485 -0.1134  0.0153  0.2240
 2390W        W18651   9.157   1.031   2.102  0.0507  0.1049  0.2458
 2391W        W18652  17.448  14.336   1.026  0.3298 -0.1082  0.0838
 2392W        W18653   1.457   4.815   3.522  0.0168  0.0653 -0.1392
 2393W        W18654  14.669   7.442   3.230 -0.0378 -0.0736  0.3665
 2394W        W18655   1.600  13.819   1.936  0.2604 -0.0095 -0.0387
 2395W        W18656  15.983   9.431   4.000  0.2164  0.0709 -0.0548
 2396W        W18657   1.173   7.655  16.528  0.1663  0.1956 -0.1213
 2397W        W18658   8.209   8.236  12.598 -0.0093 -0.2163  0.1017
 2398W        W18659  14.495  15.235   1.186  0.2374 -0.0584 -0.2306
 2399W        W18660  15.049  11.192  15.760  0.0922 -0.1276 -0.0147
 2400W        W18661   9.212  11.632  14.089 -0.1197  0.0150  0.0676
 2401W        W18662   7.892   2.370   0.845  0.0542 -0.0224  0.3994
 2402W        W18663  15.174   6.102   4.486  0.3192 -0.1320  0.0326
 2403W        W18664   3.172   4.328   1.855 -0.1372  0.1752 -0.2302
 2404W        W18665   0.215   0.987  14.083 -0.0059 -0.3287 -0.0542
 2405W        W18666  16.662   1.138   5.290 -0.1421 -0.1162 -0.1723
 2406W        W18667  15.944   4.047  13.475  0.0667 -0.0855 -0.1369
 2407W        W18668   6.918   8.253   1.667  0.0285  0.1359  0.0050
 2408W        W18669   1.592   1.412   1.218  0.1155  0.0311 -0.0176
 2409W        W18670  10.146  12.475  13.862  0.0667 -0.0425 -0.0692
 2410W        W18671   2.596  13.475  12.700 -0.2626  0.0425  0.3301
 2411W        W18672  11.167   3.585  15.253 -0.0075  0.1540  0.2923
 2412W        W18673  14.792  13.360  16.708 -0.1049 -0.0333 -0.0547
 2413W        W18674  14.036  17.625  14.827 -0.0524  0.0067  0.0254
 2414W        W18675   2.191  16.254   0.567  0.1374  0.0004 -0.3999
 2415W        W18676   4.954   6.064  14.896  0.3020 -0.2578 -0.1928
 2416W        W18677  10.336   9.521   3.833  0.0575  0.1321 -0.2435
 2417W        W18678  13.064  15.458  13.881  0.4044  0.2368 -0.2625
 2418W        W18679  12.054   6.917  12.863 -0.2480  0.0137 -0.2176
 2419W        W18680   7.424   5.262   1.378  0.1721  0.0697  0.3257
 2420W        W18681   0.843   1.355   3.897 -0.0682 -0.1559  0.3257
 2421W        W18682  12.614  12.615   5.491  0.1294 -0.1223 -0.0712
 2422W        W18683  16.822   0.998   0.843  0.0514  0.0249 -0.0958
 2423W        W18684   3.021  16.561   3.674 -0.1107 -0.1682 -0.3089
 2424W        W18685   4.184   9.457  16.712 -0.0936 -0.1928  0.0097
 2425W        W18686  14.930   3.009   2.483  0.2322  0.1088 -0.0372
 2426W        W18687   2.915  11.704  16.464  0.1479  0.0390  0.0764
 2427W        W18688  13.686   2.756  12.043 -0.0891 -0.0944  0.1215
 2428W        W18689  16.002   5.544   1.868 -0.0926 -0.4359  0.0572
 2429W        W18690   2.556  16.638  11.796  0.1200 -0.0166 -0.0457
 2430W        W18691  15.946  17.047  13.189 -0.1229 -0.2596 -0.0587
 2431W        W18692  15.597  10.266   0.805 -0.1531  0.0372  0.0024
 2432W        W18693   3.373   3.161   5.316  0.0038  0.1387  0.3769
 2433W        W18694  15.965   2.491  14.887 -0.0859 -0.3119  0.1467
 2434W        W18695  12.420  14.383   0.893  0.1143 -0.4364 -0.0046
 2435W        W18696  17.484  11.791  14.794  0.0225 -0.1089  0.1447
 2436W        W18697  11.541   0.286   2.463 -0.3551 -0.0156 -0.1102
 2437W        W18698   9.911   2.009  14.801 -0.0899 -0.1041 -0.0896
 2438W        W18699   8.194  10.619  14.488 -0.1300 -0.0376  0.0001
 2439W        W18700   6.160  16.504   1.198 -0.3051  0.1906  0.2141
 2440W        W18701  12.721   2.961  14.829  0.0433  0.3717 -0.2396
 2441W        W18702  16.440   6.146   0.803  0.0670  0.0932 -0.1459
 2442W        W18703   9.537   3.526  14.593 -0.0660  0.1001 -0.0540
 2443W        W18704   1.895   7.861   1.857 -0.1683  0.1616  0.2749
 2444W        W18705   3.461   2.558  16.710  0.0619 -0.0285  0.0880
 2445W        W18706  12.809  12.763   3.968  0.2393  0.3625 -0.1126
 2446W        W18707   6.687  13.342   1.619  0.0597  0.0029 -0.1330
 2447W        W18708  17.014  15.626  13.290  0.1275 -0.1370 -0.1123
 2448W        W18709   0.605  14.514   3.153 -0.0310  0.1702 -0.2029
 2449W        W18710  13.315   9.075   2.168  0.0769  0.0673 -0.1155
 2450W        W18711   3.945  13.119   4.670  0.0336  0.1376  0.0156
 2451W        W18712   2.796  16.864   3.197 -0.2870 -0.4617  0.1465
 2452W        W18713   1.744  10.807   1.143  0.2551 -0.0952  0.1657
 2453W        W18714  15.417  16.562  16.776  0.0820 -0.1825  0.0267
 2454W        W18715  17.239   0.402  12.384 -0.3189  0.2350 -0.0660
 2455W        W18716  12.209  15.236  12.934  0.0031  0.0846 -0.0940
 2456W        W18717   9.661  15.191   2.090  0.0324 -0.1797 -0.0092
 2457W        W18718   4.533  17.261  13.013 -0.0048 -0.0088 -0.0198
 2458W        W18719  13.796   7.956  15.518 -0.1393 -0.1378 -0.1974
 2459W        W18720   3.126   2.681   0.121  0.1498 -0.0843 -0.0355
 2460W        W18721   8.019   8.187  15.477  0.2484 -0.0462 -0.2337
 2461W        W18722   3.768  10.090  15.708 -0.2499  0.1476  0.0145
 2462W        W18723  13.176  14.944  15.093 -0.0956 -0.0538 -0.0338
 2463W        W18724  10.035   2.375   5.860  0.0769  0.1347 -0.0038
 2464W        W18725  14.436   9.680  16.609  0.1168 -0.2847  0.2687
 2465W        W18726   9.625  17.203  12.203  0.3602 -0.2511 -0.1212
 2466W        W18727   8.534  13.153  11.688  0.1253 -0.0206  0.0115
 2467W        W18728   7.068   8.252   0.787  0.1114 -0.1035 -0.5262
 2468W        W18729  14.267  17.711  14.395 -0.5603  0.0321 -0.0025
 2469W        W18730  12.714  11.713   3.310 -0.2257 -0.1670 -0.0378
 2470W        W18731  12.809  13.852   1.321  0.0904  0.0735 -0.1944
 2471W        W18732  11.887  16.004   2.418 -0.1160 -0.0041 -0.0778
 2472W        W18733   6.089   4.665   3.520 -0.2775  0.1684  0.2618
 2473W        W18734   6.698  15.815  12.801 -0.0869 -0.3309 -0.1430
 2474W        W18735  17.834   1.659  15.776 -0.1501 -0.0622  0.2280
 2475W        W18736   8.268   8.460   2.962 -0.0656 -0.1722 -0.2191
 2476W        W18737  12.112  16.823   5.524  0.0655  0.2240  0.1258
 2477W        W18738   7.414   8.704   3.527  0.0973 -0.0778 -0.1068
 2478W        W18739   2.088   1.457   1.282  0.0306 -0.0310 -0.1700
 2479W        W18740  15.471  11.802   0.618 -0.0486  0.1825 -0.3477
 2480W        W18741  13.974   9.508  11.337 -0.2769 -0.0893 -0.0946
 2481W        W18742   0.579  16.536   6.009  0.0676  0.2086 -0.1110
 2482W        W18743   2.342   1.670   3.233  0.0563 -0.2046  0.2858
 2483W        W18744  14.970   8.496   4.000  0.1255 -0.0075  0.3975
 2484W        W18745  11.786   6.667  13.324  0.1609  0.0759 -0.0567
 2485W        W18746   2.116  14.498   5.474  0.0936 -0.1716 -0.1068
 2486W        W18747  11.820  11.477   3.475  0.0263  0.1877  0.1990
 2487W        W18748  14.780   0.588  15.502  0.1971 -0.1349  0.1625
 2488W        W18749   5.620  14.324  11.109  0.3109 -0.1702 -0.0488
 2489W        W18750   9.542  11.894   3.813 -0.0139  0.2340  0.3086
 2490W        W18751   7.390   8.130  16.351 -0.0814 -0.0996 -0.0397
 2491W        W18752  17.046  15.146   3.853  0.3089 -0.1048 -0.1065
 2492W        W18753  13.336  14.848  16.853 -0.1583 -0.2895  0.0688
 2493W        W18754  11.286   3.847  16.514 -0.1165  0.2295  0.1321
 2494W        W18755   1.794  14.692   0.018 -0.1508 -0.3201  0.0486
 2495W        W18756   3.078   3.187   0.390 -0.0414  0.5476  0.0303
 2496W        W18757   2.002   4.561   4.185  0.3224  0.0446 -0.1809
 2497W        W18758   5.274   8.592  12.751 -0.1814 -0.1952  0.0322
 2498W        W18759  11.653  10.656   5.590  0.0817 -0.0167 -0.1256
 2499W        W18760  14.285   9.366  14.310  0.2990 -0.0147 -0.1801
 2500W        W18761   9.922  11.490  15.235  0.0348 -0.2608 -0.2001
 2501W        W18762   8.268   5.992   4.007  0.1115 -0.0871 -0.1493
 2502W        W18763   6.500  14.713  11.996 -0.1841 -0.0466  0.1187
 2503W        W18764   4.895  15.292   2.022 -0.2279 -0.0977 -0.1530
 2504W        W18765   3.423  12.074   0.189 -0.2171  0.2014 -0.0497
 2505W        W18766   6.172   6.185   4.366  0.3188  0.1707  0.0189
 2506W        W18767  13.553   8.117   1.266  0.0144 -0.1816  0.1940
 2507W        W18768  10.789  13.372   2.722  0.2247 -0.0197  0.0816
 2508W        W18769  12.179   9.697  14.808 -0.1439 -0.3906  0.1625
 2509W        W18770  17.469  13.463  15.339  0.0429 -0.2918 -0.0720
 2510W        W18771  16.138   7.076   0.865  0.0846  0.2446 -0.0474
 2511W        W18772  12.118   6.910   2.393 -0.0382  0.2375 -0.1257
 2512W        W18773   9.017   9.344   5.640  0.2303 -0.2912 -0.0324
 2513W        W18774  15.452   8.947  16.234  0.0632  0.0628 -0.1265
 2514W        W18775  13.619   6.628   0.048 -0.1378  0.1013  0.0707
 2515W        W18776  16.911  13.034   4.013 -0.0361  0.3063  0.1242
 2516W        W18777   5.289  14.154   5.506  0.0715  0.2280 -0.2739
 2517W        W18778   2.192  11.625   4.745  0.1372  0.2450 -0.2141
 2518W        W18779  10.648  16.979   3.687  0.0494  0.2015 -0.3665
 2519W        W18780   2.753   4.204  15.383  0.0913  0.0380 -0.0339
 2520W        W18781   5.340  14.643   3.981 -0.3304 -0.1751 -0.1491
 2521W        W18782   2.945   9.533   6.474 -0.0061  0.0673  0.1769
 2522W        W18783   5.582   1.309  12.660 -0.1726 -0.1108  0.1442
 2523W        W18784   6.245   1.067   0.470  0.0101 -0.0427 -0.2105
 2524W        W18785   1.968   7.208   4.761  0.0835 -0.1648 -0.2176
 2525W        W18786   9.232   2.611  15.843  0.0935  0.5167  0.2565
 2526W        W18787  16.832   0.499  14.795  0.0837  0.1732 -0.1792
 2527W        W18788   7.110   2.521   1.177  0.0600  0.0053 -0.1653
 2528W        W18789   1.487   2.144  11.634  0.1315 -0.2204  0.0668
 2529W        W18790   8.890   9.179  14.263 -0.0714 -0.0737  0.2074
 2530W        W18791  15.447   4.526   4.733 -0.2051  0.1115  0.4172
 2531W        W18792  13.251   7.356  14.868  0.1081  0.1398 -0.1639
 2532W        W18793   5.142  13.681   0.885 -0.1280  0.1180  0.0920
 2533W        W18794   9.395  17.146   5.657  0.1155  0.0829 -0.1859
 2534W        W18795  17.661  11.954  16.726  0.1244 -0.1084 -0.0042
 2535W        W18796   8.735  14.552   4.091 -0.1877 -0.1385  0.0999
 2536W        W18797  10.422  17.705  13.944 -0.0223 -0.1209 -0.0204
 2537W        W18798   1.566  13.359   1.762  0.2705 -0.0714 -0.3491
 2538W        W18799  12.216  14.133   0.081  0.0727  0.0689 -0.0242
 2539W        W18800  10.565  11.605  13.821 -0.2442 -0.0254 -0.0554
 2540W        W18801  10.928  14.071  15.362  0.2358 -0.0307 -0.1336
 2541W        W18802   8.789  14.514   3.198 -0.3947 -0.2436 -0.1431
 2542W        W18803  14.791   3.567   3.654  0.3639 -0.1222 -0.2665
 2543W        W18804  11.151  16.826  12.129  0.2216  0.0789  0.4059
 2544W        W18805  14.713  13.778   6.718 -0.0867 -0.1593  0.2227
 2545W        W18806   2.462  12.652  15.114 -0.2083 -0.1768  0.1240
 2546W        W18807  11.255  13.738   0.259 -0.0607  0.0558  0.1345
 2547W        W18808   3.587  16.137   0.382 -0.1313  0.1770 -0.1705
 2548W        W18809   9.723  13.143  12.643  0.2911  0.0812  0.1675
 2549W        W18810   0.156   1.643   1.301  0.4179  0.0873  0.1119
 2550W        W18811   0.872   6.691  13.186  0.0009  0.0443  0.0519
 2551W        W18812  12.393   5.770  15.348  0.1945  0.0701 -0.1359
 2552W        W18813   2.594   7.786   3.830  0.1232  0.1920 -0.4939
 2553W        W18814  16.179   3.805   3.945  0.2094 -0.1193 -0.0679
 2554W        W18815   1.186  11.504  15.573  0.1625 -0.1371  0.1356
 2555W        W18816   6.043   3.956   5.309 -0.1288  0.0455  0.2677
 2556W        W18817  14.500  13.709   2.374  0.0962  0.2739  0.1252
 2557W        W18818  16.033  16.706   0.522  0.1649 -0.2029  0.1724
 2558W        W18819  17.646   0.604  12.599  0.0720  0.1799 -0.1496
 2559W        W18820   2.851   4.925   2.463 -0.1062  0.0069 -0.3218
 2560W        W18821  13.669   3.792  14.220  0.1399 -0.0771 -0.3784
 2561W        W18822  16.759  16.028  15.410  0.0919 -0.3256 -0.1027
 2562W        W18823   8.257  13.152  12.977  0.2297  0.1859 -0.0905
 2563W        W18824  13.248  15.822   1.906 -0.1759 -0.1939  0.0275
 2564W        W18825   6.741  15.510  16.762 -0.1402 -0.1040 -0.1817
 2565W        W18826   3.326   6.890   3.000 -0.2154 -0.0633 -0.0852
 2566W        W18827   3.393  15.682  12.330  0.1184  0.0538 -0.0897
 2567W        W18828   7.387  15.546   3.315  0.0773 -0.0303  0.1798
 2568W        W18829   4.585  14.171   4.372 -0.2267  0.2760 -0.1759
 2569W        W18830  17.520  11.578   5.893  0.1356 -0.2129 -0.1020
 2570W        W18831   2.627   7.166  15.437 -0.1591  0.2491 -0.4223
 2571W        W18832   3.419   9.843   5.078  0.0354 -0.1008 -0.2152
 2572W        W18833   6.101  11.863   1.894  0.1781  0.1730  0.1605
 2573W        W18834  12.345   6.572   3.630  0.0688 -0.0881  0.1378
 2574W        W18835  15.608  13.258  12.141  0.2659  0.1220  0.0564
 2575W        W18836   2.227   1.219  13.013  0.2644  0.0705 -0.1369
 2576W        W18837  12.975   0.428  14.119  0.1707  0.0884 -0.0623
 2577W        W18838   7.301   4.303   0.067  0.1505  0.0571  0.0566
 2578W        W18839  15.821   8.430   2.863 -0.2125  0.3037  0.1571
 2579W        W18840  17.639   7.286  16.264  0.0838  0.0835 -0.0724
 2580W        W18841   1.421   9.059   0.030  0.0389  0.0074 -0.0186
 2581W        W18842   3.533   0.376   6.065 -0.0261  0.0395 -0.0762
 2582W        W18843  15.730   2.437  15.377  0.0722  0.0987  0.0283
 2583W        W18844  10.170  14.442   1.587 -0.2608  0.1579 -0.2326
 2584W        W18845  12.347   9.624   2.678 -0.0284  0.0116 -0.1848
 2585W        W18846  10.730   9.447  12.544  0.1884  0.2576  0.0357
 2586W        W18847  13.664  14.316   5.884 -0.1846  0.1006  0.0230
 2587W        W18848  16.666   2.672   2.786  0.0516 -0.0911 -0.1803
 2588W        W18849  16.205  16.983  15.238 -0.0956  0.0738  0.0549
 2589W        W18850   4.316  13.679   0.338  0.2185 -0.2138  0.1789
 2590W        W18851   8.048   2.943  13.174  0.1700 -0.0871  0.2523
 2591W        W18852   7.126   6.504  14.106 -0.1228 -0.1663  0.2648
 2592W        W18853   0.889  16.140  12.574 -0.1965 -0.1953  0.2063
 2593W        W18854   7.066   3.017  15.403  0.0131  0.2767 -0.2224
 2594W        W18855  14.895   0.054   0.571  0.1083  0.2959 -0.0856
 2595W        W18856   6.539   3.891   1.314  0.2113 -0.0176 -0.0568
 2596W        W18857  16.111   8.250  16.472 -0.0446 -0.3950  0.0273
 2597W        W18858   6.219   4.711  13.095 -0.2106 -0.2055  0.2454
 2598W        W18859   6.116  11.165  13.218  0.0897  0.0558 -0.1843
 2599W        W18860   2.619   8.132  15.103 -0.0333  0.3942 -0.1664
 2600W        W18861   1.892  17.099  12.779 -0.4473  0.4321  0.3563
 2601W        W18862  14.641   7.833  16.878 -0.2056 -0.0063 -0.0129
 2602W        W18863  14.126   6.682  15.719 -0.0101 -0.1724 -0.2772
 2603W        W18864  11.497   7.110   1.676  0.1025  0.0923  0.1334
 2604W        W18865  16.395   0.529   0.802  0.1776  0.0567  0.0333
 2605W        W18866  14.289   6.563   2.661  0.2563 -0.2377 -0.3062
 2606W        W18867  17.490   7.044   3.625 -0.4212  0.0003  0.0794
 2607W        W18868   7.312   9.971  16.180  0.1961  0.1181 -0.1525
 2608W        W18869   4.514  14.059   3.917  0.5313  0.2777 -0.1488
 2609W        W18870   5.322   6.657   1.053 -0.1449  0.1266 -0.0118
 2610W        W18871   4.090  15.092   5.926 -0.0557 -0.1743  0.1941
 2611W        W18872  10.551  14.198  16.649  0.1930  0.0663  0.3270
 2612W        W18873   3.018  15.977  16.376  0.2006 -0.0477 -0.0609
 2613W        W18874  15.141   1.750   2.625 -0.0632  0.3791  0.1525
 2614W        W18875   3.109   8.738   1.709 -0.0962  0.3156  0.0957
 2615W        W18876  17.466  11.079   1.817  0.2664  0.0181  0.2751
 2616W        W18877   9.270  12.761  14.970 -0.3174 -0.1675  0.0942
 2617W        W18878  14.911  15.303   5.714 -0.1128  0.0008  0.2492
 2618W        W18879   1.332   5.447   5.555 -0.0713 -0.0495  0.0664
 2619W        W18880   9.721  16.511   0.682 -0.1017 -0.1693  0.1032
 2620W        W18881  12.990   1.956  12.177 -0.2747 -0.1119 -0.1678
 2621W        W18882   8.464  12.400  16.817 -0.2643 -0.1871  0.1716
 2622W        W18883   0.116   8.878   5.047  0.3866 -0.1978  0.1756
 2623W        W18884  14.409   6.464  11.849 -0.1709  0.1479  0.1877
 2624W        W18885  17.349  10.588   0.192 -0.0662  0.2818  0.0919
 2625W        W18886   2.802  14.799   6.271  0.1009 -0.0300 -0.1852
 2626W        W18887  14.640   0.178  12.330  0.2900 -0.0085 -0.1877
 2627W        W18888  16.930  13.580   0.288  0.2670 -0.3984  0.3229
 2628W        W18889  10.657   9.080  16.031  0.1648  0.1995  0.1758
 2629W        W18890   7.195  14.084  11.845 -0.0184  0.1480 -0.2849
 2630W        W18891   0.135   7.785  13.645  0.1655  0.2936  0.0192
 2631W        W18892  10.403   1.839   0.740 -0.0470  0.0791 -0.0254
 2632W        W18893  14.723   7.374   4.791  0.3812  0.2482 -0.2491
 2633W        W18894   8.555   1.357   5.365  0.0748  0.1167 -0.0540
 2634W        W18895  14.643  12.703   5.765  0.2699  0.1814 -0.2753
 2635W        W18896  12.047   5.558   3.918 -0.0246 -0.2946  0.1434
 2636W        W18897  15.848  14.301   4.973 -0.1219  0.2352 -0.0351
 2637W        W18898   1.031   6.354   3.032  0.4731 -0.1870  0.1144
 2638W        W18899   9.116   1.807  12.789  0.2640  0.2084  0.0155
 2639W        W18900   3.169  12.717  12.568  0.0207  0.0440 -0.1499
 2640W        W18901  13.487   5.376  16.653 -0.2044  0.1334  0.0861
 2641W        W18902  16.135  10.377  15.267  0.0646  0.2895 -0.2246
 2642W        W18903   7.222   2.583  13.730 -0.0256 -0.0001 -0.0621
 2643W        W18904  12.203  15.723   5.185 -0.0115 -0.0102  0.3189
 2644W        W18905  16.395   6.946  16.619 -0.0656  0.1413 -0.0982
 2645W        W18906   3.838  13.848  11.261  0.4143  0.1100 -0.3557
 2646W        W18907   2.809   3.716   0.415  0.0554 -0.2044  0.1214
 2647W        W18908   6.780   6.285   5.600 -0.2702 -0.1815  0.1725
 2648W        W18909  13.805  17.145   2.237 -0.0477 -0.0137 -0.1229
 2649W        W18910   7.572   4.624  15.235 -0.2725 -0.0263 -0.0402
 2650W        W18911  15.195  14.251   1.696 -0.4264  0.3278  0.0184
 2651W        W18912  16.769   9.887  12.749  0.1396 -0.0533  0.0536
 2652W        W18913   0.065  13.336   2.200 -0.0872  0.1692  0.1862
 2653W        W18914   0.679   7.549   1.574  0.1393 -0.1772 -0.0162
 2654W        W18915  11.028  12.842   6.383  0.2270  0.1909 -0.0820
 2655W        W18916  10.216  11.103   4.072  0.3211  0.0943  0.0271
 2656W        W18917   6.027   5.502  13.529 -0.1902 -0.0816 -0.0944
 2657W        W18918   0.790   3.144  13.592 -0.2138  0.1761  0.0893
 2658W        W18919  12.983  15.569   4.370  0.1336 -0.0007  0.0847
 2659W        W18920   0.739   1.732  14.382  0.2110  0.0035 -0.0217
 2660W        W18921  13.913  16.769  13.556 -0.0981  0.0948  0.0302
 2661W        W18922   1.275  13.681   6.074  0.1669  0.2296  0.0205
 2662W        W18923   2.088   2.237   4.242  0.0598  0.0546 -0.1472
 2663W        W18924  11.491  14.742   1.864 -0.0712  0.0027 -0.3729
 2664W        W18925  12.373   8.078   5.715  0.2146 -0.0960  0.0511
 2665W        W18926   3.643  14.786   3.838 -0.2065  0.3310  0.4122
 2666W        W18927   6.891  17.803  11.717  0.0359 -0.2374  0.3940
 2667W        W18928  10.370   5.934  15.372 -0.0378 -0.0241  0.1429
 2668W        W18929   8.201  17.777   2.406 -0.0435 -0.1595  0.0058
 2669W        W18930  16.391  10.030  12.344  0.2175 -0.0091 -0.3290
 2670W        W18931   7.151   8.701  16.604 -0.1209  0.0539  0.2133
 2671W        W18932  13.664   0.434  15.007 -0.0435  0.0157 -0.1994
 2672W        W18933  14.976   5.041   2.669  0.1788  0.2936 -0.0946
 2673W        W18934  12.197  15.346  14.310  0.1296  0.1014  0.0550
 2674W        W18935  15.621   4.987   3.182  0.2197 -0.0822  0.0814
 2675W        W18936  13.142   7.188   4.771 -0.0645 -0.0459 -0.0907
 2676W        W18937  17.119   0.505  15.255 -0.0068 -0.0275 -0.1598
 2677W        W18938   5.196  15.624   3.123  0.3481 -0.1074  0.0421
 2678W        W18939  11.789   4.452   2.185  0.1263  0.0607 -0.1487
 2679W        W18940   0.209   0.674   2.548 -0.0628  0.0740  0.1540
 2680W        W18941  15.561  15.798   3.525 -0.1433 -0.0793 -0.0674
 2681W        W18942  16.984  14.280  15.738  0.2063  0.1135  0.0478
 2682W        W18943   3.140   0.122   4.739  0.0559 -0.0453 -0.0819
 2683W        W18944  14.750   7.783   5.070 -0.0914 -0.1606 -0.1765
 2684W        W18945   5.397  12.801  16.390  0.4685 -0.1964 -0.2712
 2685W        W18946   0.532   7.811   5.627  0.1823 -0.1881 -0.2312
 2686W        W18947   9.491   1.244  12.260 -0.1632  0.0453  0.0968
 2687W        W18948   0.284   7.089   0.160 -0.2767  0.0477  0.1596
 2688W        W18949  10.873   6.336  16.563  0.1337  0.1154 -0.0619
 2689W        W18950  14.478   9.808   0.520  0.1554  0.0757  0.1206
 2690W        W18951   0.785   2.405  13.305  0.2328 -0.0774  0.1338
 2691W        W18952   2.352  13.313  16.188  0.3727  0.4044  0.0043
 2692W        W18953   8.173  15.127   4.469  0.0255  0.3367 -0.0023
 2693W        W18954   0.500   3.368   4.486 -0.0648 -0.3488 -0.1133
 2694W        W18955   1.087   7.962  16.155 -0.1515  0.0999 -0.1909
 2695W        W18956  13.879  17.151  12.547  0.2339  0.0987 -0.1634
 2696W        W18957   9.348  11.757   1.731  0.1878  0.2715 -0.2158
 2697W        W18958   5.266  11.133   3.038 -0.0948 -0.2645  0.1272
 2698W        W18959  17.280   8.820   3.265  0.0180 -0.0561  0.0825
 2699W        W18960   6.377  16.509   0.148 -0.1644  0.1858  0.0280
 2700W        W18961  11.503   0.418   4.244 -0.1439 -0.0514  0.1330
 2701W        W18962  16.484   5.242  15.423 -0.0368 -0.0200  0.1288
 2702W        W18963   1.942   6.119  14.058  0.0512  0.1447 -0.1923
 2703W        W18964   4.759   4.184  16.483  0.2405 -0.0008 -0.2903
 2704W        W18965   9.675  13.432   3.292 -0.1445 -0.1391 -0.0740
 2705W        W18966  17.798   8.332   1.943 -0.0125 -0.4803 -0.0061
 2706W        W18967  13.459   7.739   2.647  0.1932  0.0296  0.1436
 2707W        W18968  12.914   4.183  12.883 -0.1309  0.2012  0.0360
 2708W        W18969  10.710  10.932   5.658  0.2417  0.0516  0.0487
 2709W        W18970  11.178  10.240   3.013 -0.3467 -0.1042  0.0536
 2710W        W18971   5.566  10.723   5.805  0.0271 -0.0513 -0.1227
 2711W        W18972   0.129  13.636   4.852 -0.2280  0.0797  0.1143
 2712W        W18973   9.206   7.880  13.718  0.0155  0.0800  0.3577
 2713W        W18974   4.463  13.665  15.583 -0.0363 -0.0801  0.0166
 2714W        W18975  12.793   8.613   2.713  0.1829  0.0094 -0.1213
 2715W        W18976   3.600  16.358   1.096 -0.0259  0.0001 -0.0898
 2716W        W18977  17.087   6.657  12.853  0.1792  0.0268  0.2541
 2717W        W18978  12.207  17.414   3.239 -0.0623 -0.1224 -0.3462
 2718W        W18979   7.232   1.885  14.227  0.0003  0.1486 -0.2582
 2719W        W18980   1.034   9.913   5.301  0.2946 -0.2312  0.0053
 2720W        W18981  12.284  13.736   5.882 -0.2771 -0.0166 -0.4094
 2721W        W18982  16.354   3.094   2.667 -0.3631 -0.2216  0.0346
 2722W        W18983   8.880  12.910  14.292 -0.1547  0.3173 -0.2237
 2723W        W18984  12.564  16.790  15.460  0.1327 -0.1897 -0.4355
 2724W        W18985   4.889   3.350   3.083 -0.1469  0.0176  0.1047
 2725W        W18986   1.479  16.437  15.911 -0.2071 -0.1641 -0.0813
 2726W        W18987  12.230  15.802  14.568  0.1884  0.2932 -0.2735
 2727W        W18988  10.008   4.671   2.965 -0.0608 -0.1696 -0.0238
 2728W        W18989   7.035  12.430  13.731  0.1669 -0.2196  0.0483
 2729W        W18990   8.334   8.050   2.145 -0.0030  0.0167  0.1851
 2730W        W18991  15.700   9.189   1.895 -0.0308 -0.1964  0.0803
 2731W        W18992  16.136  15.808   0.909 -0.1649  0.3089 -0.1268
 2732W        W18993   8.687  13.474  16.444 -0.2124 -0.0938 -0.3177
 2733W        W18994   7.067  13.171   0.520  0.1556 -0.0399 -0.2283
 2734W        W18995   5.848  15.816   5.566  0.0466 -0.1404  0.2238
 2735W        W18996  13.510   9.005  16.646 -0.1064 -0.1537 -0.1325
 2736W        W18997  13.506   6.578  12.473 -0.0045  0.0582  0.1190
 2737W        W18998  16.253   1.927   1.191  0.1267 -0.1670  0.0937
 2738W        W18999   7.353   7.645  13.745  0.0103 -0.0813  0.0747
 2739W        W19000   0.430  10.383  15.367 -0.0760  0.0687  0.1499
 2740W        W19001   6.403   2.869   3.394 -0.2281  0.0264  0.1832
 2741W        W19002   5.455  12.492   0.277 -0.2430  0.0527  0.1163
 2742W        W19003   3.748   6.818  14.356  0.1573  0.1094  0.0535
 2743W        W19004  13.062  16.152  14.501  0.0430 -0.1105  0.0642
 2744W        W19005   9.879  11.479   5.190 -0.2506  0.3063  0.0106
 2745W        W19006  10.156  11.430   3.224  0.0130  0.0234  0.0626
 2746W        W19007   1.322   3.425  15.893  0.1645  0.1437 -0.1032
 2747W        W19008  13.390   8.244   2.175 -0.3405 -0.3566 -0.2588
 2748W        W19009  15.710   4.446   1.077 -0.1685 -0.2876 -0.1072
 2749W        W19010   8.335   3.529   4.899  0.0150 -0.0660  0.1885
 2750W        W19011   5.565  15.031  15.299 -0.1731  0.0506 -0.2782
 2751W        W19012   0.360  12.912   4.024  0.1391  0.0927  0.1031
 2752W        W19013   9.444  10.065  14.789  0.0770  0.1216 -0.3236
 2753W        W19014   0.993   4.703  13.317  0.1322  0.0202 -0.2694
 2754W        W19015  14.016  11.405  16.614  0.1446  0.0336  0.1808
 2755W        W19016  15.260  14.826  12.678 -0.3027  0.2091  0.1368
 2756W        W19017   4.606   7.372   5.259  0.0008  0.3912 -0.0372
 2757W        W19018  13.715  11.062  14.001 -0.3265 -0.0090  0.1055
 2758W        W19019  12.456  15.282  12.514  0.2472  0.1526  0.1067
 2759W        W19020  15.411  17.523   3.400  0.1064  0.1440 -0.0131
 2760W        W19021   7.955   0.829   2.384  0.1136 -0.1360 -0.2542
 2761W        W19022   2.518  10.892   4.058  0.0933  0.3564 -0.1013
 2762W        W19023   6.470   0.301   3.599  0.1788 -0.2281 -0.2193
 2763W        W19024  16.611   1.482  12.646 -0.0144  0.2485  0.0129
 2764W        W19025   7.843  12.036  11.802  0.2783 -0.0425 -0.0485
 2765W        W19026   1.587   9.871  12.811 -0.2025 -0.0914 -0.0131
 2766W        W19027   9.017   0.027   1.699 -0.0788  0.0665  0.2787
 2767W        W19028  14.281  13.655  14.775  0.0636  0.0624  0.1661
 2768W        W19029   4.029   8.653  13.996 -0.0835  0.1256  0.2832
 2769W        W19030  10.028   8.289   4.806 -0.3680 -0.0659 -0.2757
 2770W        W19031  12.035   3.538   1.066  0.0507  0.2741  0.0774
 2771W        W19032   7.600  10.575   0.436  0.0453  0.0863 -0.2121
 2772W        W19033   5.232   5.077   3.375  0.0398  0.1464  0.1000
 2773W        W19034   3.704   9.599   1.684 -0.1499 -0.1307  0.1397
 2774W        W19035   4.703   3.237  13.667  0.0221  0.0983 -0.1878
 2775W        W19036   8.619  14.473  12.933 -0.0740 -0.0285  0.1484
 2776W        W19037  12.473   1.273   4.143  0.2563  0.0993  0.0912
 2777W        W19038  10.263   2.746   1.143 -0.0901 -0.1662  0.3145
 2778W        W19039  15.294  13.917   1.362 -0.2300 -0.0768  0.1333
 2779W        W19040   8.578  15.047   2.006 -0.3351  0.0033  0.1193
 2780W        W19041   3.367   5.345  12.554 -0.1836  0.1237  0.0859
 2781W        W19042   5.932   9.762  15.235 -0.4079  0.1863  0.1020
 2782W        W19043  11.291   7.959   2.571 -0.0093 -0.3714 -0.0992
 2783W        W19044   7.649   8.915  16.792 -0.1876 -0.0422  0.0074
 2784W        W19045   4.015   6.678  12.841  0.1912 -0.1284 -0.0613
 2785W        W19046  13.680   8.178   3.612 -0.1291 -0.0786 -0.1205
 2786W        W19047  13.878   1.716   0.678 -0.1976 -0.0877  0.0028
 2787W        W19048  17.346   4.971  11.988 -0.0501  0.1107  0.0670
 2788W        W19049   9.948  17.081   2.411  0.0446 -0.0530 -0.0484
 2789W        W19050  13.486   9.801   4.613  0.3733 -0.1615  0.0009
 2790W        W19051   1.358   9.833  15.981 -0.0161  0.3221  0.2415
 2791W        W19052   4.643  14.530   2.296  0.0667  0.0972  0.1059
 2792W        W19053  16.727  15.867   2.615  0.1165 -0.1190 -0.0571
 2793W        W19054  15.074  17.675  11.970  0.2451 -0.1911  0.0224
 2794W        W19055   1.394  12.831  11.925  0.3134  0.2241  0.2544
 2795W        W19056   4.464  10.792   1.210 -0.0452  0.0525  0.0035
 2796W        W19057   6.385   9.314   4.475  0.2265  0.0295 -0.5663
 2797W        W19058   3.876  11.740   5.077  0.2169 -0.2913  0.2834
 2798W        W19059  17.500   3.948  14.423 -0.2185 -0.1349 -0.3706
 2799W        W19060   8.023  11.298  15.424 -0.1581 -0.0565  0.0776
 2800W        W19061  16.151  14.477   0.829 -0.3725 -0.0573  0.2744
 2801W        W19062  16.467  13.637  13.044  0.2379 -0.0026  0.2019
 2802W        W19063   2.809   8.243  12.209  0.1993  0.2687 -0.2816
 2803W        W19064   2.913  17.592   1.409 -0.2832 -0.2773 -0.0209
 2804W        W19065   6.924  17.153   2.446 -0.0150  0.0406 -0.0512
 2805W        W19066   7.647   3.787  15.578 -0.0432  0.1525  0.2005
 2806W        W19067   4.263   3.627   0.983  0.2500 -0.0946  0.2182
 2807W        W19068  12.219  10.993   1.500  0.0035 -0.3097  0.0737
 2808W        W19069   4.017  12.191   4.505 -0.1818  0.1371  0.1476
 2809W        W19070   3.762  17.711  16.926  0.2197 -0.2242 -0.2891
 2810W        W19071   6.517  15.062   1.533 -0.0124 -0.3980  0.0123
 2811W        W19072   5.617  13.223  15.448  0.0563 -0.0231  0.2267
 2812W        W19073   4.654   0.867  14.227 -0.1375  0.1580 -0.2381
 2813W        W19074  11.231   3.562   3.941  0.0198  0.0733  0.2039
 2814W        W19075  12.054   7.201   1.660  0.1830 -0.0755 -0.2451
 2815W        W19076   1.667   7.984   4.104 -0.1297 -0.1422 -0.0756
 2816W        W19077   6.589  16.252   5.694 -0.0970 -0.0988  0.0553
 2817W        W19078   1.642   7.153   6.582 -0.2554  0.1090  0.0891
 2818W        W19079  11.357   3.102   2.735  0.0503 -0.1239  0.3161
 2819W        W19080   3.116   8.105   3.133 -0.0891 -0.1331 -0.1399
 2820W        W19081  17.634  10.241   1.523 -0.2999  0.2207 -0.1069
 2821W        W19082   3.621  15.977   1.559 -0.1940 -0.1813 -0.0685
 2822W        W19083   7.211  13.310  13.065 -0.0241 -0.0751 -0.0775
 2823W        W19084   2.655   3.498  12.217  0.0465  0.1672  0.4228
 2824W        W19085  17.741   6.719   1.215 -0.1411 -0.0061  0.2472
 2825W        W19086   6.526   6.479  14.830 -0.1804 -0.0752 -0.2759
 2826W        W19087  14.112   5.815   2.041 -0.0172  0.0598  0.1166
 2827W        W19088  16.464   4.641   1.657  0.0983  0.0075  0.2013
 2828W        W19089   4.509  15.234   1.192 -0.0803 -0.0927  0.1862
 2829W        W19090   3.460   7.725  12.251  0.2534 -0.0943  0.1672
 2830W        W19091   8.155   4.912   0.942  0.1282 -0.1852  0.0030
 2831W        W19092   9.816   5.098  11.933 -0.0819 -0.2356  0.1220
 2832W        W19093  14.227  12.396   4.192  0.0403  0.3279 -0.0077
 2833W        W19094   2.132   8.070   5.481 -0.0803  0.1376 -0.0805
 2834W        W19095  15.583   4.014   3.953 -0.1508 -0.0737  0.2743
 2835W        W19096   2.878  12.793   4.131 -0.2651 -0.3014  0.3452
 2836W        W19097   1.918  12.595  11.786  0.1355  0.0499  0.1516
 2837W        W19098  17.746  11.169  11.773 -0.1207 -0.0893  0.1051
 2838W        W19099  13.204   2.229   2.210 -0.0042  0.0571  0.0195
 2839W        W19100   0.016   1.438  14.086  0.0823 -0.2968  0.2771
 2840W        W19101   7.715   1.694  14.280 -0.0122  0.0461  0.0242
 2841W        W19102  13.886   6.848  12.631 -0.3343 -0.1580 -0.0181
 2842W        W19103  14.681   0.133   2.943  0.0740 -0.1797  0.2730
 2843W        W19104   2.949   5.685  16.581 -0.1784 -0.0684 -0.1158
 2844W        W19105   4.184   1.166  16.254 -0.2754  0.1445  0.1973
 2845W        W19106   4.504   2.411   4.298  0.1261 -0.2654 -0.1435
 2846W        W19107  12.122  17.812  13.187 -0.1255  0.1071  0.1515
 2847W        W19108   4.146  10.481  11.083 -0.1977 -0.1156  0.0078
 2848W        W19109   7.470  13.154  14.462  0.0911 -0.0772 -0.0762
 2849W        W19110  13.699   9.293  15.685 -0.2427 -0.0989 -0.0573
 2850W        W19111   6.013  12.213  13.221  0.2904 -0.1157  0.4403
 2851W        W19112   8.649   1.676   0.106  0.0623 -0.3180 -0.0861
 2852W        W19113   1.554  16.807  13.167  0.2571  0.1584 -0.2248
 2853W        W19114  10.038   1.795  11.408  0.1241  0.0140  0.0489
 2854W        W19115   5.068   0.446   2.258  0.2538 -0.3632 -0.0554
 2855W        W19116  10.677  10.592  11.997  0.1602  0.0953 -0.2761
 2856W        W19117  12.085   4.659  16.097 -0.2074  0.2849  0.0885
 2857W        W19118  16.252  17.072   2.788  0.1020 -0.1302 -0.1652
 2858W        W19119   4.944  10.223   3.575  0.2369  0.1024 -0.0945
 2859W        W19120   4.040  12.416  14.152 -0.1598  0.1367 -0.0905
 2860W        W19121  16.226   9.363  15.179  0.0048 -0.4239  0.0687
 2861W        W19122   2.820  14.845  16.862  0.1694 -0.2148 -0.1131
 2862W        W19123   6.763  10.295   4.155  0.0149  0.3238 -0.0719
 2863W        W19124   5.402   2.973   2.805  0.2742  0.0540  0.1739
 2864W        W19125  14.641  15.029   0.187  0.0711 -0.2218 -0.0646
 2865W        W19126   6.279   7.712   1.444  0.0173 -0.3039 -0.2287
 2866W        W19127  10.614  13.184  12.727 -0.5540 -0.1602  0.0847
 2867W        W19128   7.645   9.772   4.690 -0.2883  0.2883  0.1802
 2868W        W19129   8.701  10.473   5.708  0.0913 -0.2814  0.0468
 2869W        W19130   6.123  12.758   4.777  0.0041  0.0724  0.1557
 2870W        W19131   1.511   1.950   2.709 -0.0573 -0.0202 -0.0628
 2871W        W19132  11.813   2.935  12.133  0.1408 -0.0253 -0.5319
 2872W        W19133   4.313   0.479  15.330 -0.1192 -0.3962 -0.1301
 2873W        W19134   7.108  11.133   5.164 -0.0755 -0.5116 -0.2352
 2874W        W19135   7.502   5.792   3.252  0.1197  0.2098  0.1343
 2875W        W19136  12.019  14.977   3.980  0.2676 -0.0749 -0.1321
 2876W        W19137   2.410   1.163   1.051  0.2608 -0.1863 -0.0961
 2877W        W19138  17.164  11.923   5.106  0.2538 -0.2128 -0.0946
 2878W        W19139  14.206  10.968  14.347 -0.3096 -0.1442  0.0371
 2879W        W19140  11.336   6.434   4.546  0.2705  0.4354  0.2473
 2880W        W19141   8.582   2.427  13.747 -0.0782 -0.2967 -0.1036
 2881W        W19142   0.163  17.195   3.391  0.2220 -0.1892 -0.2162
 2882W        W19143   7.057   6.787  16.296  0.2615 -0.0535 -0.2805
 2883W        W19144   6.581  12.549   3.599  0.3468  0.0240  0.1328
 2884W        W19145  16.887   0.027  13.983  0.3215  0.1772  0.1528
 2885W        W19146  17.761   7.401  12.932 -0.0275 -0.0934 -0.0828
 2886W        W19147  12.971  15.071   5.527  0.0227  0.1616 -0.0807
 2887W        W19148   0.469   9.708  13.118  0.1657  0.1840  0.0540
 2888W        W19149   9.017   1.486  13.988  0.0321 -0.1873 -0.1381
 2889W        W19150   0.513  17.242  11.697  0.1604  0.1135 -0.0664
 2890W        W19151  17.794   0.351  13.474  0.2732 -0.2223  0.0034
 2891W        W19152   8.602  17.845  14.632  0.1987 -0.0903 -0.1585
 2892W        W19153   2.341   2.599   4.440  0.1080  0.2850 -0.0780
 2893W        W19154  13.400   8.427   0.113 -0.1594  0.0396  0.1004
 2894W        W19155   0.751  10.282   0.101 -0.1647  0.3198 -0.0694
 2895W        W19156   3.102   4.269   1.332  0.0254 -0.2597 -0.3079
 2896W        W19157   2.752  14.438   2.916  0.1001 -0.1087 -0.0246
 2897W        W19158   0.060   5.373   5.654 -0.0028 -0.0422 -0.0961
 2898W        W19159   3.889  17.247   3.182  0.1704  0.1786  0.2363
 2899W        W19160   4.785  14.727   5.054 -0.0499 -0.4709  0.1818
 2900W        W19161  14.957   7.853   2.391 -0.0699 -0.1450  0.2483
 2901W        W19162  13.471   0.402   5.843 -0.0509  0.0649 -0.1248
 2902W        W19163   5.304  12.765  15.817 -0.2895 -0.1875  0.2647
 2903W        W19164  12.675  11.472  16.340  0.2077  0.2175 -0.0523
 2904W        W19165   4.424   0.347  14.762 -0.3241 -0.0655 -0.0399
 2905W        W19166   5.735   5.717  12.841 -0.2563 -0.1158 -0.0509
 2906W        W19167   5.057  10.230   1.015 -0.0205 -0.0276 -0.0408
 2907W        W19168  13.937  16.265   1.248 -0.2435  0.2419 -0.2887
 2908W        W19169   1.298   4.753  14.778 -0.1798 -0.1366 -0.2730
 2909W        W19170  17.079   7.531   2.290 -0.0470 -0.4160  0.1307
 2910W        W19171   9.737  11.372   0.020 -0.0957  0.2595 -0.0980
 2911W        W19172  17.285  15.264   1.856 -0.2580  0.1860  0.2610
 2912W        W19173   5.428  12.381  14.473  0.1292 -0.0811 -0.2617
 2913W        W19174   7.749   9.644   1.406 -0.0409 -0.1936  0.2025
 2914W        W19175   9.533   3.191  11.746 -0.0657  0.2008  0.2671
 2915W        W19176   7.815   4.935  16.654  0.0596 -0.0329  0.2730
 2916W        W19177  11.075  16.943  15.392 -0.0496  0.0770 -0.0249
 2917W        W19178  11.543   4.926  12.892  0.2608 -0.0844  0.0306
 2918W        W19179   1.158   8.324   3.245  0.1377 -0.2468 -0.2029
 2919W        W19180  13.836  12.741  13.169 -0.2956  0.3029  0.0023
 2920W        W19181  17.805   4.673  15.864  0.2019  0.4250  0.0195
 2921W        W19182  17.127   7.370   2.796 -0.0079 -0.2914 -0.0271
 2922W        W19183  14.400  13.345   1.929 -0.1747 -0.0063 -0.0114
 2923W        W19184   5.029  17.031   1.439  0.0459 -0.2051  0.0711
 2924W        W19185  13.150   9.951  12.138 -0.1276 -0.2245 -0.1662
 2925W        W19186   4.630  13.029  11.919  0.0028  0.0354 -0.0472
 2926W        W19187  10.541  10.809  15.282  0.2239  0.0863 -0.1085
 2927W        W19188   5.171  14.870   2.970 -0.0879 -0.0100 -0.0484
 2928W        W19189   5.205   4.887  16.879  0.1251 -0.2038 -0.0373
 2929W        W19190   4.313   6.123   5.523  0.2245 -0.3333 -0.0691
 2930W        W19191  10.947  14.464   2.130  0.0199  0.0738 -0.0520
 2931W        W19192   7.117  13.033   1.771  0.0191 -0.0653 -0.1682
 2932W        W19193  17.716  12.587   1.982  0.1574  0.1111 -0.1494
 2933W        W19194  17.073  16.048  12.023 -0.3155  0.0582 -0.2378
 2934W        W19195   3.230  15.011   5.549 -0.2391 -0.0178 -0.2970
 2935W        W19196  10.668  17.373   0.021  0.0070  0.0070 -0.1472
 2936W        W19197  13.942   2.190  13.236 -0.3829 -0.0167  0.1360
 2937W        W19198   9.424   2.159  13.583  0.0474  0.0127 -0.0020
 2938W        W19199  12.903   7.421   5.157  0.1774  0.1445 -0.1510
 2939W        W19200   5.149  14.925  13.413  0.2163 -0.1334 -0.0288
 2940W        W19201   6.342   5.058   1.841 -0.1460  0.0102  0.3350
 2941W        W19202  14.504  14.078   3.898  0.0510  0.2369  0.1954
 2942W        W19203   2.332   4.151   2.540 -0.0895 -0.1061 -0.2354
 2943W        W19204  15.578   4.220  16.677 -0.1230 -0.3006 -0.2964
 2944W        W19205   8.745   7.493   1.735  0.3718 -0.3736  0.2020
 2945W        W19206   9.604   9.474   6.598 -0.1508  0.1063 -0.1291
 2946W        W19207   2.771  17.337  15.046  0.1896 -0.0197 -0.1812
 2947W        W19208   2.159  15.852   4.718 -0.0127 -0.1472  0.0163
 2948W        W19209   1.756  12.408   1.569  0.0530 -0.0560 -0.1745
 2949W        W19210  17.052   0.153  12.936  0.1000  0.1332  0.4032
 2950W        W19211   2.566   4.578  11.709  0.0576  0.1320  0.1436
 2951W        W19212   7.535   2.075  15.663  0.1537  0.0203  0.1014
 2952W        W19213   4.082   8.538  14.811 -0.2989 -0.0013  0.2080
 2953W        W19214   9.161   5.749   3.688  0.3792  0.3348 -0.2088
 2954W        W19215   1.396   6.756   0.716 -0.1770 -0.0519 -0.1556
 2955W        W19216  13.518   4.292   5.096 -0.0273  0.2378  0.0499
 2956W        W19217   3.272  10.583  12.534  0.1790  0.2081 -0.0557
 2957W        W19218   5.677   7.993  13.211 -0.1440  0.0589  0.1042
 2958W        W19219   6.794   5.162  13.935 -0.1335  0.0086  0.1619
 2959W        W19220   2.369   0.568   1.077  0.1428  0.0965  0.3475
 2960W        W19221  15.974   0.830   2.847 -0.3570  0.1634 -0.4326
 2961W        W19222   2.178  13.749   1.693 -0.0831 -0.2354 -0.5750
 2962W        W19223   8.949   5.884   0.740  0.2052  0.0967 -0.4706
 2963W        W19224   3.854   9.607   4.891 -0.3609  0.0076  0.1518
 2964W        W19225  15.016   1.367  15.977  0.0144  0.2160 -0.1121
 2965W        W19226  11.028  16.294  12.233 -0.1176 -0.1987 -0.0935
 2966W        W19227  15.061  17.436   2.023 -0.2251  0.1851  0.0873
 2967W        W19228  12.417   4.531   1.455  0.0085 -0.2141 -0.2120
 2968W        W19229  17.479  17.461   5.914  0.1855  0.0083  0.2437
 2969W        W19230   0.810   6.433   2.324 -0.0404 -0.0481  0.0694
 2970W        W19231  17.277   4.122  12.952 -0.0460  0.1981  0.2751
 2971W        W19232   6.399   6.537   0.708 -0.2610 -0.1927 -0.0531
 2972W        W19233   2.865  10.513  16.680 -0.0145 -0.0022 -0.3251
 2973W        W19234   2.603   5.777   5.250  0.1754  0.2223  0.0253
 2974W        W19235  17.483   5.838  16.886  0.1109  0.3542  0.1047
 2975W        W19236   4.062   1.681  16.756  0.2058  0.0094  0.0411
 2976W        W19237  15.984   1.366   2.367 -0.2331 -0.0726  0.0391
 2977W        W19238   7.071  15.241   3.647 -0.2675 -0.1354 -0.1083
 2978W        W19239   9.987  13.633   4.606  0.0553  0.0338  0.1409
 2979W        W19240   7.416  15.418   1.594 -0.0423  0.2949 -0.1494
 2980W        W19241  15.215   3.947  14.523 -0.2568 -0.1714 -0.0463
 2981W        W19242   3.705   7.233   3.018 -0.1813 -0.0633 -0.0193
 2982W        W19243  12.369  12.427   2.320 -0.1591 -0.0829  0.1264
 2983W        W19244  17.485  16.441  15.835  0.1055 -0.1371 -0.0683
 2984W        W19245  11.844   9.455   0.348  0.0073  0.2337 -0.0242
 2985W        W19246  11.389  15.274  15.075 -0.4451  0.3264 -0.3359
 2986W        W19247   6.874   5.894   0.285 -0.1742  0.3360 -0.0858
 2987W        W19248   1.804   1.641  15.219  0.0859 -0.2045 -0.1024
 2988W        W19249   8.561   5.475   1.773 -0.2919 -0.1266  0.2563
 2989W        W19250   5.683  15.385   0.750 -0.1363  0.1013  0.0839
 2990W        W19251   4.456   5.628  13.410 -0.1843 -0.0972 -0.0519
 2991W        W19252  17.028  14.683  16.012 -0.1392  0.2669  0.1382
 2992W        W19253   3.882  10.995   3.358 -0.0464 -0.1095 -0.0928
 2993W        W19254   7.888   5.790  16.275 -0.0608 -0.0032 -0.0981
 2994W        W19255   0.059   5.819  15.160  0.1401 -0.2492  0.2852
 2995W        W19256  11.648   5.438  13.056  0.1959 -0.3217  0.0307
 2996W        W19257   9.268   3.176   1.125  0.3010 -0.0948 -0.1398
 2997W        W19258  12.363   9.942  16.022 -0.2405  0.0415 -0.0092
 2998W        W19259   5.750   1.262   2.167  0.4425 -0.4500 -0.0230
 2999W        W19260  10.004  11.706   1.412  0.0445  0.0820  0.1451
 3000W        W19261   3.907  17.318   1.056  0.0414 -0.3123 -0.1641
 3001W        W19262  12.369  10.463  15.026 -0.1433 -0.0478 -0.1817
 3002W        W19263   8.579  11.428   2.205  0.2803 -0.0790 -0.0075
 3003W        W19264   6.251   4.343   1.132 -0.1555 -0.1241  0.1279
 3004W        W19265   0.666  14.183  15.765  0.0754 -0.0398 -0.0619
 3005W        W19266   5.186   9.252  14.941 -0.1821  0.0160 -0.0174
 3006W        W19267  14.315   2.080   0.918  0.1443  0.1482  0.1667
 3007W        W19268   6.687   7.396   1.206 -0.0543  0.1532 -0.0583
 3008W        W19269  14.225   2.893  13.504  0.0722 -0.1153  0.0292
 3009W        W19270  13.080  12.978   1.229  0.0778 -0.2443  0.0521
 3010W        W19271   9.079  15.155   1.860  0.3422  0.2469 -0.1043
 3011W        W19272   0.244  15.547   4.511  0.0003  0.1104  0.1438
 3012W        W19273  14.424   9.921   3.632 -0.2069 -0.0938 -0.1843
 3013W        W19274   4.070  12.662   4.263 -0.0519 -0.4878 -0.2478
 3014W        W19275  11.958  15.224   2.926 -0.0126 -0.1853  0.3797
 3015W        W19276   2.472   5.411  13.609  0.2553 -0.0619  0.3426
 3016W        W19277   2.064   0.947   4.306  0.2357 -0.3650  0.1872
 3017W        W19278  14.782   2.318   4.377 -0.2042  0.0808 -0.2650
 3018W        W19279  12.029   6.649  16.694  0.0947  0.2093  0.0249
 3019W        W19280   4.143  10.492   2.519  0.3552  0.1858  0.0452
 3020W        W19281  13.707   1.741   4.461 -0.0438  0.1839 -0.1144
 3021W        W19282   9.395   1.057   4.777  0.1152  0.0969  0.0274
 3022W        W19283  15.706  11.475   3.184  0.0961 -0.1537  0.1827
 3023W        W19284   9.632   5.839  13.819 -0.1838  0.1147 -0.2106
 3024W        W19285   2.138  15.199   3.060 -0.1102 -0.1170  0.0168
 3025W        W19286   8.610   0.523   2.871 -0.2101  0.1804 -0.0062
 3026W        W19287  17.822   2.030   0.989 -0.3158  0.1476 -0.0603
 3027W        W19288   7.891  15.022  16.880  0.0129 -0.1551  0.0121
 3028W        W19289   1.565  14.236  13.839 -0.0906  0.0873  0.2888
 3029W        W19290   9.475   7.694   0.611 -0.2626  0.0794 -0.3152
 3030W        W19291  14.543  10.814  12.786 -0.0041 -0.0809 -0.0897
 3031W        W19292   8.280   8.949   2.721 -0.0224  0.0450 -0.1817
 3032W        W19293  15.234   7.856  12.105  0.1727 -0.2778 -0.3255
 3033W        W19294  14.892  10.568  11.805 -0.1954  0.1246 -0.0744
 3034W        W19295   8.054   6.258   4.990 -0.2301  0.4502 -0.3517
 3035W        W19296  17.772  13.581   3.549  0.1957  0.2288  0.3295
 3036W        W19297   1.080   4.959   6.201 -0.1008  0.0066 -0.1784
 3037W        W19298   8.143  12.231  15.945 -0.2067 -0.1492  0.1393
 3038W        W19299   8.919  15.718  16.331  0.0239  0.1535 -0.2233
 3039W        W19300  12.917  11.658   3.794 -0.1041 -0.0341  0.0164
 3040W        W19301   8.408   4.486   0.913  0.1520  0.2013 -0.0438
 3041W        W19302  17.445   6.969  13.993  0.1404  0.0708  0.2104
 3042W        W19303  15.628   4.722   2.200  0.0828  0.2237 -0.2231
 3043W        W19304   8.869   8.922   3.773 -0.1955 -0.2453 -0.1757
 3044W        W19305   9.125  10.560   0.117 -0.2246  0.1132  0.0778
 3045W        W19306   3.093   2.318   2.376  0.2520 -0.3735  0.0682
 3046W        W19307  14.675  10.163   5.405 -0.0521 -0.1554  0.1932
 3047W        W19308   0.881  17.476  15.144 -0.0554 -0.0300  0.6278
 3048W        W19309  16.738   0.951   4.037  0.0007  0.0515  0.1489
 3049W        W19310   4.312   9.593   1.824  0.0396 -0.3139  0.1596
 3050W        W19311   1.300   3.988   0.139 -0.0094 -0.1667  0.1365
 3051W        W19312  16.318   8.525  11.744  0.2099 -0.0028  0.1509
 3052W        W19313  11.324   7.873   0.228  0.0147  0.1622  0.2890
 3053W        W19314   6.964  13.350   3.470  0.3690  0.4383  0.0628
 3054W        W19315  14.543   5.114  14.367 -0.0025 -0.1868 -0.2219
 3055W        W19316   3.027   2.855   2.805 -0.0093 -0.1878  0.1433
 3056W        W19317   9.869  14.928   3.276 -0.0443  0.1095  0.0214
 3057W        W19318  12.588  13.276  14.263 -0.0333  0.1720  0.3971
 3058W        W19319   3.060   8.061  16.504 -0.2409  0.2364  0.0326
 3059W        W19320   1.180   4.977   5.400 -0.0824 -0.1059 -0.4710
 3060W        W19321   2.349  12.167  14.328 -0.1460 -0.0320  0.2406
 3061W        W19322  12.386  17.264  14.591 -0.3883  0.0794  0.0115
 3062W        W19323   1.971  12.470  14.482  0.4228 -0.2333  0.0318
 3063W        W19324  14.705   8.004  14.986 -0.2221 -0.2600 -0.3399
 3064W        W19325   5.624  12.801   2.547 -0.2816  0.1067 -0.1584
 3065W        W19326   5.626  15.969   3.302  0.1888 -0.0553  0.1612
 3066W        W19327   0.051  10.858  14.831 -0.2194 -0.0981  0.0319
 3067W        W19328   0.308   8.991  13.017 -0.1137  0.1263  0.1222
 3068W        W19329  11.110   7.604  15.834  0.0817  0.3611  0.0091
 3069W        W19330   3.392   7.213  12.380  0.4052 -0.1262 -0.1595
 3070W        W19331  12.028   7.611  15.191 -0.0307  0.2197  0.0550
 3071W        W19332  14.190   5.490  13.069  0.0477 -0.0988 -0.1741
 3072W        W19333   9.134  10.093   0.917  0.0201  0.2001  0.0168
 3073W        W19334  14.686  11.823   0.967  0.0702 -0.4263 -0.0001
 3074W        W19335   4.011   8.802   1.977  0.0785 -0.2718  0.1949
 3075W        W19336  10.900   2.821   2.905 -0.0632  0.0402  0.1799
 3076W        W19337  10.015   5.829   2.796 -0.1685 -0.4066  0.4206
 3077W        W19338  12.309   3.309   4.865  0.2084 -0.1782  0.0951
 3078W        W19339   9.924   4.811   5.178 -0.0516  0.1402  0.0342
 3079W        W19340  14.938   1.682  15.569 -0.2845  0.1420 -0.1973
 3080W        W19341  17.685   3.717  14.907  0.0411 -0.1956  0.2714
 3081W        W19342  15.943   0.507   5.094  0.0402 -0.1909 -0.3346
 3082W        W19343   3.913   0.824   6.220  0.2060  0.0609  0.0051
 3083W        W19344   7.065   7.744  15.434  0.0116  0.0480 -0.3156
 3084W        W19345  17.608   9.188   3.045  0.3865 -0.0797 -0.0427
 3085W        W19346   5.516   7.158   4.465 -0.1061 -0.0998 -0.1605
 3086W        W19347  15.020   4.705   3.067  0.1830  0.0105  0.0813
 3087W        W19348  10.587   4.963  12.551  0.1657  0.0332 -0.2449
 3088W        W19349  16.461   3.130  14.419  0.0718  0.1190  0.0868
 3089W        W19350  17.547   6.566  11.615  0.1916 -0.0991 -0.4631
 3090W        W19351   0.779  10.399  11.855  0.1334 -0.1281  0.1288
 3091W        W19352   4.564   5.019   1.504  0.2148  0.0225  0.1419
 3092W        W19353   8.216   3.375   0.797 -0.2069  0.1441  0.0572
 3093W        W19354  13.879   6.734   3.632 -0.2059  0.4724 -0.0100
 3094W        W19355   9.755  13.641   2.796 -0.0049  0.2453 -0.0150
 3095W        W19356   5.190   9.013   6.584  0.2763 -0.1421  0.0228
 3096W        W19357   9.571  12.560   3.572  0.0101 -0.3807  0.1602
 3097W        W19358  10.534   2.505  13.729 -0.2691 -0.1244 -0.0655
 3098W        W19359   4.804   0.055  13.923 -0.0321  0.1257  0.2724
 3099W        W19360  13.164  10.680   5.332 -0.1280 -0.1759  0.0631
 3100W        W19361   6.995   5.149  14.708  0.0600  0.0182  0.0492
 3101W        W19362   9.801   1.845   1.855  0.1018 -0.0001 -0.3514
 3102W        W19363  10.782   1.090   5.092 -0.1690 -0.0783  0.0044
 3103W        W19364   1.742  15.461  15.736 -0.3942 -0.0058  0.0582
 3104W        W19365   3.760  10.401   0.549  0.1591  0.1965  0.1535
 3105W        W19366   2.302   5.722   2.857  0.1237  0.2342 -0.1359
 3106W        W19367  14.454  16.902   3.066 -0.0003 -0.1181 -0.0454
 3107W        W19368  10.340   7.681  13.629  0.1909 -0.0987 -0.0815
 3108W        W19369  13.563  15.811   1.150 -0.0403  0.2913 -0.1605
 3109W        W19370   4.784   5.891  14.364 -0.1432  0.2133  0.1399
 3110W        W19371   1.620   9.200   5.790  0.0532 -0.1191  0.1939
 3111W        W19372  14.004   1.649   2.586 -0.1251 -0.2057 -0.2203
 3112W        W19373  11.833   9.545   1.892  0.0559  0.2148  0.0880
 3113W        W19374   9.694   3.041  13.855  0.1905  0.0896 -0.3452
 3114W        W19375   3.523   7.243   1.421 -0.0210  0.0908 -0.2401
 3115W        W19376   9.933  15.218  13.337  0.0352  0.0386 -0.1332
 3116W        W19377   5.266   9.265   0.559 -0.0055  0.4815  0.2544
 3117W        W19378   0.612  16.545  15.534 -0.3321 -0.1366 -0.1759
 3118W        W19379   4.839   6.730   0.847  0.0218  0.0608  0.0594
 3119W        W19380  11.838  15.681   4.299  0.0313 -0.0927  0.1124
 3120W        W19381   1.909  13.535  15.944  0.1728  0.2558 -0.1085
 3121W        W19382  17.819  10.223  16.046 -0.0195  0.0454  0.0374
 3122W        W19383  15.473   2.703   4.439 -0.1619 -0.1399 -0.1994
 3123W        W19384   8.729   5.013   1.667  0.1773 -0.1190 -0.0637
 3124W        W19385   2.709  10.001  13.160  0.0196  0.0545  0.2158
 3125W        W19386  15.178   9.381   0.215 -0.3758 -0.1696 -0.1629
 3126W        W19387   9.402   2.691   0.409  0.2543 -0.1385 -0.2087
 3127W        W19388   7.419   2.197   0.917  0.1150 -0.0788 -0.1267
 3128W        W19389  12.411   7.267   5.082  0.1321 -0.2656  0.0486
 3129W        W19390  13.990  13.683   4.651  0.1386  0.2514  0.0523
 3130W        W19391   1.167   7.309  14.428  0.0569  0.2252 -0.1492
 3131W        W19392   6.349  15.765  14.427  0.1291  0.1055  0.1505
 3132W        W19393   4.283  17.573  16.110 -0.0304 -0.1289 -0.1909
 3133W        W19394  12.594  10.206  10.968 -0.0567 -0.0036 -0.0873
 3134W        W19395  10.594  13.131   1.188  0.0707  0.1430 -0.0342
 3135W        W19396  17.281  16.925   1.411  0.2506  0.1252  0.3460
 3136W        W19397   9.818   2.035   1.388  0.0946 -0.0612  0.1329
 3137W        W19398  15.879  15.611   4.576  0.0323 -0.2416  0.1428
 3138W        W19399   0.090   4.039  11.987  0.1367  0.2736 -0.1385
 3139W        W19400   4.991  16.291   2.155  0.2227  0.0831  0.0194
 3140W        W19401   7.965  12.061  12.306  0.0277 -0.1878 -0.0955
 3141W        W19402   6.923   9.671   0.499 -0.1044  0.0167 -0.3229
 3142W        W19403  10.727   0.255  13.584  0.0596 -0.0158  0.0307
 3143W        W19404  14.257   6.169   2.383 -0.1185 -0.0190 -0.1372
 3144W        W19405   3.094  15.412  13.661 -0.1389 -0.1069  0.1297
 3145W        W19406   5.508  14.033   5.036  0.3142 -0.2522 -0.2584
 3146W        W19407   6.068   4.642   0.796  0.1650  0.0568  0.0853
 3147W        W19408   5.431   9.622   2.384  0.0030  0.0118 -0.1850
 3148W        W19409   5.935   0.241  13.628  0.2417  0.1056 -0.0559
 3149W        W19410  12.495   5.629   2.516 -0.1283 -0.2360 -0.1459
 3150W        W19411  13.964  12.812   5.380 -0.1607 -0.0215  0.1724
 3151W        W19412  15.073   5.115  15.425  0.0030 -0.0356  0.0674
 3152W        W19413  11.141  16.213  13.078  0.0094  0.1344  0.0008
 3153W        W19414   2.089   7.592  12.269 -0.1637  0.0629 -0.1193
 3154W        W19415   3.191  16.942  14.235  0.0091 -0.0062 -0.1608
 3155W        W19416   6.580   1.457  11.752  0.1159 -0.0014 -0.0155
 3156W        W19417  10.775   7.105  15.427 -0.1191  0.1097 -0.1030
 3157W        W19418   4.256  12.202  13.709  0.0212  0.3727  0.2987
 3158W        W19419   8.009   3.147   0.258  0.0271  0.1735 -0.1633
 3159W        W19420   8.696  14.015  15.219 -0.2956 -0.2893  0.1670
 3160W        W19421   2.718   9.234  13.689  0.1332 -0.0087  0.0998
 3161W        W19422   4.596  13.958  13.339 -0.0924 -0.1390 -0.1045
 3162W        W19423  11.095  10.641   5.572 -0.1171  0.0698 -0.1984
 3163W        W19424  14.092   0.562   3.425  0.0169 -0.0219 -0.2404
 3164W        W19425   0.281  14.338   2.396 -0.0423 -0.1621  0.0702
 3165W        W19426   1.963   4.665   1.484 -0.0528  0.3102  0.1128
 3166W        W19427   5.297  11.694  16.760 -0.1218 -0.1406 -0.2205
 3167W        W19428   4.724   3.980  14.915  0.2762 -0.0584 -0.0550
 3168W        W19429   6.597  10.372   0.604  0.2093 -0.1782  0.1375
 3169W        W19430   9.959   9.171  12.331 -0.2378  0.0187  0.1827
 3170W        W19431   6.077  15.510  14.727  0.1064  0.0361  0.0946
 3171W        W19432   3.099   4.418   4.322  0.0526 -0.0808  0.1097
 3172W        W19433  17.392   4.889  16.986 -0.0466  0.0552 -0.2981
 3173W        W19434   5.963   6.335   0.488 -0.1239  0.1267  0.0917
 3174W        W19435   9.414   8.638   1.508 -0.0628  0.2104 -0.0545
 3175W        W19436   8.517   6.613  12.934 -0.2226 -0.0639 -0.0051
 3176W        W19437   3.050   2.856  16.261 -0.0805  0.0745 -0.2492
 3177W        W19438   7.188  11.596  15.529  0.0772  0.1348 -0.0150
 3178W        W19439   7.716  11.858   2.366 -0.2073  0.0514 -0.2087
 3179W        W19440   1.870   5.232   4.840 -0.1371 -0.2048 -0.2998
 3180W        W19441  10.261  13.890   4.122 -0.1760  0.3819 -0.0929
 3181W        W19442  15.815  15.340  14.748  0.0540 -0.2147 -0.2525
 3182W        W19443   2.011   7.569  14.079 -0.3852 -0.0051 -0.0792
 3183W        W19444  13.575   6.895  11.420  0.0251 -0.0236 -0.1505
 3184W        W19445   8.028   6.640  16.129  0.0703  0.1134  0.3545
 3185W        W19446  13.803   6.064   4.674  0.1865 -0.0385  0.0327
 3186W        W19447   6.413  15.712  13.484 -0.0602 -0.3666 -0.0952
 3187W        W19448  10.933  16.965  14.467  0.0718 -0.0028 -0.1896
 3188W        W19449   7.039  13.799  15.141  0.0504  0.2596  0.2024
 3189W        W19450  16.968   2.328  12.945 -0.1570 -0.0329 -0.2563
 3190W        W19451   3.703  10.507  16.579 -0.0621 -0.2648 -0.1055
 3191W        W19452   0.186   9.214   3.357 -0.0621 -0.0156  0.2561
 3192W        W19453   4.048  11.825   2.729  0.0175 -0.0802  0.0004
 3193W        W19454   2.675  17.435  11.686  0.0481  0.0515  0.0680
 3194W        W19455   3.237  10.988  13.357  0.0287 -0.2270 -0.1049
 3195W        W19456   8.849   5.429   0.897  0.0335  0.1114 -0.1660
 3196W        W19457   8.182  10.994   4.171  0.0436  0.0212  0.1694
 3197W        W19458  16.557   4.421   2.165  0.0565  0.1641 -0.2467
 3198W        W19459   9.428  13.441   3.794 -0.1309  0.3600 -0.3226
 3199W        W19460   0.188  13.315  16.680  0.3283 -0.0582 -0.0543
 3200W        W19461   3.659   1.282  15.819 -0.0608  0.1838  0.2291
 3201W        W19462   5.136   6.522  12.316 -0.0352  0.1694 -0.0993
 3202W        W19463   8.108  13.628   5.234  0.0708  0.1495  0.2522
 3203W        W19464  11.355  13.181  15.081 -0.1169 -0.0463 -0.0293
 3204W        W19465   5.623   0.754   1.198  0.1207 -0.5084 -0.1248
 3205W        W19466   8.897   3.651  16.435 -0.0480  0.0514 -0.1132
 3206W        W19467  16.936   3.112   1.220 -0.4762 -0.1532  0.2142
 3207W        W19468   5.460   3.591  11.813 -0.0500 -0.2083  0.0901
 3208W        W19469  16.787  11.891  12.430  0.0171  0.1360 -0.1046
 3209W        W19470  12.017   8.243   1.720 -0.1870  0.5074 -0.0711
 3210W        W19471   8.780  11.806   6.449  0.1987  0.0785 -0.1413
 3211W        W19472  11.685   6.737  15.703 -0.1583 -0.1142 -0.2711
 3212W        W19473   8.143  15.477  16.378  0.0258  0.3072 -0.0904
 3213W        W19474  10.160  17.815  16.145 -0.0096  0.1971  0.1396
 3214W        W19475  15.319  13.764  15.699  0.1624 -0.1441 -0.0485
 3215W        W19476  14.736   9.605   6.044  0.2084  0.1229 -0.1666
 3216W        W19477   5.540   3.621  16.515 -0.0785 -0.0489 -0.4006
 3217W        W19478  16.865   3.761   5.431 -0.1432 -0.1504 -0.3787
 3218W        W19479   0.402   3.258  16.524 -0.0741  0.0003 -0.1339
 3219W        W19480   6.478  11.364  13.451 -0.0221  0.1137 -0.2178
 3220W        W19481   1.570   1.255  14.939 -0.0826  0.0527 -0.0830
 3221W        W19482   0.456   3.718  16.915  0.0344 -0.1613  0.1236
 3222W        W19483  14.162   0.943  12.020  0.0051  0.0648 -0.1743
 3223W        W19484  16.539  10.202   3.652 -0.0403  0.0656 -0.1874
 3224W        W19485   5.013   8.979  14.091  0.1932  0.0429  0.1085
 3225W        W19486   5.359   7.180   3.497  0.0147  0.1643  0.1471
 3226W        W19487   8.568   7.371  13.736  0.0918  0.0440 -0.2088
 3227W        W19488   6.596   9.066  15.311  0.1753 -0.0072 -0.0082
 3228W        W19489   4.514  10.511  14.779 -0.0302 -0.1706 -0.3610
 3229W        W19490   3.661   9.211  16.082 -0.2236 -0.0557  0.2354
 3230W        W19491  10.320  16.325  13.383  0.0980  0.0961 -0.3315
 3231W        W19492   0.966  14.696  11.556  0.4116 -0.2039 -0.0494
 3232W        W19493   4.284  16.067   0.595  0.0650 -0.1611  0.0931
 3233W        W19494  14.712  11.978  13.633  0.1267  0.0818  0.1153
 3234W        W19495   6.997  11.047   1.348  0.0059 -0.0282 -0.1804
 3235W        W19496   4.097  10.232   3.801 -0.1209 -0.0300  0.0444
 3236W        W19497   7.627   3.673   2.180  0.1668  0.1029  0.2328
 3237W        W19498   3.091   6.823   5.617  0.2864  0.0823 -0.1539
 3238W        W19499  17.740  15.639  13.730 -0.2630  0.2116 -0.0690
 3239W        W19500   4.995  10.491   0.567  0.2048  0.2098  0.1044
 3240W        W19501  15.962   4.132  15.687  0.1483 -0.0078  0.1684
 3241W        W19502   1.594  14.246   2.831  0.1615 -0.1668 -0.2483
 3242W        W19503   0.535  15.806  12.239  0.1638  0.1196  0.2096
 3243W        W19504  11.682   7.282  12.677  0.1882  0.1026  0.3699
 3244W        W19505   5.114   8.674  14.944  0.0251 -0.0111 -0.1198
 3245W        W19506  10.896  10.534   2.319  0.0522  0.1996  0.2563
 3246W        W19507   9.107   8.162  12.762 -0.0557  0.1027 -0.2153
 3247W        W19508   8.814   9.690   5.910  0.1021  0.0179  0.0176
 3248W        W19509  13.302   1.870   3.306 -0.1418 -0.0229 -0.4971
 3249W        W19510   2.333   0.682  14.922  0.0829 -0.2273  0.0118
 3250W        W19511   5.528  15.200   3.179 -0.0592 -0.0575 -0.1722
 3251W        W19512   1.131   5.643  14.990  0.0520 -0.0565  0.0177
 3252W        W19513  14.422   5.680   2.469 -0.0939  0.0731 -0.2549
 3253W        W19514  10.270   2.018  15.160 -0.0110 -0.1039  0.1014
 3254W        W19515   7.547   5.363  11.776  0.0018  0.1611 -0.1427
 3255W        W19516   6.479   2.160   5.616  0.0135 -0.3634 -0.0756
 3256W        W19517   7.804  16.573   1.977  0.1273  0.0479  0.0724
 3257W        W19518   5.504   7.805   4.038  0.1458  0.2944 -0.1651
 3258W        W19519   4.022   0.181   2.498  0.1073 -0.2081  0.1307
 3259W        W19520  14.185   0.986   4.698  0.1586 -0.0749 -0.1350
 3260W        W19521   4.735   5.767   0.947  0.1511 -0.1316 -0.0025
 3261W        W19522   9.299   6.045   3.190  0.1740  0.2883  0.1133
 3262W        W19523   6.182   1.578   4.227 -0.0903  0.0497 -0.1478
 3263W        W19524   7.076  17.616   2.739 -0.1621 -0.0946 -0.1698
 3264W        W19525  15.402   8.794   5.431 -0.2559 -0.2274  0.1861
 3265W        W19526  10.591  14.883   2.912 -0.0152  0.0978  0.1596
 3266W        W19527  16.371   2.310   3.083 -0.0071  0.4409 -0.2049
 3267W        W19528  17.663   3.395  16.387  0.0653 -0.4573 -0.0233
 3268W        W19529   3.657  14.233  11.555  0.1386 -0.3397 -0.1875
 3269W        W19530   6.313   4.291   2.199  0.0301  0.0315 -0.2670
 3270W        W19531   7.297   6.799   2.261  0.0898  0.1700  0.0581
 3271W        W19532   5.178   9.982   0.576 -0.3924  0.0381  0.1674
 3272W        W19533   7.802  13.563   2.963 -0.0424  0.1477 -0.0461
 3273W        W19534   0.689   7.888   1.953 -0.3772  0.3368 -0.0281
 3274W        W19535  12.808   0.253   6.462 -0.0899 -0.0217 -0.2635
 3275W        W19536   4.246  10.100   4.295  0.2859 -0.0472 -0.1284
 3276W        W19537   9.270   1.555  14.511  0.2121 -0.1021 -0.4074
 3277W        W19538   5.812   8.257   4.181  0.0481  0.0904 -0.1685
 3278W        W19539  13.103  16.397  14.936 -0.0620  0.0858 -0.1367
 3279W        W19540   4.203   3.455  13.673  0.0412  0.0991 -0.1886
 3280W        W19541   7.552  16.011  14.797 -0.1488  0.1229 -0.0732
 3281W        W19542  10.921   5.318   1.495  0.0580 -0.0774 -0.1758
 3282W        W19543  13.338   4.347   4.563  0.2592  0.0207 -0.3248
 3283W        W19544  17.173   1.583  16.571 -0.0109  0.0971 -0.0626
 3284W        W19545  16.849   7.417  15.093 -0.2039 -0.0406  0.1143
 3285W        W19546   5.553   9.270  11.751  0.1196 -0.2826  0.0148
 3286W        W19547  17.164  10.436   5.087  0.1219 -0.0154 -0.1263
 3287W        W19548   1.341   9.539   3.763 -0.0739 -0.0335 -0.1251
 3288W        W19549   6.650   4.802   1.467 -0.0896  0.2110 -0.1570
 3289W        W19550   0.155  15.669  14.787 -0.0434 -0.1139  0.0265
 3290W        W19551  14.605   1.801   0.161  0.1263 -0.0643  0.1271
 3291W        W19552   7.828   3.379   5.120  0.0645 -0.1037 -0.0768
 3292W        W19553   3.534   2.446   0.260 -0.1567  0.3550 -0.3024
 3293W        W19554   7.040   4.253   3.259 -0.3014  0.1671 -0.0786
 3294W        W19555   0.918   6.187  13.297  0.0589 -0.3044 -0.1264
 3295W        W19556   0.286   2.094   3.645 -0.3645  0.1699  0.0526
 3296W        W19557   9.430   3.725   0.456 -0.0243  0.3830 -0.0669
 3297W        W19558   0.428   5.722   0.946  0.0385  0.0081 -0.1037
 3298W        W19559   5.594   3.123  16.617  0.0294  0.0912  0.1399
 3299W        W19560   8.044   1.244  16.606  0.0129  0.0153  0.2196
 3300W        W19561   2.966  12.761   5.008 -0.0760  0.0126  0.2122
 3301W        W19562   9.429   9.209   1.396  0.1663  0.0564  0.1610
 3302W        W19563   7.687   2.578  13.905 -0.1117  0.4453  0.2114
 3303W        W19564   8.523   1.669  15.674 -0.1824  0.0524  0.0014
 3304W        W19565  11.420   1.506   4.256  0.0959  0.0076  0.0658
 3305W        W19566  15.506   1.274  16.816 -0.0139  0.0811  0.3369
 3306W        W19567   2.643   4.824  12.857 -0.2173  0.2682 -0.0495
 3307W        W19568   9.677   2.108  12.755  0.2593  0.1078 -0.0705
 3308W        W19569   9.896  12.200   3.510 -0.1021 -0.0885 -0.1739
 3309W        W19570  15.021   8.178   1.185 -0.0590 -0.0267 -0.3448
 3310W        W19571  17.486   3.037  15.507  0.1217 -0.0043  0.0370
 3311W        W19572   3.730  14.662  12.431  0.1087 -0.1935  0.1525
 3312W        W19573   5.899   1.328   3.421 -0.1973  0.0954  0.2481
 3313W        W19574   0.467   7.471  12.938 -0.2372  0.2374  0.4490
 3314W        W19575  15.076  10.966  12.058 -0.2092  0.1423  0.2616
 3315W        W19576   7.041   5.243  13.153 -0.0635 -0.1536 -0.2684
 3316W        W19577   7.802  16.384   4.330 -0.0189 -0.3240  0.0479
 3317W        W19578  14.322  11.609   5.291 -0.0945  0.2450 -0.2805
 3318W        W19579   2.040   1.381  16.481  0.3269  0.0995 -0.0797
 3319W        W19580   6.219   8.976  12.133 -0.3788  0.2042 -0.1708
 3320W        W19581   8.071   3.552   1.983 -0.1682  0.0905 -0.3185
 3321W        W19582   5.163  17.278  14.690 -0.2039  0.2528  0.0611
 3322W        W19583  16.436   2.818   3.270 -0.1429  0.1600 -0.0753
 3323W        W19584  12.976   1.932  16.869 -0.0769 -0.1253 -0.0696
 3324W        W19585  16.940   3.256   5.488 -0.0959 -0.2227 -0.2150
 3325W        W19586  16.303   0.299   0.297  0.0599  0.1803  0.0937
 3326W        W19587  13.268  11.958   4.029 -0.0647  0.1052  0.1265
 3327W        W19588   9.422  10.620   2.584 -0.3500  0.0982  0.0126
 3328W        W19589   7.656  16.847  15.884 -0.0489 -0.0214  0.1148
 3329W        W19590  10.478  16.614   0.698  0.0313  0.1494  0.0638
 3330W        W19591   6.365   9.089  16.350 -0.1794  0.0661  0.1004
 3331W        W19592   7.284  10.309  12.982  0.0602  0.1257  0.0801
 3332W        W19593   8.875   2.621  12.876  0.0808 -0.1602 -0.3284
 3333W        W19594   1.930  10.086   0.428 -0.1111  0.0410  0.3144
 3334W        W19595  14.347  15.098  12.883 -0.2029  0.0335 -0.0932
 3335W        W19596  15.708  17.369  14.635  0.2670 -0.2246 -0.3096
 3336W        W19597  16.615   3.804   2.055 -0.0274  0.2185  0.0965
 3337W        W19598  13.659  17.006   4.297 -0.0184  0.0524 -0.1276
 3338W        W19599   3.373   7.641   0.727  0.2230 -0.0781 -0.1073
 3339W        W19600  13.889  15.949  15.121 -0.0729 -0.1048  0.2197
 3340W        W19601   3.715  15.021  14.476 -0.2718 -0.0514 -0.2192
 3341W        W19602  17.180  14.364  15.052 -0.0255  0.1592  0.0176
 3342W        W19603  14.086   0.031  16.740 -0.0081  0.0463 -0.1071
 3343W        W19604   0.520   6.716   1.022  0.0213 -0.0647 -0.2598
 3344W        W19605  12.616  17.477   4.060  0.0525  0.3303  0.1075
 3345W        W19606   5.400   3.341   4.353 -0.2513 -0.2012  0.0411
 3346W        W19607  15.614  16.382   0.508 -0.0160 -0.0732 -0.2390
 3347W        W19608  15.851  10.240   2.780 -0.0425  0.0967 -0.2664
 3348W        W19609  13.423   7.336   2.390 -0.4779  0.2596  0.0901
 3349W        W19610   1.344  15.776   1.908  0.0293 -0.2441  0.3538
 3350W        W19611  17.527   1.780   0.667 -0.4400  0.0247 -0.0424
 3351W        W19612   0.047   8.721   5.534  0.1549 -0.1316  0.0284
 3352W        W19613   8.614   7.213   4.125  0.2304 -0.3080 -0.2860
 3353W        W19614   7.260  10.145   1.789  0.1113 -0.0043  0.3383
 3354W        W19615   2.061  14.892  11.783 -0.1695 -0.1448  0.2755
 3355W        W19616  10.155   4.439  15.564 -0.3877 -0.0647 -0.1196
 3356W        W19617   4.283  13.157   0.215 -0.0125 -0.1435  0.0909
 3357W        W19618  16.726  17.023  14.732 -0.4193  0.0918 -0.1732
 3358W        W19619   7.532   8.989  15.160  0.2295  0.0201  0.0298
 3359W        W19620  10.761   6.713  15.777  0.2017  0.1513  0.1914
 3360W        W19621   6.388   6.072  11.685 -0.2405 -0.2834  0.1521
 3361W        W19622  16.044  14.097  12.184  0.1339  0.1818 -0.0130
 3362W        W19623   2.382   2.016   5.246 -0.0571  0.3073 -0.1205
 3363W        W19624   3.658  12.715  15.100 -0.2086 -0.1892  0.0895
 3364W        W19625   0.688   2.466   1.586  0.2062 -0.1912 -0.0852
 3365W        W19626   9.389  16.377  12.659 -0.0560 -0.1363  0.1129
 3366W        W19627   7.299  10.987   3.956  0.0168  0.1125 -0.0051
 3367W        W19628  15.637  15.469  11.993  0.0181  0.0612  0.2113
 3368W        W19629   4.641  10.366  16.295 -0.0925  0.2127  0.1283
 3369W        W19630   4.640  12.919   3.157  0.4438  0.1758 -0.1098
 3370W        W19631  13.519   1.095  12.634 -0.0134 -0.0987 -0.1622
 3371W        W19632  12.335   5.769   0.950 -0.1356 -0.0672  0.0118
 3372W        W19633  12.170   1.242   2.955 -0.2625  0.2427  0.0812
 3373W        W19634   5.979   3.094   3.513 -0.1833  0.0350  0.0997
 3374W        W19635   7.755   7.811   1.342  0.2253 -0.0680  0.1200
 3375W        W19636   8.388   0.509   0.597  0.1581 -0.4660  0.0251
 3376W        W19637   8.471  15.924  16.419  0.1642 -0.0960 -0.3937
 3377W        W19638   6.393   7.185   5.788  0.2324  0.1162  0.0414
 3378W        W19639   1.369  12.784   2.667 -0.0234  0.2584  0.5700
 3379W        W19640  15.636   5.180  11.810 -0.2402 -0.1998  0.4018
 3380W        W19641   5.015  17.385  13.016  0.1019  0.2305  0.1129
 3381W        W19642  15.018   8.885  14.781 -0.0031  0.0669 -0.4197
 3382W        W19643   9.808  14.284   4.967  0.0179  0.0149 -0.2091
 3383W        W19644   9.601  11.860  11.980  0.3810 -0.2172  0.1365
 3384W        W19645  10.440   6.518   1.992  0.1011 -0.1392  0.2180
 3385W        W19646   3.271  16.373  16.127  0.0580  0.0655  0.0382
 3386W        W19647   5.188   3.726   1.708 -0.0504  0.0643 -0.0344
 3387W        W19648   6.658   4.006   0.849 -0.3220 -0.0147 -0.0428
 3388W        W19649   2.729  15.508   1.550  0.0328 -0.1799 -0.2761
 3389W        W19650  14.583  16.006  11.607 -0.2079  0.0119  0.1448
 3390W        W19651  11.732   2.301   4.505  0.2470  0.1743 -0.1187
 3391W        W19652   4.141   5.682   2.627  0.0469 -0.3479 -0.3208
 3392W        W19653   1.472   3.069   1.227 -0.2915 -0.0854 -0.2113
 3393W        W19654   1.353  14.805  14.545 -0.2274 -0.0339  0.2851
 3394W        W19655  10.270   3.372  13.297 -0.2356 -0.0658 -0.0574
 3395W        W19656   8.663   3.047  15.365  0.2919 -0.0395 -0.1222
 3396W        W19657  10.724  14.850   4.689  0.2314 -0.2146 -0.2886
 3397W        W19658   7.908   7.725  12.596 -0.0423  0.0200 -0.0539
 3398W        W19659   3.207  16.432   5.652  0.0961  0.0919  0.3113
 3399W        W19660  15.074   0.279  15.268  0.0943  0.2111  0.0452
 3400W        W19661  11.175  10.018  14.032  0.0653 -0.2283 -0.2750
 3401W        W19662  11.825   5.085  16.869  0.0273  0.1032  0.0179
 3402W        W19663  10.644   5.532  12.692  0.1803 -0.3962  0.1319
 3403W        W19664   4.885   7.260  12.969 -0.0343 -0.0114  0.3062
 3404W        W19665  17.390   6.671   0.040 -0.1834  0.1678  0.2869
 3405W        W19666  11.902   8.024  12.300  0.1526 -0.0202  0.2035
 3406W        W19667  12.559   6.003   1.440  0.0532  0.0759 -0.2835
 3407W        W19668  12.774   7.689  16.922  0.3902  0.0210 -0.0085
 3408W        W19669   5.436  15.749  14.571  0.3112 -0.4609 -0.0143
 3409W        W19670  13.725   0.139  12.269  0.1836  0.1211  0.2375
 3410W        W19671  17.619  17.254  16.127 -0.2194 -0.1399  0.1212
 3411W        W19672   7.372  14.833   0.260  0.0986  0.1040 -0.0017
 3412W        W19673   3.286   1.390   0.600 -0.2242 -0.1676 -0.1623
 3413W        W19674   0.337  11.564  12.325 -0.2060 -0.0576  0.1511
 3414W        W19675   7.734  11.136  13.613  0.1609  0.0510 -0.2012
 3415W        W19676   7.128  14.405  16.822  0.1080 -0.0833 -0.2318
 3416W        W19677  16.170  11.868  13.544 -0.0757 -0.1869  0.0117
 3417W        W19678   4.738   6.796   0.396  0.1778  0.0246  0.0370
 3418W        W19679   1.698  12.017   2.209  0.0854 -0.0916 -0.2028
 3419W        W19680  12.618   5.894  11.547 -0.0581 -0.1623 -0.0418
 3420W        W19681  12.943   9.578   3.212 -0.0216 -0.0602  0.1760
 3421W        W19682   5.975   1.710   1.911 -0.1718  0.0016  0.1656
 3422W        W19683   3.958   2.951  15.896 -0.1185  0.0646  0.1774
 3423W        W19684  12.708  13.340   1.195 -0.0739 -0.5621  0.0779
 3424W        W19685  15.516   6.707  15.815  0.1764  0.0688 -0.3022
 3425W        W19686  11.312   4.029  13.489  0.1780  0.0888 -0.1069
 3426W        W19687  10.588  10.164   4.908 -0.1411 -0.0045 -0.2639
 3427W        W19688   8.414   1.352  14.789  0.1114 -0.0538 -0.0901
 3428W        W19689   4.563   6.244  13.382  0.1199 -0.2354 -0.2026
 3429W        W19690   8.216  11.278  13.425 -0.0463 -0.2980  0.1895
 3430W        W19691  14.642   3.566  12.021 -0.1552 -0.1029 -0.0224
 3431W        W19692   0.936   4.252  12.876  0.0867  0.0108 -0.0674
 3432W        W19693  12.632   5.350  11.758 -0.0494  0.1286 -0.0191
 3433W        W19694   0.934  17.252  11.447  0.3183  0.2531  0.0978
 3434W        W19695   6.127  10.309   0.439  0.0452 -0.1191  0.1365
 3435W        W19696  14.443   8.530  12.675 -0.2037  0.0059 -0.2888
 3436W        W19697   6.186  17.810   3.363  0.2312  0.0476 -0.1617
 3437W        W19698   5.347   6.409   3.787 -0.0593 -0.0923  0.0642
 3438W        W19699  17.663   1.927   2.457  0.2167  0.0736  0.0833
 3439W        W19700  13.057  16.726  15.329  0.0140  0.0289  0.1786
 3440W        W19701  10.804  11.421  11.589  0.1655 -0.0057 -0.1387
 3441W        W19702  12.030  12.895   4.657 -0.2129  0.1334  0.1156
 3442W        W19703  13.098   6.467   4.085 -0.0170  0.2270  0.0248
 3443W        W19704   9.267  13.509  13.312 -0.0009  0.0177 -0.1096
 3444W        W19705   2.700   8.305   1.681  0.1329  0.1684 -0.2163
 3445W        W19706   9.342   5.780  15.816  0.0166  0.2137 -0.0211
 3446W        W19707   8.222   5.895   2.731 -0.2354  0.0649  0.2393
 3447W        W19708   3.826   2.885  11.851 -0.0525 -0.0720 -0.0912
 3448W        W19709  13.419  14.776  11.964  0.0252  0.2051  0.0116
 3449W        W19710   3.011  14.645  13.321  0.2977  0.1178  0.1286
 3450W        W19711   7.178   8.235  12.668  0.1470  0.0242 -0.1207
 3451W        W19712  17.436   4.425   1.704 -0.1550  0.1146 -0.2980
 3452W        W19713   3.250   5.012  15.531  0.0778  0.0732  0.0603
 3453W        W19714   8.437   1.961  14.731  0.1556 -0.1398  0.1613
 3454W        W19715   7.212  13.913  16.797 -0.3279 -0.0196 -0.1082
 3455W        W19716   6.485  14.326   1.985  0.0269 -0.1133  0.0456
 3456W        W19717   8.639  10.355  14.153 -0.0490 -0.1813  0.4261
 3457W        W19718   3.950  15.695   2.376  0.4029 -0.5108  0.1575
 3458W        W19719  10.997   9.836   5.813 -0.2060 -0.1351  0.0510
 3459W        W19720  11.026   8.923   3.928 -0.1782  0.0040  0.2233
 3460W        W19721   9.134   5.008  14.276  0.0361  0.0522  0.0650
 3461W        W19722   2.143   6.836   2.717 -0.1532  0.0384 -0.0879
 3462W        W19723  14.741   7.665   4.129 -0.0253  0.1549  0.1990
 3463W        W19724  10.760  13.312  15.873  0.2212 -0.0295  0.0545
 3464W        W19725   0.720  13.029   0.644 -0.0354 -0.4291 -0.2307
 3465W        W19726   5.190  13.071   4.904  0.2617 -0.0673 -0.1077
 3466W        W19727   2.053  13.538   0.123 -0.3224  0.3076  0.0180
 3467W        W19728   4.834  13.219   0.865 -0.0344  0.1544 -0.0513
 3468W        W19729  15.882  14.826  13.873 -0.0190  0.0820 -0.2467
 3469W        W19730   0.441   5.307   2.019 -0.3106 -0.1358  0.3266
 3470W        W19731  12.055   8.216   4.334 -0.0283 -0.2370  0.0636
 3471W        W19732  15.520   7.396  12.479 -0.4008  0.2074  0.2185
 3472W        W19733  13.083   3.228   6.663 -0.1686 -0.4149  0.2623
 3473W        W19734   6.620  12.492   4.128 -0.3695 -0.2201 -0.2220
 3474W        W19735   8.594   9.507  15.310 -0.1086  0.0070  0.1400
 3475W        W19736  16.500  11.508   4.098  0.0096  0.3778 -0.2567
 3476W        W19737  13.680  12.750  11.824  0.0322 -0.0855 -0.5372
 3477W        W19738   7.658  13.532  12.353  0.2870 -0.0342 -0.0600
 3478W        W19739  16.182   3.659  12.763 -0.3854  0.2508  0.0465
 3479W        W19740  10.260  12.827   4.782  0.0122 -0.0795 -0.1139
 3480W        W19741  13.488  12.306   0.653 -0.1822 -0.1704  0.0418
 3481W        W19742   0.071   3.700  14.439 -0.3698  0.1769  0.1935
 3482W        W19743  10.547   1.928  12.188 -0.3686  0.2050  0.2711
 3483W        W19744  11.993   6.298   1.563 -0.2371  0.2673  0.0485
 3484W        W19745  14.770   6.415  14.056  0.1145  0.0589 -0.2114
 3485W        W19746  11.660   9.326  15.011 -0.1774  0.1842 -0.0635
 3486W        W19747   8.822  15.423   3.758  0.1018 -0.1289 -0.1861
 3487W        W19748  14.569   0.559  11.999  0.1026 -0.0336  0.1895
 3488W        W19749   7.357   1.241   4.007  0.0966 -0.4047  0.0177
 3489W        W19750   2.094  13.453  11.367  0.2355 -0.0932 -0.1640
 3490W        W19751  15.489   1.380   5.920 -0.1831 -0.1846 -0.3348
 3491W        W19752  12.180  16.470   2.436  0.1545 -0.0193 -0.0892
 3492W        W19753   1.757  17.522   3.826 -0.1324  0.0994 -0.0584
 3493W        W19754  12.743  14.340   1.312  0.2343  0.2954  0.2653
 3494W        W19755   0.665  13.623  15.851 -0.1700 -0.0568 -0.0979
 3495W        W19756   5.228   4.634  14.395  0.0866 -0.1005 -0.1154
 3496W        W19757  12.082   7.650  12.669  0.3100 -0.3813 -0.0294
 3497W        W19758  11.600   2.386   0.416 -0.3385 -0.0680  0.0014
 3498W        W19759  11.832   7.094  15.339  0.0605  0.0985 -0.0326
 3499W        W19760   7.500  12.924   4.290  0.0539  0.0691 -0.1430
 3500W        W19761   9.216   5.443  14.591  0.1827  0.0321  0.0712
 3501W        W19762   0.598  12.326  11.767  0.0530 -0.2903 -0.0747
 3502W        W19763  11.759  12.491   5.821  0.1734  0.0325  0.1513
 3503W        W19764  10.626  16.231   1.631 -0.1008  0.0851 -0.2150
 3504W        W19765   1.026  17.740  12.281  0.3059  0.0301  0.2072
 3505W        W19766   4.833  14.799  16.988 -0.1475 -0.1923 -0.0236
 3506W        W19767  14.617   6.024  16.242 -0.1198  0.1562  0.0751
 3507W        W19768  16.040   9.090   0.484 -0.1912 -0.2764 -0.1108
 3508W        W19769   1.217   3.597   3.043  0.0156  0.1788 -0.1352
 3509W        W19770   0.550  16.877  15.911 -0.3989  0.3110  0.0875
 3510W        W19771  10.095  12.874   1.980  0.0922 -0.2220 -0.1352
 3511W        W19772   9.067  16.146   4.493 -0.0543 -0.0248  0.2054
 3512W        W19773   3.056   2.598  15.826  0.0767  0.1001 -0.1441
 3513W        W19774   6.126  14.632   5.543 -0.2647 -0.0779 -0.1576
 3514W        W19775  14.583   6.515  16.903 -0.2089  0.1931 -0.2812
 3515W        W19776  15.990  15.500   3.539 -0.0867  0.0992  0.1543
 3516W        W19777   7.386  15.885   5.159 -0.0064  0.1447 -0.0912
 3517W        W19778   0.522  12.513   4.363 -0.0030  0.2354  0.2895
 3518W        W19779  15.111   2.847  11.744  0.0152 -0.0026  0.2011
 3519W        W19780   0.854   3.846   2.744 -0.1351 -0.0159 -0.0307
 3520W        W19781  16.836   3.588  16.681 -0.1235 -0.1999 -0.1310
 3521W        W19782   2.716  16.163  11.896  0.2511 -0.1108  0.0956
 3522W        W19783  13.320  17.215  16.335 -0.2359  0.3053 -0.2106
 3523W        W19784   2.432  12.229  12.449  0.1072  0.0651  0.2064
 3524W        W19785  11.659   2.058   4.916 -0.0027 -0.0322  0.1094
 3525W        W19786  13.841  10.425   0.165  0.0252 -0.0221  0.0171
 3526W        W19787  13.418  13.150  10.900  0.1198  0.3146  0.0144
 3527W        W19788   7.067  13.821   5.137  0.2193  0.3843 -0.4989
 3528W        W19789  15.802  10.921  13.820 -0.1541  0.0533  0.0463
 3529W        W19790   3.361   3.752   2.513 -0.2518  0.0410 -0.0593
 3530W        W19791  11.593  12.650   4.901  0.1528 -0.1031 -0.1868
 3531W        W19792  12.076  17.302   0.202 -0.0502 -0.1625  0.4877
 3532W        W19793   2.371  10.138   2.511  0.2224 -0.2665  0.1209
 3533W        W19794  15.959  15.203  12.851 -0.2464  0.1593 -0.0672
 3534W        W19795   9.734  14.217  13.317 -0.0993  0.0183  0.0241
 3535W        W19796   4.862   3.205   1.220 -0.0947 -0.0883  0.0142
 3536W        W19797   3.355  11.935   2.222  0.1758  0.1389  0.1384
 3537W        W19798   8.075   8.851  15.822  0.0816 -0.0946 -0.1639
 3538W        W19799   1.992  11.955  11.078  0.2227 -0.0028  0.3846
 3539W        W19800   3.987   7.260  14.533 -0.1035 -0.0394 -0.0348
 3540W        W19801   8.095  13.058  12.115  0.3966  0.0013  0.1707
 3541W        W19802   9.208  11.730  12.728 -0.1468  0.1355  0.0155
 3542W        W19803  12.799   8.843   0.865 -0.0864  0.2582  0.1298
 3543W        W19804  10.001  14.254   2.662 -0.2214  0.0882 -0.2083
 3544W        W19805   8.620   2.526   0.252  0.0863  0.0506  0.1639
 3545W        W19806  13.909   7.867   2.812 -0.4229  0.1649 -0.0384
 3546W        W19807   0.177  13.944  15.011 -0.0103 -0.0037 -0.4332
 3547W        W19808  15.238   8.595   3.520 -0.1189  0.0805 -0.0271
 3548W        W19809  10.615  13.913   0.527  0.0183  0.1491 -0.4450
 3549W        W19810   4.211   7.896   5.097 -0.0771 -0.2318  0.0754
 3550W        W19811   6.784  11.573  14.780  0.1012 -0.0271 -0.1576
 3551W        W19812   1.257   0.571   4.881  0.1139  0.0579  0.1483
 3552W        W19813   7.525   2.554   4.240  0.3284  0.2969  0.0537
 3553W        W19814   7.297   0.150  13.050 -0.0196  0.1716 -0.2902
 3554W        W19815   3.122  12.329   4.031  0.1636  0.0014  0.1878
 3555W        W19816   2.589  10.069   3.900  0.4720 -0.0955  0.1198
 3556W        W19817  14.102   4.705  16.148  0.2053  0.0451 -0.0641
 3557W        W19818   6.245  16.018  15.665  0.1698 -0.4566  0.0007
 3558W        W19819   9.445   2.716  15.246 -0.0952  0.1220  0.0706
 3559W        W19820  17.390  11.817  12.970  0.0018 -0.0636 -0.1263
 3560W        W19821  15.561  12.339   4.177  0.1301 -0.1248  0.1237
 3561W        W19822  10.425   9.922  14.701  0.1069  0.3474  0.0478
 3562W        W19823  12.849  10.232  14.651  0.4185  0.2042 -0.2385
 3563W        W19824  17.445  10.495   2.469 -0.2931  0.0614 -0.1772
 3564W        W19825   3.218  11.376  15.518 -0.0469 -0.2032  0.1021
 3565W        W19826   1.089   9.974   0.361  0.0018  0.0044 -0.0491
 3566W        W19827   4.679   3.887  16.135  0.0064  0.3093 -0.0824
 3567W        W19828   0.302   4.493   0.703  0.2638  0.2528 -0.1381
 3568W        W19829   6.353   3.406  15.732  0.0154  0.0402 -0.0130
 3569W        W19830   0.628   1.202  15.152 -0.1236  0.1941 -0.2919
 3570W        W19831   2.700  10.923  15.685 -0.1136  0.1226  0.0024
 3571W        W19832   7.017   1.157   5.494 -0.1458 -0.2511  0.0648
 3572W        W19833   8.750  13.408   3.127  0.0503  0.2163 -0.0486
 3573W        W19834  14.142  12.791   3.857  0.1428 -0.1580  0.0002
 3574W        W19835  14.806  17.446   0.652  0.3135  0.2341 -0.1482
 3575W        W19836   9.573   8.167  13.974 -0.0141 -0.1271  0.3252
 3576W        W19837  10.220   8.493   4.341  0.2018 -0.1471 -0.2677
 3577W        W19838  16.192   7.067   3.182 -0.1114 -0.1061  0.0475
 3578W        W19839   1.646   2.029   4.014  0.1263 -0.2358 -0.1308
 3579W        W19840   9.435   0.391   1.530  0.1197 -0.0740 -0.0022
 3580W        W19841   4.862  15.475  16.204 -0.1935  0.1197 -0.2580
 3581W        W19842  16.495   5.058  15.916  0.0355  0.1147 -0.0942
 3582W        W19843   9.484  17.184   2.048 -0.0519 -0.1274  0.1089
 3583W        W19844   0.840   0.663  16.013  0.1158  0.2567 -0.2718
 3584W        W19845  16.751   5.376  16.227 -0.0118 -0.2094 -0.0907
 3585W        W19846  15.479  17.096  16.507  0.0145 -0.1676  0.1599
 3586W        W19847   4.610   4.037   2.643  0.2500 -0.2844  0.3438
 3587W        W19848   4.704  10.213  16.826  0.0434  0.2380 -0.2228
 3588W        W19849   9.065   3.052  15.647  0.3815 -0.2329 -0.0933
 3589W        W19850   5.634  14.434  16.455  0.1154 -0.2450 -0.2088
 3590W        W19851  13.032   3.313  11.880 -0.2430 -0.1558 -0.0420
 3591W        W19852   9.422   8.972  14.938  0.0522  0.2630  0.0797
 3592W        W19853   0.994   2.120  15.128  0.0902  0.0569 -0.0222
 3593W        W19854   2.921  15.638  15.809  0.0617  0.0696 -0.0452
 3594W        W19855   1.878  14.125  15.576  0.2662 -0.0970  0.1477
 3595W        W19856   1.397   1.752   4.645 -0.1731  0.2918 -0.1103
 3596W        W19857  16.724   1.846   1.253 -0.0664 -0.0265  0.1351
 3597W        W19858   0.805   5.473  13.240 -0.1360  0.2612 -0.0689
 3598W        W19859   7.114   2.507  16.331 -0.0550  0.2778  0.1367
 3599W        W19860   2.953   7.743   5.391  0.4622  0.0787  0.1152
 3600W        W19861  16.545   0.025   2.652  0.0314 -0.0419  0.1725
 3601W        W19862   5.658   8.534  12.437  0.0283  0.0608  0.0779
 3602W        W19863   1.633  13.585  12.162 -0.1570 -0.1437  0.1229
 3603W        W19864  11.407   2.685  12.028  0.0851  0.2736 -0.2064
 3604W        W19865  16.639   1.389  15.158  0.1084 -0.0603  0.2737
 3605W        W19866   1.614  10.450  16.771 -0.1699 -0.2763  0.2572
 3606W        W19867   2.391  16.840   5.297  0.0314 -0.0434 -0.3448
 3607W        W19868  16.598  14.977  11.081 -0.1756  0.0198 -0.5201
 3608W        W19869   7.952  16.582  11.758 -0.0741 -0.4473  0.0962
 3609W        W19870   3.815   1.969  11.877 -0.0934 -0.0918  0.3007
 3610W        W19871  14.465  17.424   2.225 -0.2498  0.3100 -0.3213
 3611W        W19872  12.700   3.565  14.037  0.0412  0.0458  0.0487
 3612W        W19873   0.398  13.111  12.861  0.2150 -0.0432  0.0362
 3613W        W19874   5.280   0.334   5.587  0.1560  0.0398 -0.1953
 3614W        W19875   1.963  17.821  14.402  0.1839  0.0301 -0.1946
 3615W        W19876   6.110  12.902  14.853  0.1593 -0.2443  0.2547
 3616W        W19877  11.025   9.792  11.859  0.0191 -0.3746  0.1771
 3617W        W19878   4.404   0.474   5.133  0.1250  0.2598  0.1367
 3618W        W19879   9.207  10.796  15.727 -0.0607 -0.2546  0.1161
 3619W        W19880  10.106   2.294   0.516 -0.0213 -0.0133  0.1742
 3620W        W19881   8.071  13.554   4.660  0.2717 -0.1742 -0.0661
 3621W        W19882  15.415   0.143   2.006 -0.0609  0.0070 -0.1328
 3622W        W19883  11.189   0.901   2.675  0.2611 -0.0656  0.0609
 3623W        W19884   5.109  17.146   3.260 -0.0812  0.0840 -0.2036
 3624W        W19885  13.064   9.038   5.074 -0.1356  0.0523 -0.1061
 3625W        W19886  16.152  10.647  15.697 -0.1504  0.0281 -0.0005
 3626W        W19887  14.216  17.822  13.556  0.3009  0.0502  0.4250
 3627W        W19888   5.521   4.101   0.297 -0.0335  0.0370  0.1771
 3628W        W19889   3.000   3.786   4.265 -0.0671 -0.2784 -0.1405
 3629W        W19890  15.277   2.763   4.976  0.2571  0.1203  0.1070
 3630W        W19891  16.583  15.414   2.379  0.2326 -0.1769  0.0490
 3631W        W19892   6.522   8.047   2.385  0.1519 -0.1091 -0.1046
 3632W        W19893   2.066   5.319  16.828 -0.1404  0.1210  0.1002
 3633W        W19894   0.597   4.403  13.227  0.0535  0.3682  0.2245
 3634W        W19895  12.519   4.956   0.384 -0.1046  0.1095 -0.0912
 3635W        W19896   3.632   9.110  15.485 -0.0622  0.3106  0.1246
 3636W        W19897   4.634  15.649  14.206  0.0642  0.2883  0.0347
 3637W        W19898   1.224  10.785  10.717  0.0594 -0.1396 -0.1289
 3638W        W19899  13.303   3.648   1.666 -0.1994  0.1303  0.2177
 3639W        W19900  15.175  16.330   4.211  0.0139 -0.3662 -0.0629
 3640W        W19901  16.632   5.419   6.431 -0.0386  0.4711 -0.2337
 3641W        W19902   9.242   3.507  11.481  0.2174 -0.1516  0.1108
 3642W        W19903  10.946  14.304  14.470 -0.1167  0.0583 -0.2066
 3643W        W19904  10.368   9.648  16.872  0.0124 -0.1739 -0.1513
 3644W        W19905  10.579   8.628  13.619 -0.0089 -0.1148 -0.2786
 3645W        W19906   6.948  13.569   2.304  0.2301  0.2785 -0.0401
 3646W        W19907   3.684   3.773   3.795 -0.2623 -0.0465 -0.0078
 3647W        W19908   7.115   8.936   1.114  0.2902  0.1023  0.1732
 3648W        W19909   6.467   8.724   5.649  0.0178 -0.1533 -0.2136
 3649W        W19910   7.176  15.776  12.376  0.0167  0.0837 -0.0258
 3650W        W19911   2.245   7.516  15.610 -0.0655  0.0251  0.1723
 3651W        W19912   9.114   1.494   6.062  0.0528  0.0614  0.2307
 3652W        W19913   6.955   5.741  13.127  0.1776  0.3731 -0.2110
 3653W        W19914   0.818  16.382  15.107 -0.2274 -0.1623  0.1132
 3654W        W19915   2.607   0.494  12.754  0.1394 -0.3416 -0.2040
 3655W        W19916   8.966   9.217  16.219  0.4531  0.2246  0.2018
 3656W        W19917   4.077  15.518   2.983  0.1034  0.0640 -0.0818
 3657W        W19918   5.099  16.066   5.068  0.0020 -0.0500 -0.2398
 3658W        W19919   7.479   2.748   5.626 -0.2535  0.1762  0.1567
 3659W        W19920  17.069   6.171  13.130 -0.1345 -0.2398 -0.0262
 3660W        W19921  16.101  16.576   1.806  0.1722  0.1411  0.1730
 3661W        W19922   6.456   0.008   4.798 -0.2285 -0.0813 -0.2738
 3662W        W19923  14.551   7.387  16.505  0.0609 -0.2911 -0.4251
 3663W        W19924   6.949   6.233   1.609 -0.1285 -0.3103  0.0464
 3664W        W19925  14.722   4.439   5.138 -0.0776  0.1077 -0.1865
 3665W        W19926  12.524  15.838  16.646 -0.0985  0.1741  0.1012
 3666W        W19927   6.268   9.825  16.214  0.0675 -0.2563  0.0325
 3667W        W19928   7.952   0.371   0.369  0.1324  0.2210  0.0813
 3668W        W19929   5.951   6.075   6.464 -0.2259 -0.1448 -0.0984
 3669W        W19930  13.365   9.300   5.495  0.1637 -0.0129  0.1900
 3670W        W19931  12.288  16.566  15.018  0.0815  0.1648 -0.0030
 3671W        W19932  16.671   5.681  14.935 -0.1224 -0.2136 -0.0747
 3672W        W19933  17.170   1.492  15.887 -0.1700  0.4261  0.0686
 3673W        W19934   3.036  17.228   2.593 -0.1287  0.0172  0.1891
 3674W        W19935   3.746  15.690  16.949  0.1772  0.1617 -0.1297
 3675W        W19936  11.316   2.565   3.048 -0.0124  0.3092 -0.2230
 3676W        W19937   9.815  17.801  13.106  0.0055  0.0816 -0.1202
 3677W        W19938   1.546   4.876   1.183  0.0940  0.1798 -0.0208
 3678W        W19939  14.490   8.782  15.349 -0.0356  0.2744 -0.0111
 3679W        W19940  15.270  11.367  12.295 -0.0433  0.1372  0.2193
 3680W        W19941  15.082  10.519   0.740 -0.1039  0.3582 -0.1914
 3681W        W19942  15.991  15.688  12.376  0.2450  0.0977  0.0229
 3682W        W19943  17.040   9.068   5.920 -0.0904 -0.1032 -0.0473
 3683W        W19944  10.339   1.712  16.136  0.1000  0.2540 -0.2064
 3684W        W19945   7.112   3.442   4.464 -0.0105 -0.0302  0.0028
 3685W        W19946  13.612   6.521   3.213  0.3556  0.0600 -0.2397
 3686W        W19947  13.095   0.565   2.841  0.3248 -0.0832 -0.0347
 3687W        W19948   1.526   9.584  16.415 -0.0901  0.1209  0.1072
 3688W        W19949  12.734   4.448  15.111  0.0647  0.0876  0.1321
 3689W        W19950   6.718  15.712  12.198  0.1597  0.1529  0.0739
 3690W        W19951   6.834   6.436   0.274  0.0901 -0.1131 -0.1784
 3691W        W19952  17.596  11.462  16.561 -0.1822  0.2629 -0.6896
 3692W        W19953   1.904   1.224   5.496 -0.0586 -0.2583 -0.1226
 3693W        W19954   4.567  16.409  16.097  0.1167 -0.0298 -0.3751
 3694W        W19955   8.356   2.482   1.242  0.0532 -0.2081 -0.1350
 3695W        W19956   5.087   2.092   2.030 -0.2077  0.1911 -0.1445
 3696W        W19957  11.004   7.577  15.341  0.0945  0.1490  0.1795
 3697W        W19958  10.592   3.895   4.142  0.0459 -0.3272  0.0104
 3698W        W19959   6.398  14.253  16.938  0.2523 -0.2294  0.0887
 3699W        W19960  10.937  14.014  12.429  0.1002 -0.0591 -0.1607
 3700W        W19961  16.420  10.841  14.458  0.3448 -0.0213  0.2002
 3701W        W19962   4.048  12.661  13.661  0.0692 -0.2185  0.4284
 3702W        W19963  12.357  14.636   3.905 -0.0338  0.1890 -0.0988
 3703W        W19964  15.093   5.594  15.424  0.0108  0.3454  0.1242
 3704W        W19965  12.296   0.824  14.478 -0.0140 -0.1221 -0.0565
 3705W        W19966  13.363   5.809  11.980  0.3170  0.0326  0.1124
 3706W        W19967   0.722  11.388  15.644 -0.1587  0.1221 -0.1846
 3707W        W19968  17.409   0.506  13.876  0.3806  0.1205  0.0749
 3708W        W19969   5.161  12.257   2.861 -0.0308  0.1216  0.1685
 3709W        W19970  15.394   9.908  15.580 -0.0141 -0.4437  0.0320
 3710W        W19971  11.417   5.005   0.207 -0.0008 -0.2211  0.1190
 3711W        W19972  14.828   6.786   1.070 -0.3757 -0.2819  0.1950
 3712W        W19973   7.554  12.774   1.995 -0.1342  0.2526  0.0066
 3713W        W19974  13.682  15.446  15.874  0.3382 -0.0247 -0.2681
 3714W        W19975  16.796  12.342  13.434 -0.3627 -0.1391 -0.2596
 3715W        W19976  11.074  11.016  15.764  0.0189 -0.0668 -0.1302
 3716W        W19977   4.225  10.988   2.449  0.1819  0.0346  0.0022
 3717W        W19978  10.744   8.055  12.883 -0.2009  0.4048 -0.0637
 3718W        W19979   8.520  12.400   5.641 -0.0222 -0.2054 -0.2616
 3719W        W19980  17.207  14.276   1.477  0.2651 -0.2579 -0.0169
 3720W        W19981   3.591  12.553   5.786 -0.0107  0.3911  0.1648
 3721W        W19982  10.453  11.337   2.758 -0.3502 -0.2926 -0.1456
 3722W        W19983  15.909   2.630  16.782 -0.2133  0.1273 -0.0424
 3723W        W19984   3.416  13.257   0.515  0.0313 -0.0694 -0.0940
 3724W        W19985  13.612  10.253   2.760 -0.2010 -0.1769  0.1326
 3725W        W19986  14.423  15.313  15.279  0.1521 -0.0042  0.0087
 3726W        W19987   9.465   6.403  11.423  0.2466 -0.0377  0.1811
 3727W        W19988   1.095   4.947   0.226  0.0614 -0.1306 -0.0678
 3728W        W19989   1.949   9.765  15.137 -0.1576  0.0555 -0.0752
 3729W        W19990   3.194   1.641   5.358 -0.2089  0.0408  0.1826
 3730W        W19991   4.707  12.023  15.597  0.2826 -0.0550  0.0336
 3731W        W19992   5.954   4.693  12.464  0.0617 -0.0344  0.1044
 3732W        W19993   0.539  14.855   4.557 -0.3494  0.1145 -0.1082
 3733W        W19994   7.845  15.014   4.903 -0.3074 -0.2143 -0.4316
 3734W        W19995   3.729   7.995   4.440  0.0891 -0.1309 -0.3200
 3735W        W19996  16.680   6.657  12.119 -0.2041 -0.2423  0.3846
 3736W        W19997   0.692  11.656  14.427  0.0167  0.1404  0.1355
 3737W        W19998   1.789   8.457   5.547 -0.1574 -0.0562 -0.2599
 3738W        W19999  10.015   3.762  12.569 -0.0409 -0.0313  0.1546
 3739W        W20000   6.791   0.138   2.611 -0.0748  0.2442  0.3031
 3740W        W20001  15.773  13.894   5.835  0.2114  0.0573 -0.0245
 3741W        W20002   6.643   7.170  11.236  0.2684  0.3168  0.2462
 3742W        W20003  11.819   7.339  11.716 -0.0832  0.4131  0.0796
 3743W        W20004   6.444  12.212   2.721  0.1424 -0.2712  0.3531
 3744W        W20005  17.539  16.269   0.852  0.1176  0.0015  0.2032
 3745W        W20006   7.545   0.829  15.242  0.0052  0.0230 -0.0332
 3746W        W20007  11.751  10.185  13.040 -0.0356  0.0358 -0.0377
 3747W        W20008  13.782   8.685  13.226  0.0278 -0.2423 -0.1191
 3748W        W20009  11.369  11.841  13.556 -0.1701 -0.1735  0.3403
 3749W        W20010  12.298   8.363   2.554 -0.1533 -0.1107  0.2583
 3750W        W20011  15.411   8.494  12.955 -0.0058  0.1642  0.1352
 3751W        W20012   5.807   9.251  15.158 -0.1225  0.0816 -0.1068
 3752W        W20013  17.359  13.614   1.021 -0.1257 -0.0243 -0.0581
 3753W        W20014  15.039   2.341  11.725  0.1283 -0.2184 -0.2192
 3754W        W20015   2.069  14.212   4.141  0.1757  0.0359  0.2178
 3755W        W20016  11.645   1.951  12.802  0.0318 -0.1264 -0.1195
 3756W        W20017  12.873   5.201   1.677  0.1010 -0.0796 -0.1852
 3757W        W20018  16.860   4.851  16.936 -0.1150  0.0253  0.0898
 3758W        W20019   8.470   3.630  15.177 -0.1151  0.4376 -0.1577
 3759W        W20020   1.821   2.740  15.452  0.1443 -0.0119  0.1291
 3760W        W20021  11.807  13.080   0.778  0.1812 -0.0534  0.3263
 3761W        W20022   5.719   1.494  15.531  0.0910 -0.1163 -0.3015
 3762W        W20023   3.533  11.637  13.055 -0.3078 -0.0144 -0.1347
 3763W        W20024  12.509   9.239   0.875  0.1522  0.0616 -0.0736
 3764W        W20025  11.707  10.393   1.860 -0.0834  0.0490  0.1447
 3765W        W20026   3.716  11.427   4.263 -0.1632 -0.0289  0.3944
 3766W        W20027  10.812   4.954  16.097 -0.0459 -0.0463  0.0952
 3767W        W20028   0.445  16.279  11.995  0.3887  0.0198 -0.1890
 3768W        W20029   0.540  10.528  14.926 -0.0522 -0.0164  0.0199
 3769W        W20030   0.972  14.464  15.442 -0.3065  0.0183 -0.0375
 3770W        W20031  15.818   8.131  15.619  0.2370  0.1712  0.0052
 3771W        W20032  16.453  10.323   5.339  0.0503  0.0992  0.0916
 3772W        W20033  16.196  12.271  16.088 -0.1635 -0.4644 -0.0984
 3773W        W20034  13.310  12.855  15.452 -0.0332 -0.2358 -0.1898
 3774W        W20035   3.777   9.994  15.244 -0.2173  0.0333  0.0017
 3775W        W20036   2.004  11.767   6.020  0.0407 -0.1100  0.0478
 3776W        W20037   8.059  12.710  12.955  0.1397 -0.0564  0.0774
 3777W        W20038  10.317   0.277  13.126  0.1202 -0.0644 -0.0109
 3778W        W20039   3.966   9.236  12.616 -0.0069 -0.1472  0.0685
 3779W        W20040  15.512   8.416   1.932  0.2767  0.3862  0.1996
 3780W        W20041   6.031   6.093  14.922 -0.0607 -0.3918  0.0773
 3781W        W20042   4.438  11.921  13.328  0.1548 -0.2387  0.2009
 3782W        W20043   1.465  17.260   0.265 -0.0030  0.0908 -0.3693
 3783W        W20044   5.915   9.042   3.585  0.1228  0.2497 -0.2158
 3784W        W20045   8.143  11.967   0.061  0.1153 -0.0831  0.0997
 3785W        W20046   8.628  11.355   1.402  0.0927  0.1093  0.0276
 3786W        W20047   3.558  16.704  11.618  0.1232  0.2844  0.1733
 3787W        W20048  10.926   9.086  13.785 -0.2227  0.0778  0.1579
 3788W        W20049  17.686  12.758   3.085  0.0218  0.2073 -0.0636
 3789W        W20050  13.997  13.235   0.579  0.1769 -0.4787  0.0365
 3790W        W20051   6.640  14.327  13.561  0.0419  0.0525 -0.1306
 3791W        W20052   5.611   5.035   5.161 -0.3555  0.1067 -0.1282
 3792W        W20053  11.388  13.249   6.466 -0.1577 -0.2669  0.0452
 3793W        W20054   7.625  17.793   0.532  0.2091 -0.0355  0.0386
 3794W        W20055  16.829   4.741   4.187 -0.1047 -0.0508  0.0188
 3795W        W20056   6.486   4.682  12.444  0.3459 -0.2282  0.0731
 3796W        W20057  11.393   5.959  15.774  0.1387  0.2924  0.0628
 3797W        W20058  17.030   6.946  15.763 -0.0911  0.0624  0.0955
 3798W        W20059   2.684   9.965  15.067 -0.2824 -0.0014 -0.0854
 3799W        W20060   9.584   7.392   2.443  0.0490  0.1696  0.5807
 3800W        W20061   4.557  10.218   5.021  0.0081  0.0366 -0.3135
 3801W        W20062  11.108  13.453  14.706  0.0083  0.1411  0.2988
 3802W        W20063  14.056   3.264   5.522 -0.2705 -0.0247  0.2049
 3803W        W20064  15.776   9.352  16.568 -0.1459  0.1811  0.0418
 3804W        W20065  10.065  15.865  13.274  0.0725 -0.3057  0.3345
 3805W        W20066  15.803   6.051   2.694 -0.0767 -0.0917  0.2347
 3806W        W20067  12.840  10.558   4.288 -0.1870 -0.0047  0.1028
 3807W        W20068  13.842   4.915  14.838 -0.4019 -0.4997 -0.2402
 3808W        W20069  15.488  16.881  12.214 -0.3236  0.0836 -0.0175
 3809W        W20070  12.406   1.500  15.249 -0.1282  0.0144 -0.0854
 3810W        W20071   0.961   5.822  15.419 -0.1459 -0.0500 -0.2508
 3811W        W20072  17.068   8.017  14.478 -0.1376 -0.1524 -0.1688
 3812W        W20073  17.361   6.763   4.110  0.1022 -0.2292  0.0933
 3813W        W20074  17.690   1.261  13.412  0.0279  0.0303 -0.4564
 3814W        W20075  12.264   7.936   3.457 -0.0242 -0.0384 -0.1987
 3815W        W20076  12.919   1.171   4.440 -0.0899  0.0919 -0.3730
 3816W        W20077  14.049  13.467   2.310 -0.2290 -0.1145 -0.0710
 3817W        W20078   7.738  16.557   0.251 -0.3068  0.2016 -0.1069
 3818W        W20079   0.389   8.170  13.861 -0.0665  0.4092 -0.2250
 3819W        W20080  17.508   7.662   4.325  0.3515 -0.1198  0.1182
 3820W        W20081  17.263  15.535   1.410 -0.0661 -0.0287  0.3043
 3821W        W20082   1.931  16.707  14.897  0.0549 -0.0174  0.2637
 3822W        W20083   2.332  11.148  15.892  0.2045  0.0593  0.2066
 3823W        W20084   8.601  11.346  11.870  0.0847  0.0089 -0.2252
 3824W        W20085   8.514   6.202   4.585 -0.1101 -0.0801 -0.1187
 3825W        W20086   6.489   7.194  13.521 -0.1648  0.0530 -0.1832
 3826W        W20087  15.587   7.050   5.803  0.1996 -0.2479 -0.0194
 3827W        W20088   4.001   5.485   2.019  0.0644  0.0161  0.0547
 3828W        W20089  11.658   3.050  11.684 -0.2874  0.1326  0.2384
 3829W        W20090  16.734  16.244   3.811  0.1312  0.0417  0.1891
 3830W        W20091  10.094   7.476   3.408 -0.1522 -0.1375 -0.2212
 3831W        W20092   4.574   0.958  14.746 -0.0022 -0.0285  0.1847
 3832W        W20093   0.136  11.269  15.420  0.4521  0.3381 -0.3882
 3833W        W20094   1.882  13.018  11.541 -0.2275 -0.1907 -0.2684
 3834W        W20095   3.454  10.513  15.876 -0.1931 -0.2313  0.1411
 3835W        W20096   4.290   9.574   0.475 -0.2293  0.0915 -0.0037
 3836W        W20097   2.966   0.327  14.353 -0.0632  0.0610 -0.1716
 3837W        W20098   3.796  15.299   3.815 -0.3469  0.2095 -0.0455
 3838W        W20099  14.740   3.164  11.739 -0.1834 -0.2561 -0.2835
 3839W        W20100   7.582  13.365   4.568 -0.0179 -0.1949 -0.1123
 3840W        W20101   0.683  17.540   1.344 -0.0561  0.1791  0.0872
 3841W        W20102   4.391   1.230   5.361  0.1016 -0.4704 -0.0861
 3842W        W20103   8.047  15.738  15.339  0.1179 -0.2524  0.3336
 3843W        W20104   7.326   8.501  10.822  0.1176 -0.0810  0.0115
 3844W        W20105   8.119   6.901  15.715  0.3950  0.2596  0.0344
 3845W        W20106  16.606   0.270  12.005 -0.2401 -0.0595 -0.3738
 3846W        W20107  10.609   8.547   2.382 -0.1788 -0.1424 -0.4658
 3847W        W20108  14.380   3.086   2.507  0.1907  0.2010  0.1922
 3848W        W20109   2.488   5.879   1.105 -0.0190 -0.1661 -0.2913
 3849W        W20110  10.234  15.544   3.976  0.1030 -0.0931  0.1274
 3850W        W20111   5.031   3.584   4.517 -0.2051 -0.1366  0.1778
 3851W        W20112   6.867  11.121   4.703 -0.1226  0.3390 -0.0069
 3852W        W20113  14.836   0.544   1.291 -0.1287 -0.1983 -0.3258
 3853W        W20114   8.716   5.465  14.508 -0.2482 -0.1308  0.2739
 3854W        W20115   1.871  14.675   2.242 -0.2014  0.2919 -0.1550
 3855W        W20116   1.741  14.916  15.800  0.1741 -0.0005 -0.1065
 3856W        W20117  13.053   0.947   1.629 -0.1260  0.1988  0.0711
 3857W        W20118   4.735  14.050  12.770 -0.2182 -0.0501  0.0186
 3858W        W20119   8.458   5.085   0.587 -0.2351  0.0145 -0.1564
 3859W        W20120  15.654   0.968   1.571  0.0274  0.3177  0.1337
 3860W        W20121   4.183  12.216  14.955  0.0515 -0.1082 -0.3219
 3861W        W20122   7.123   3.796   2.395  0.0259  0.2035 -0.1422
 3862W        W20123   7.608   3.133  13.118  0.1718  0.3074 -0.1586
 3863W        W20124  12.171   4.618  15.171  0.2614 -0.0331 -0.1580
 3864W        W20125   6.022  10.182   0.909  0.1233  0.0970  0.0874
 3865W        W20126   5.475   8.594   1.901 -0.1816 -0.1015 -0.4004
 3866W        W20127  11.910  10.863  16.400  0.2553 -0.0525 -0.2558
 3867W        W20128   2.891   7.828   0.513  0.1079 -0.1714 -0.2221
 3868W        W20129   3.563   0.150  13.533 -0.3513  0.0973 -0.0613
 3869W        W20130  12.178   2.087   4.072  0.2381 -0.0295 -0.1718
 3870W        W20131  14.314   5.266  13.524 -0.0342  0.2942  0.2303
 3871W        W20132   3.513   9.118   3.344 -0.0318  0.3206  0.3894
 3872W        W20133   6.194   3.932  12.220  0.1315 -0.0094  0.1261
 3873W        W20134   9.028  11.201   2.313  0.2755 -0.2868  0.1210
 3874W        W20135  17.812   3.170  16.897  0.1193 -0.1033  0.1007
 3875W        W20136  12.207  14.296   4.249 -0.0595  0.3453 -0.0970
 3876W        W20137   9.986  16.430  14.843 -0.0249  0.3824 -0.0660
 3877W        W20138   5.918   5.258   1.736  0.2847 -0.1832  0.2126
 3878W        W20139   1.339  14.530  16.834  0.1371 -0.0757 -0.2507
 3879W        W20140   3.248  10.913  14.327  0.2905  0.1742 -0.0679
 3880W        W20141   8.145  12.579   5.899 -0.1167 -0.2642  0.3025
 3881W        W20142   6.964   9.428  12.152  0.0040 -0.1137  0.3995
 3882W        W20143   1.013   8.662   2.772 -0.1073  0.1638  0.1476
 3883W        W20144  14.896  13.490  15.698  0.0695 -0.1544 -0.0126
 3884W        W20145   3.262  10.819  16.490 -0.0297 -0.2653 -0.0280
 3885W        W20146   7.468   4.416   1.089 -0.3879  0.0230  0.0938
 3886W        W20147   9.934   4.261  14.217  0.2211  0.1018 -0.0526
 3887W        W20148   3.526  12.168   3.205 -0.3547  0.1353  0.0899
 3888W        W20149   0.720  15.877   6.081  0.1212 -0.1176  0.0415
 3889W        W20150  12.675   6.587  12.277 -0.1231 -0.0842 -0.1092
 3890W        W20151  10.909   5.754   3.733 -0.0837  0.2351 -0.0603
 3891W        W20152   4.292   6.024  13.694  0.0451  0.0765  0.0750
 3892W        W20153   0.123   5.365   0.447  0.1085  0.0775 -0.1183
 3893W        W20154   5.809  12.677   3.828 -0.0388  0.2609  0.1112
 3894W        W20155  17.613  11.345   2.615  0.1736 -0.0051  0.0335
 3895W        W20156   4.937   5.311   1.198  0.0571 -0.2411  0.0759
 3896W        W20157   4.999   4.035  13.574  0.2263  0.1473 -0.3205
 3897W        W20158  10.306  10.049  11.264  0.2251 -0.1003 -0.1836
 3898W        W20159   3.621  14.061  16.824  0.3269 -0.2366  0.0212
 3899W        W20160   8.458  14.151  13.289 -0.0039 -0.1947 -0.1311
 3900W        W20161  16.185   6.009  13.336  0.0769 -0.0982 -0.0397
 3901W        W20162   0.108   4.606   1.219 -0.0665 -0.0649 -0.0251
 3902W        W20163   7.656   6.698  11.580 -0.3752  0.2625 -0.1546
 3903W        W20164  14.087   5.383  15.624  0.0831 -0.1654 -0.1772
 3904W        W20165  15.861   9.728   3.064 -0.2336 -0.0009 -0.1760
 3905W        W20166   0.202   2.100  12.045 -0.3006  0.0862  0.0974
 3906W        W20167   8.223   1.204  16.048 -0.1281  0.1750 -0.1774
 3907W        W20168   2.151  15.104   5.302 -0.0822  0.1759 -0.3096
 3908W        W20169  12.978  10.848  13.420  0.0346 -0.2231  0.2096
 3909W        W20170   6.653   4.388  15.967  0.0718  0.2415  0.0811
 3910W        W20171  15.794   3.739  13.138  0.2030 -0.1281 -0.0603
 3911W        W20172   6.615   8.259   3.496  0.2381 -0.0109 -0.2606
 3912W        W20173   3.194   3.014   3.254 -0.0728  0.2007  0.3620
 3913W        W20174   9.548  17.396  13.469 -0.0631 -0.0636  0.1040
 3914W        W20175   5.171   5.316  15.635  0.1845 -0.0324  0.1385
 3915W        W20176  11.933  13.356   3.717  0.1175  0.1514 -0.0208
 3916W        W20177   2.667  15.556   5.611  0.2566 -0.0115 -0.1472
 3917W        W20178   8.579   9.008  13.559 -0.0930  0.3123  0.1955
 3918W        W20179   5.969  11.456   2.350  0.0268  0.1573 -0.0861
 3919W        W20180  16.832   5.992  15.611 -0.0338  0.0259  0.2809
 3920W        W20181   3.645   4.139  14.796  0.1907 -0.0680 -0.0030
 3921W        W20182   8.502  13.942  16.314  0.0731  0.4611 -0.1191
 3922W        W20183  10.403   5.683   0.834  0.1943  0.0046  0.1256
 3923W        W20184  11.518   3.673  14.892 -0.1586  0.1068 -0.2997
 3924W        W20185   1.523   1.793   2.167  0.0265 -0.2140 -0.3483
 3925W        W20186  10.136   2.933   1.591  0.1874  0.2069  0.0818
 3926W        W20187   8.527  16.935   3.323 -0.2658 -0.2431 -0.1135
 3927W        W20188  10.911   2.649   1.862 -0.1500 -0.0885 -0.1415
 3928W        W20189  12.974   9.690  14.844 -0.1573  0.1809  0.1607
 3929W        W20190   3.366  15.371  12.803 -0.3278 -0.0789  0.0650
 3930W        W20191  11.503  16.532  12.911 -0.0001 -0.0539 -0.2976
 3931W        W20192   4.470   6.856   6.274  0.0511  0.0256 -0.1861
 3932W        W20193   1.341  15.247  15.655 -0.0295 -0.1965 -0.3307
 3933W        W20194   9.156   6.118   4.015  0.2365  0.0494 -0.1898
 3934W        W20195  10.727   9.439   3.374  0.0103  0.0483 -0.0386
 3935W        W20196   4.888  14.574   2.732 -0.1903 -0.0590  0.1805
 3936W        W20197   3.375   2.829  15.382  0.1503  0.1877  0.0481
 3937W        W20198   8.314   6.610   5.267  0.3168  0.0550 -0.0635
 3938W        W20199  14.680   9.259   0.393 -0.1109  0.2091 -0.0409
 3939W        W20200   6.674  11.808   5.890  0.0128  0.1016  0.1839
 3940W        W20201   8.826   3.446   1.258 -0.0364  0.2303 -0.2084
 3941W        W20202  16.269  12.875  16.033 -0.0571 -0.0511  0.0015
 3942W        W20203  12.536  10.584   3.587 -0.0970 -0.1314  0.0645
 3943W        W20204   1.016   6.539  14.775 -0.0351 -0.0925  0.0648
 3944W        W20205   2.305   9.352  13.408  0.2461 -0.2852 -0.0743
 3945W        W20206  15.519  17.378   4.728 -0.0833  0.1648  0.0188
 3946W        W20207  11.517  15.585  12.630 -0.0175  0.0061 -0.0893
 3947W        W20208  12.371  11.167   2.106  0.1867 -0.0295 -0.2226
 3948W        W20209  12.525   0.710  11.780  0.0332  0.0301  0.2247
 3949W        W20210  15.740  10.805  15.200  0.1797  0.0747  0.0605
 3950W        W20211   3.416   4.696  15.925 -0.1396  0.3963  0.0222
 3951W        W20212   9.891   0.431  12.767 -0.1350  0.1213  0.2125
 3952W        W20213  11.818   0.190  13.565  0.0344  0.3219  0.0741
 3953W        W20214   4.856   9.187  15.952  0.0920 -0.3726 -0.0666
 3954W        W20215  12.931   0.164   3.557  0.0406 -0.1532  0.1651
 3955W        W20216  11.815   3.627   0.597  0.2210  0.2356 -0.2295
 3956W        W20217   8.176   4.883   5.048  0.0959 -0.2457 -0.0820
 3957W        W20218   9.403   3.376  13.078  0.0971 -0.0627 -0.2936
 3958W        W20219   3.557  15.407   3.203 -0.1800  0.2631  0.0238
 3959W        W20220  17.432  12.893  14.527  0.2226  0.0530 -0.0823
 3960W        W20221   7.976   3.046   3.084  0.0578  0.2072  0.1863
 3961W        W20222   6.466  14.680   0.588  0.0681 -0.0033 -0.0012
 3962W        W20223   7.048  14.595  10.339  0.0853  0.1964 -0.1070
 3963W        W20224   9.618   6.020   4.911 -0.0553  0.1832 -0.1097
 3964W        W20225  15.231   7.645   2.788  0.0445  0.2075 -0.3406
 3965W        W20226  10.262   4.906  11.594 -0.0865 -0.0986 -0.1175
 3966W        W20227   3.727  17.723   3.275 -0.0897 -0.0554  0.0393
 3967W        W20228   5.666  15.708   1.924 -0.0377  0.1700  0.0910
 3968W        W20229  10.535   3.159   4.594 -0.1923  0.1014  0.2051
 3969W        W20230   0.118   0.672   2.075 -0.0735  0.0429 -0.0743
 3970W        W20231  17.149  13.287   2.135 -0.0158 -0.0612 -0.2690
 3971W        W20232   2.100  14.631  14.514 -0.0459 -0.3560  0.1541
 3972W        W20233   4.487   5.776  16.050 -0.0022 -0.1262  0.3264
 3973W        W20234   7.128   9.600  16.614  0.1096  0.0601 -0.0211
 3974W        W20235  10.750  15.188  16.485  0.0276  0.0549  0.0599
 3975W        W20236   5.489   6.335   3.199  0.2267 -0.2897 -0.0235
 3976W        W20237   8.948   6.313  13.611 -0.1735 -0.0371  0.0070
 3977W        W20238   1.830  17.096   0.973 -0.0382 -0.2991 -0.1222
 3978W        W20239   4.728   9.456   2.790 -0.2426 -0.1094  0.1924
 3979W        W20240  14.228  13.961  16.457 -0.3746  0.2803  0.0368
 3980W        W20241   4.815  10.902  13.695 -0.0347 -0.1222  0.0084
 3981W        W20242  16.911   0.705   3.649  0.0256 -0.0431  0.0282
 3982W        W20243  16.163  12.793  12.676 -0.3621  0.0424  0.5455
 3983W        W20244   3.108  16.938  15.511  0.0089  0.1868 -0.0124
 3984W        W20245   0.360   7.698  14.132  0.2519  0.0017  0.0416
 3985W        W20246   8.097  17.651  14.810 -0.0963 -0.2533 -0.1620
 3986W        W20247  16.959  13.949   1.114  0.2007 -0.0719  0.0857
 3987W        W20248  15.353  14.342  12.811  0.0851  0.1480 -0.1600
 3988W        W20249  11.461   5.356  12.210  0.0856 -0.1494 -0.2816
 3989W        W20250  14.229   7.402   4.611  0.0614  0.1736  0.3998
 3990W        W20251   9.716   8.804   4.135 -0.2642  0.1649  0.1809
 3991W        W20252  10.915  16.361   2.898  0.0528 -0.0656 -0.0285
 3992W        W20253   7.541  12.301   2.586  0.3048  0.0079 -0.1392
 3993W        W20254   7.974  15.299  15.009  0.0525 -0.1586 -0.2295
 3994W        W20255   3.599  11.429   1.570 -0.2734  0.0217 -0.0406
 3995W        W20256  12.224   3.492   2.450 -0.1560  0.5988 -0.0875
 3996W        W20257   4.384  10.533  15.644 -0.2494 -0.1485  0.1996
 3997W        W20258  11.309   8.317  14.092  0.0123 -0.0703 -0.0293
 3998W        W20259   1.733   4.115   1.151  0.0727  0.0603  0.1495
 3999W        W20260  10.150   8.949  14.766 -0.1277 -0.1022  0.1827
 4000W        W20261   5.315   1.431   5.204  0.3213 -0.1857  0.0595
 4001W        W20262  17.081  16.508   1.235  0.3737  0.1734  0.4002
 4002W        W20263   3.399   8.960  12.152  0.0443  0.3771  0.0629
 4003W        W20264  11.610   7.027  14.764  0.0532 -0.1402  0.1021
 4004W        W20265  13.409   7.498   5.112  0.2333 -0.1987 -0.2246
 4005W        W20266   5.201   0.465  13.001  0.0223  0.2834 -0.0754
 4006W        W20267   9.125   1.035   4.366  0.0758  0.1524 -0.1947
 4007W        W20268   9.538  10.191   5.508  0.1472  0.1347 -0.1759
 4008W        W20269   8.021   4.045   2.942  0.0053 -0.0090  0.0679
 4009W        W20270  13.758  17.214  15.806 -0.1743 -0.0290 -0.0804
 4010W        W20271   8.872   0.331   0.094 -0.1275  0.0003 -0.2455
 4011W        W20272  15.764  13.761   0.400  0.0394 -0.1533 -0.0104
 4012W        W20273  12.916  12.416   1.290 -0.0481 -0.2032  0.1833
 4013W        W20274   6.533   3.889   4.399 -0.0904  0.1914  0.1398
 4014W        W20275  15.196  11.840   4.223 -0.0051  0.0354 -0.3210
 4015W        W20276   5.590   1.293  13.166 -0.1299  0.1243  0.3501
 4016W        W20277  14.244  13.549  12.113  0.1029  0.2569  0.1671
 4017W        W20278  11.387   7.560   1.435  0.2852  0.0968  0.0770
 4018W        W20279  16.893  16.176   5.173  0.1212 -0.3211  0.0704
 4019W        W20280   4.899   6.077  16.927  0.0183 -0.1575  0.0665
 4020W        W20281   5.568  10.267   4.876 -0.0298 -0.2624 -0.0047
 4021W        W20282  16.339  17.640  16.428 -0.0200 -0.1061  0.0863
 4022W        W20283   1.474  11.185   5.376 -0.3123  0.2319  0.1983
 4023W        W20284   3.201  12.230  14.585  0.3518 -0.2931 -0.0875
 4024W        W20285   9.706  10.752   6.500 -0.3834 -0.0234  0.0278
 4025W        W20286  11.206   9.631  13.679  0.0206  0.2201  0.2463
 4026W        W20287   5.814  14.474  13.895 -0.1091  0.0205 -0.2127
 4027W        W20288  13.634   0.182   4.735 -0.1218 -0.0864 -0.1194
 4028W        W20289   5.043  12.918   0.494  0.3050  0.0447  0.4684
 4029W        W20290  11.666   1.440  12.743 -0.1852 -0.0913  0.0154
 4030W        W20291   8.392  13.364   3.842  0.1489 -0.0425  0.2089
 4031W        W20292   3.762   2.469   5.232  0.4546 -0.1419 -0.1257
 4032W        W20293  13.388  10.658   2.646 -0.0507  0.1102  0.0616
 4033W        W20294   3.456   8.280   4.062 -0.2317 -0.1139 -0.2082
 4034W        W20295   9.318   2.900  12.896  0.0781 -0.1178 -0.1026
 4035W        W20296   3.828  17.576  15.854  0.0639  0.1014 -0.1511
 4036W        W20297   2.506   9.012  14.760 -0.1782  0.0264 -0.1843
 4037W        W20298  13.926   4.711  12.589 -0.1669 -0.0903  0.0237
 4038W        W20299  13.334  10.429   3.500 -0.0333  0.1659 -0.0820
 4039W        W20300   7.506  15.750  15.224 -0.2644  0.2304 -0.4343
 4040W        W20301  11.896  10.595  13.646  0.1178 -0.1759  0.1315
 4041W        W20302  10.437   3.542  15.738 -0.2343 -0.2318 -0.0318
 4042W        W20303   2.637  10.749  15.216  0.0957 -0.0068  0.1764
 4043W        W20304  10.128   5.640  14.293  0.2339 -0.2604 -0.2948
 4044W        W20305   1.017   3.350  14.717  0.0053  0.0672 -0.4250
 4045W        W20306   1.003   2.810   1.424  0.2219 -0.4480  0.0100
 4046W        W20307  10.911  10.303   0.675 -0.4019  0.0430 -0.2227
 4047W        W20308  10.491   0.908   5.471  0.0783 -0.1010 -0.1251
 4048W        W20309   1.820  15.046  13.101 -0.0110  0.2042  0.1038
 4049W        W20310   6.821   7.400   5.697 -0.2341  0.1364  0.2037
 4050W        W20311  16.909  14.758   4.171 -0.0677  0.0481 -0.1926
 4051W        W20312  16.055   4.167   2.703 -0.3660 -0.2770  0.0451
 4052W        W20313  14.414   7.528   3.649 -0.0380  0.1053  0.0980
 4053W        W20314   4.883   7.553  16.973 -0.1317  0.0132  0.0741
 4054W        W20315   0.989  17.435   4.315 -0.3963  0.2314 -0.2191
 4055W        W20316   3.190   3.771   1.281  0.0144  0.0305 -0.2175
 4056W        W20317   7.504  11.954   0.848  0.3031 -0.0467 -0.0390
 4057W        W20318  15.879  12.755   2.770 -0.0030  0.0132  0.1280
 4058W        W20319   3.350  12.864  16.003 -0.1699 -0.0348 -0.2645
 4059W        W20320   1.455   6.076  13.117  0.1695 -0.1111 -0.2062
 4060W        W20321   0.235  10.039   3.224 -0.0731 -0.1082 -0.2825
 4061W        W20322   7.747  12.812   5.277 -0.0888 -0.0987  0.1023
 4062W        W20323   5.442   3.222   3.840 -0.4671  0.0376  0.0585
 4063W        W20324  17.433   0.835   1.990  0.3876 -0.2374  0.2937
 4064W        W20325   6.945   5.221   1.415  0.0952  0.0047 -0.1623
 4065W        W20326   2.682   1.427  11.782  0.0808  0.1175  0.0924
 4066W        W20327  12.917   2.250   4.394  0.1940  0.0906 -0.1540
 4067W        W20328  16.320   5.845   2.115 -0.1064 -0.0914  0.3254
 4068W        W20329   3.764   6.732   3.338  0.4000  0.1017 -0.0854
 4069W        W20330   5.481   8.353   2.428  0.0721 -0.1133  0.0942
 4070W        W20331   2.209  15.078   1.585  0.2676  0.1519  0.1898
 4071W        W20332  13.029  12.467   4.883 -0.4302  0.0878 -0.2042
 4072W        W20333  16.881   3.013  13.767  0.0878 -0.2421  0.0285
 4073W        W20334   9.885   0.447  15.092 -0.4082 -0.3042 -0.3531
 4074W        W20335   2.680   5.925  13.642  0.1035  0.1117 -0.0662
 4075W        W20336  14.117   9.973   4.046 -0.1811 -0.3644 -0.2712
 4076W        W20337   1.511  10.317   1.730 -0.2414  0.1199 -0.1067
 4077W        W20338   9.675   6.026   4.013 -0.0785  0.1749 -0.1108
 4078W        W20339   8.042  14.625   6.235 -0.2165  0.2088  0.3350
 4079W        W20340   4.844   1.878   0.225 -0.2285 -0.0410  0.1208
 4080W        W20341   0.534   0.175   0.444 -0.0047  0.0217 -0.0587
 4081W        W20342  17.363  17.633  13.155  0.2431 -0.0969  0.0090
 4082W        W20343  12.258  17.385   5.494 -0.1954  0.1658  0.0923
 4083W        W20344  14.397  15.697  13.557  0.0262  0.0686 -0.2228
 4084W        W20345  13.095   2.520  15.361 -0.2643  0.1488 -0.1617
 4085W        W20346  13.394  11.500  16.233  0.0418  0.0452 -0.3814
 4086W        W20347  15.701  11.855   4.061  0.0089  0.0460  0.3020
 4087W        W20348   1.794   8.770   4.390 -0.2223 -0.1751  0.1101
 4088W        W20349   7.543   0.001  12.591  0.0807 -0.1221 -0.2937
 4089W        W20350   3.424  15.435   0.757  0.0052 -0.1686 -0.2426
 4090W        W20351   7.415   5.161  13.636 -0.0662  0.1347 -0.0814
 4091W        W20352   0.435  13.808  15.444  0.0734  0.0825  0.1455
 4092W        W20353  13.149   4.487   2.507 -0.0598 -0.0082  0.2757
 4093W        W20354   5.626   8.206  11.972 -0.0529  0.2534 -0.4758
 4094W        W20355   2.304  17.489   4.128 -0.0354 -0.0309  0.1109
 4095W        W20356  11.397  11.516  14.980  0.0354  0.1627 -0.0182
 4096W        W20357   6.609   0.453   0.397  0.0440  0.4070  0.1120
 4097W        W20358  12.045  12.307   0.443 -0.1019  0.0805  0.0566
 4098W        W20359   9.666   0.932  14.064 -0.0725 -0.0521  0.2084
 4099W        W20360   2.214  10.122   1.942 -0.0702  0.0549  0.0344
 4100W        W20361   3.438   8.929  12.699  0.2476 -0.3729 -0.0665
 4101W        W20362  14.334  13.317   1.036 -0.1979 -0.1393  0.2269
 4102W        W20363   6.537   2.301  10.807 -0.1790 -0.0599  0.2549
 4103W        W20364  10.933   7.747   0.627  0.1577  0.0522  0.0569
 4104W        W20365   0.582  10.185   2.003 -0.0195 -0.3603  0.2851
 4105W        W20366   3.864  15.862  13.179  0.2462  0.0527 -0.0175
 4106W        W20367   1.689  14.098   3.321 -0.3843 -0.2708  0.1150
 4107W        W20368   3.632  16.280   4.330 -0.0166  0.1908  0.2415
 4108W        W20369   8.508  14.017  14.620 -0.1100  0.0176 -0.0766
 4109W        W20370   1.410   8.647  15.243  0.0955  0.0841  0.0397
 4110W        W20371   3.719   2.698  12.365 -0.0966 -0.0307  0.0024
 4111W        W20372   0.452   8.216   1.661 -0.1935 -0.1980  0.0487
 4112W        W20373   5.515   5.769  15.596  0.0315 -0.3161 -0.0366
 4113W        W20374  16.319  10.515  16.151 -0.4125  0.0097  0.0064
 4114W        W20375  10.794  17.346  12.248 -0.0449 -0.0788  0.1541
 4115W        W20376  15.091   3.491   2.278  0.1844 -0.0724 -0.1857
 4116W        W20377  10.068  16.277  16.462  0.2478 -0.0468 -0.0291
 4117W        W20378  15.278  16.256  15.759 -0.0005 -0.2166 -0.1576
 4118W        W20379   4.663  16.479   3.146 -0.0624 -0.3379  0.1751
 4119W        W20380   7.225   0.101   0.846  0.1691  0.1099 -0.0499
 4120W        W20381   6.788  12.985  12.470 -0.0913  0.0230  0.2262
 4121W        W20382   6.586  11.130  12.268  0.5199  0.3792 -0.0592
 4122W        W20383   5.498  14.533  11.558  0.0899  0.0915  0.0729
 4123W        W20384   2.665   6.765   1.612 -0.0712  0.1016 -0.1480
 4124W        W20385   3.863   2.585   3.386  0.0756 -0.1919  0.0798
 4125W        W20386   7.789   7.544   0.844 -0.0074  0.0154 -0.1515
 4126W        W20387  11.148   8.094   6.066  0.1204 -0.1395 -0.0652
 4127W        W20388  15.303   2.147   2.901 -0.1709  0.2746 -0.0380
 4128W        W20389   3.419  10.432  15.410  0.3652  0.1439  0.1197
 4129W        W20390   3.210   2.661  13.789 -0.0065  0.1110 -0.0882
 4130W        W20391  16.825   3.862  13.074  0.2553  0.1168  0.0146
 4131W        W20392  13.469  15.344  14.947 -0.0455  0.0948 -0.0338
 4132W        W20393   8.632  13.770   5.549 -0.0697  0.0524 -0.3680
 4133W        W20394   0.219  15.165   2.748 -0.0188  0.0397  0.0559
 4134W        W20395   4.668  10.552  12.165  0.1279 -0.0381 -0.2716
 4135W        W20396  11.773   1.389  11.997 -0.2434 -0.0698  0.1170
 4136W        W20397  11.860   0.014  12.730 -0.1324 -0.0629  0.1721
 4137W        W20398   6.940   6.297  15.524  0.0455  0.0441 -0.1643
 4138W        W20399   1.000  16.098  14.657  0.1125  0.0419 -0.1395
 4139W        W20400   0.985   2.214   5.763 -0.2110  0.0603  0.2939
 4140W        W20401  10.279  13.846  14.917  0.1759 -0.1340 -0.3517
 4141W        W20402   1.432   7.794   1.344 -0.0334  0.0190 -0.0938
 4142W        W20403   5.242   9.847   1.972  0.2846 -0.1768 -0.2133
 4143W        W20404  14.460  14.803  15.371  0.0697 -0.0236  0.1719
 4144W        W20405   3.471   2.072  13.038 -0.1930  0.0201  0.0132
 4145W        W20406   1.891   3.402  15.965  0.1213  0.0102  0.3259
 4146W        W20407  11.382  16.464   3.104  0.1470  0.0764 -0.0189
 4147W        W20408  10.236  16.844   5.665 -0.0787  0.0530  0.5114
 4148W        W20409   2.707   8.346   5.970 -0.0343 -0.0340 -0.0559
 4149W        W20410   5.362   1.501   3.459 -0.5575  0.0512 -0.0937
 4150W        W20411  16.263   8.785   3.664  0.1021  0.1513  0.0832
 4151W        W20412  16.968  17.218   0.077 -0.2609 -0.0098  0.0818
 4152W        W20413  13.757   0.991  11.658 -0.0298  0.0089  0.0958
 4153W        W20414   6.590  16.591  12.019 -0.1410  0.0101  0.1703
 4154W        W20415  12.789  14.133   1.787  0.2854  0.1307  0.0782
 4155W        W20416  11.285  12.506   1.117 -0.0019 -0.1920  0.1685
 4156W        W20417  10.513   5.989  16.406 -0.2387 -0.2147  0.0338
 4157W        W20418  15.545   0.071  14.944 -0.1826 -0.2797  0.1650
 4158W        W20419   8.967  14.385  11.606  0.1747 -0.1381 -0.0287
 4159W        W20420   3.011   2.377   4.140  0.0035  0.0658 -0.0729
 4160W        W20421   0.138  13.114   4.917 -0.0099  0.2508  0.0956
 4161W        W20422   4.045   5.778  14.705  0.2377  0.2023  0.0405
 4162W        W20423   0.888   4.753  12.809 -0.1020  0.1704 -0.1438
 4163W        W20424   3.803  10.307   4.236  0.1268 -0.1299 -0.0885
 4164W        W20425   7.301  15.043   5.785 -0.2105 -0.1259  0.0004
 4165W        W20426   2.788   9.836   3.413  0.0882 -0.0102  0.1418
 4166W        W20427  16.157   2.514   5.764 -0.1426 -0.1646  0.0659
 4167W        W20428   7.810  15.853  11.871 -0.0344 -0.2558  0.1115
 4168W        W20429   6.172  15.306   2.476 -0.4755  0.0307 -0.0791
 4169W        W20430  11.512  11.013   0.813 -0.0071  0.0270  0.0666
 4170W        W20431  13.317  12.271   1.654 -0.2730  0.0645  0.1895
 4171W        W20432  14.251  13.445   2.861 -0.0302  0.2725  0.2126
 4172W        W20433  13.812   6.746   2.788  0.3851  0.0885  0.1226
 4173W        W20434  17.276  13.854  13.888  0.0874 -0.2168  0.0437
 4174W        W20435  11.440  14.173  16.981  0.1117 -0.3505 -0.0585
 4175W        W20436   7.209  17.101   0.925  0.1276 -0.0028 -0.2435
 4176W        W20437   2.130   3.577   4.665  0.0758 -0.0400  0.1180
 4177W        W20438   7.902   7.030   5.483  0.0226 -0.2042 -0.0282
 4178W        W20439   7.817  11.545  10.606 -0.0258 -0.1626 -0.0145
 4179W        W20440   1.867  15.873   1.821 -0.1662 -0.1038  0.2278
 4180W        W20441  13.686   6.957  12.064 -0.0297 -0.0995 -0.2771
 4181W        W20442  11.547   9.557  16.831  0.3126 -0.1021 -0.1485
 4182W        W20443   8.225   9.707   1.233 -0.0486  0.0870 -0.2368
 4183W        W20444   2.234   9.339   0.855 -0.2135  0.1687  0.0603
 4184W        W20445  13.503  13.882   0.167 -0.0517  0.2959 -0.1371
 4185W        W20446  15.653   5.548  12.506 -0.3999 -0.0839  0.5766
 4186W        W20447  16.168  14.472   2.489  0.2805 -0.0714 -0.0508
 4187W        W20448   6.314   1.917   5.186 -0.1009 -0.2487  0.0024
 4188W        W20449   0.845  12.917  12.063  0.0684  0.0977 -0.1557
 4189W        W20450   8.213   2.436  15.878  0.0920 -0.0637  0.0078
 4190W        W20451   9.428  14.941   3.813  0.1664  0.1393  0.2187
 4191W        W20452  17.683  13.678   1.853 -0.1583 -0.1391  0.1819
 4192W        W20453  15.244   6.443  13.894 -0.1316 -0.3002  0.0100
 4193W        W20454   9.433   6.808  12.850  0.0988  0.1895 -0.4346
 4194W        W20455   3.723  17.315   4.627 -0.0713 -0.1298  0.0524
 4195W        W20456   0.357  11.216   4.649  0.2655  0.0684  0.1081
 4196W        W20457   1.833   1.062   0.436  0.0716  0.1000 -0.2911
 4197W        W20458  11.288  15.553   0.057 -0.0354  0.1056  0.0716
 4198W        W20459   2.657  13.367   4.167 -0.1411 -0.0958  0.0541
 4199W        W20460  12.608   8.356  14.101  0.3469 -0.1640 -0.0632
 4200W        W20461   7.412   8.562   0.059 -0.1515  0.1407  0.1135
 4201W        W20462   8.784   4.305  15.885  0.0521 -0.2264 -0.1154
 4202W        W20463  11.866   2.399  10.559  0.1837 -0.0141  0.5742
 4203W        W20464  14.238  14.476   5.754  0.0618 -0.1493 -0.2866
 4204W        W20465   8.681  17.757  13.187  0.0237 -0.1082 -0.0561
 4205W        W20466   2.567  16.135   4.584  0.3391  0.0498 -0.3345
 4206W        W20467  13.486  10.926   1.458  0.1488 -0.0844 -0.0699
 4207W        W20468   1.447  13.414  16.052  0.1463  0.0339  0.1103
 4208W        W20469  14.203   7.837   5.042 -0.0804  0.0044  0.0431
 4209W        W20470   3.659   1.030   1.486 -0.1553 -0.2141  0.0291
 4210W        W20471  11.234  10.359  14.376 -0.2209 -0.2148 -0.0754
 4211W        W20472   0.512   7.681   4.577  0.5889  0.0872  0.0109
 4212W        W20473  14.358   3.942  13.472 -0.1419 -0.0363 -0.2714
 4213W        W20474  15.912   1.675  14.830 -0.0549 -0.0880  0.3499
 4214W        W20475   4.261  13.200   0.738  0.1260 -0.0224  0.0990
 4215W        W20476  15.818  14.746   1.083  0.0879  0.2984  0.1392
 4216W        W20477   2.289   9.974  12.908  0.0655  0.2154  0.0341
 4217W        W20478  12.851   8.997   2.379  0.1766  0.0040 -0.0387
 4218W        W20479  11.315   6.022   2.773  0.2601 -0.1796  0.0856
 4219W        W20480   5.480  12.564  11.940 -0.0456 -0.1419  0.1995
 4220W        W20481   5.238  17.536  13.865  0.0026 -0.4741 -0.0104
 4221W        W20482   6.667   8.798  13.472 -0.0399 -0.2845  0.2434
 4222W        W20483   6.674   5.442   4.523  0.0567  0.1028  0.2772
 4223W        W20484   8.667   9.882  16.964  0.0372 -0.2016 -0.0596
 4224W        W20485  11.704   8.285   0.328  0.5441 -0.0065 -0.3581
 4225W        W20486  17.460  17.703  15.794 -0.2033 -0.2442  0.1295
 4226W        W20487   9.099   6.888   4.998  0.0482  0.0749 -0.2322
 4227W        W20488  12.586   6.256   3.896 -0.4328 -0.2613  0.0896
 4228W        W20489  15.661   4.527  14.977  0.0239 -0.0865 -0.1649
 4229W        W20490   3.012  17.721   2.517 -0.0630 -0.0023 -0.1634
 4230W        W20491   2.320   5.333   4.710 -0.0526 -0.0647  0.0797
 4231W        W20492   1.676   8.026  13.928 -0.0553  0.1763  0.3880
 4232W        W20493  13.451   7.884  14.316  0.1066  0.2269 -0.0370
 4233W        W20494   6.996   1.203   3.592 -0.0437  0.0431  0.1105
 4234W        W20495  17.701   4.371   3.723  0.0195 -0.0172 -0.0677
 4235W        W20496   5.801   0.072  12.032 -0.2355 -0.0478  0.0448
 4236W        W20497  13.968   7.799  12.463  0.0545 -0.1560 -0.1943
 4237W        W20498   6.308   0.509   1.954 -0.1677 -0.2891  0.0703
 4238W        W20499   0.129   6.528  11.859 -0.0246 -0.2285  0.1123
 4239W        W20500   0.852   1.027   1.531  0.3202 -0.1629  0.0395
 4240W        W20501   2.611   2.760  16.591 -0.2764 -0.2795 -0.1783
 4241W        W20502   6.749   4.753  13.009 -0.1171 -0.1096 -0.4226
 4242W        W20503   6.455   0.816  14.048  0.0415 -0.1762  0.2173
 4243W        W20504   8.426  10.074   5.017  0.1076  0.0858 -0.0027
 4244W        W20505   1.994   8.021   0.535 -0.1983  0.1326 -0.1429
 4245W        W20506  13.470  13.188  12.027  0.3538 -0.2153 -0.1113
 4246W        W20507  16.402   5.741   4.425  0.2530 -0.4474  0.0591
 4247W        W20508   8.566  13.988   2.837 -0.1142 -0.2420  0.1722
 4248W        W20509   6.709  13.861  13.805 -0.3561 -0.2626 -0.1541
 4249W        W20510  14.166   1.272  16.490 -0.2061 -0.1111  0.0657
 4250W        W20511  15.973   4.286   3.738 -0.2276  0.1617  0.1305
 4251W        W20512   9.488   8.432  16.307  0.1132 -0.0855  0.1065
 4252W        W20513  17.555   0.833  12.097 -0.0265 -0.0966  0.1015
 4253W        W20514  17.344   8.098   5.472 -0.0579 -0.1918  0.2698
 4254W        W20515   2.416   8.954  15.864  0.1535  0.0464 -0.0921
 4255W        W20516  11.980   6.305  16.302  0.0621  0.0225 -0.0957
 4256W        W20517   8.740   4.920   4.294  0.1503  0.3642 -0.1358
 4257W        W20518   0.753   3.067   5.379  0.2345 -0.0230 -0.0318
 4258W        W20519   9.754   2.708   3.992 -0.1349 -0.0541 -0.2609
 4259W        W20520   8.312  11.872  14.535  0.1981  0.3307 -0.1059
 4260W        W20521   3.155  13.086  16.489 -0.0311  0.3624 -0.1482
 4261W        W20522   4.181   7.401   1.431 -0.3603  0.1525 -0.0590
 4262W        W20523   2.311  13.374   5.373  0.1363 -0.0954  0.3004
 4263W        W20524   1.231  10.690   5.165  0.3100  0.1044 -0.0225
 4264W        W20525  12.156   6.589   0.457 -0.2230  0.2618 -0.0360
 4265W        W20526   2.284   7.000  13.564  0.2663  0.1258  0.2303
 4266W        W20527   7.803   8.580   4.978 -0.0752 -0.2920 -0.1007
 4267W        W20528   6.599  10.917  16.326 -0.3653 -0.1624 -0.1717
 4268W        W20529   4.078   6.721   5.918  0.2484 -0.0491  0.1594
 4269W        W20530   4.093   2.911  14.786  0.1939  0.2838  0.0612
 4270W        W20531  17.404  10.565  16.131 -0.1100 -0.1018 -0.0673
 4271W        W20532   0.454  10.184  14.130  0.0162 -0.3131 -0.1799
 4272W        W20533   6.886   3.294  14.027 -0.0554  0.0276  0.1404
 4273W        W20534   7.741   0.785  16.222 -0.0610 -0.2011 -0.2027
 4274W        W20535   2.151   5.092   1.691  0.0602 -0.0638  0.0652
 4275W        W20536   8.553   0.307   4.107  0.0013 -0.2088 -0.2130
 4276W        W20537  11.498  16.275   1.670  0.0975  0.0721 -0.0151
 4277W        W20538   6.418  11.677  14.024  0.0552  0.0841 -0.0079
 4278W        W20539  12.064   9.238  14.674  0.0833  0.1151  0.3123
 4279W        W20540   9.634   3.852  12.242  0.1635  0.0402  0.3127
 4280W        W20541  14.115  10.465  14.370 -0.0291 -0.3949  0.3044
 4281W        W20542   4.105   9.642   1.363  0.0505  0.0606  0.1319
 4282W        W20543   4.512  11.211  12.104  0.1737  0.2957  0.0594
 4283W        W20544   8.569   9.580  14.287 -0.1221 -0.4197  0.0862
 4284W        W20545  17.027  12.681   1.211 -0.3084  0.0883  0.1608
 4285W        W20546   4.463  12.200  12.843  0.4883 -0.2947 -0.1507
 4286W        W20547  14.244   6.924   1.032 -0.1868  0.4142  0.1388
 4287W        W20548  11.084   2.621   2.493 -0.1689  0.1879  0.3149
 4288W        W20549  11.394   9.892   4.553 -0.2511  0.1469  0.0743
 4289W        W20550  16.024   3.439  15.761 -0.0254  0.0311  0.0167
 4290W        W20551   0.855  10.338  12.365  0.0062  0.2732 -0.0656
 4291W        W20552   7.139  13.633   0.240  0.0163 -0.2184  0.0888
 4292W        W20553   5.627   5.159  15.818  0.0952  0.0135 -0.2170
 4293W        W20554   7.589  14.636  16.799 -0.1268 -0.3087  0.0395
 4294W        W20555  12.712   8.177   3.049 -0.2713  0.1205 -0.1370
 4295W        W20556   6.243  17.070  13.402  0.3464  0.2259 -0.0829
 4296W        W20557   3.838   1.979  12.737  0.1989 -0.0518  0.2970
 4297W        W20558   6.119  17.320   4.150 -0.1246 -0.2468  0.2185
 4298W        W20559  11.445  14.338   5.343 -0.1768  0.2000  0.1568
 4299W        W20560   6.308   8.124  16.187 -0.1399 -0.1346 -0.2594
 4300W        W20561  16.608  16.391   1.156  0.4332 -0.1592 -0.1072
 4301W        W20562  13.829   6.286   2.593 -0.0088 -0.1133 -0.0161
 4302W        W20563   9.095   9.298   5.136  0.2482  0.0201  0.0559
 4303W        W20564   3.434  13.062   3.440 -0.1586 -0.1628 -0.1137
 4304W        W20565   8.494   6.487   3.471 -0.0749 -0.2009  0.1488
 4305W        W20566   6.223  17.502  12.789 -0.2855 -0.1691 -0.1124
 4306W        W20567  11.927  14.355   3.854  0.0775  0.0993  0.0561
 4307W        W20568  15.133   1.027   3.334  0.0622 -0.3476  0.2463
 4308W        W20569   9.832   3.016   0.286 -0.2959  0.0760 -0.2840
 4309W        W20570  11.461   5.073  14.939 -0.0381  0.5041  0.0770
 4310W        W20571  13.413   7.820   4.475  0.1099  0.1057  0.0647
 4311W        W20572  10.401   6.084   1.199  0.0568  0.3290  0.0714
 4312W        W20573  10.834  12.716  12.684  0.1574  0.3361  0.2904
 4313W        W20574   5.792   5.323   2.208 -0.1100 -0.1273 -0.5251
 4314W        W20575   3.185  14.412  13.746  0.0279 -0.0202  0.0399
 4315W        W20576   5.243   8.499  14.111  0.2806  0.0138  0.1162
 4316W        W20577   0.187   4.228  13.522 -0.3793 -0.0135 -0.1691
 4317W        W20578   2.465   8.714  16.264 -0.1410  0.1549  0.2285
 4318W        W20579  16.462   5.004   0.272 -0.2544  0.1927  0.1482
 4319W        W20580   3.195   2.053   2.804  0.1546 -0.5905  0.0338
 4320W        W20581  11.890  16.999   1.017  0.2994  0.2025 -0.3449
 4321W        W20582   8.133   4.676  16.408  0.1943  0.2787  0.0969
 4322W        W20583   2.189   0.725  12.274  0.1609 -0.1063 -0.0118
 4323W        W20584   5.414  11.467  15.771  0.1389  0.0025 -0.1217
 4324W        W20585  13.052  15.201  13.440  0.1661 -0.1962  0.0214
 4325W        W20586  10.912   5.006   2.367 -0.0712  0.3001  0.3073
 4326W        W20587  17.723  11.091   1.400 -0.0215 -0.1163  0.0336
 4327W        W20588   6.673   5.391  13.461 -0.1065  0.2148 -0.1195
 4328W        W20589   9.244   4.572   0.480  0.0137 -0.1736  0.0044
 4329W        W20590   8.644   7.259  16.732  0.2270 -0.0742  0.1370
 4330W        W20591   4.076  17.605  16.578 -0.1381  0.1741  0.0013
 4331W        W20592  17.180   2.439  16.127 -0.0403 -0.1845 -0.0302
 4332W        W20593   6.656   1.766   5.824 -0.0343  0.1598  0.3705
 4333W        W20594   4.115   1.671   1.026  0.2755  0.2240 -0.2154
 4334W        W20595   7.934  13.630   2.487  0.1892 -0.2208 -0.0151
 4335W        W20596   2.624   6.779   5.270  0.1457 -0.0355 -0.1610
 4336W        W20597   7.006  12.177   5.769 -0.0421  0.1280 -0.2868
 4337W        W20598   6.951  17.632  15.646  0.2115  0.1844 -0.2593
 4338W        W20599  14.023  13.301   5.099 -0.0255  0.3885 -0.1243
 4339W        W20600   9.850   1.804  16.238  0.2395 -0.0073 -0.4002
 4340W        W20601   4.624   7.552  11.878  0.1685 -0.2334 -0.0814
 4341W        W20602  11.058  17.062   4.699 -0.1318  0.1373  0.1851
 4342W        W20603   0.219   5.971  13.265  0.0375 -0.0348 -0.0525
 4343W        W20604   1.285  11.406   5.763  0.2377  0.1915 -0.0813
 4344W        W20605  16.452   9.791   5.595 -0.1325 -0.1193 -0.0828
 4345W        W20606  10.410   7.391   0.418 -0.1530  0.2664  0.2756
 4346W        W20607  10.567  12.812   3.514  0.0024  0.0496 -0.2380
 4347W        W20608   4.809   1.357  12.545 -0.1040 -0.1185 -0.0101
 4348W        W20609   6.600   0.117   1.112 -0.2157  0.2104 -0.1591
 4349W        W20610  13.459   3.203   1.311  0.0815 -0.0634  0.3049
 4350W        W20611   7.251   2.333  14.561  0.0406 -0.0016 -0.1448
 4351W        W20612  13.852  13.537  16.417  0.0604 -0.1782  0.0921
 4352W        W20613   8.347  10.648   0.601 -0.2175 -0.1310  0.5729
 4353W        W20614  11.290   5.982   0.900  0.0318 -0.2053 -0.1108
 4354W        W20615  13.982   2.362  12.586  0.0729 -0.0359 -0.4160
 4355W        W20616  15.838  16.352  16.573 -0.1026  0.1262 -0.0453
 4356W        W20617   4.932  13.340   3.875  0.1639  0.0645  0.1291
 4357W        W20618  12.621   0.008  11.221  0.0108 -0.0933 -0.3686
 4358W        W20619   1.710  16.701   1.265 -0.0165  0.2934  0.1990
 4359W        W20620  11.419   6.463  16.595 -0.0626 -0.3189 -0.0356
 4360W        W20621  15.778  16.119  13.740 -0.0420  0.1114  0.0302
 4361W        W20622  10.069   3.555  11.601  0.0322 -0.1129  0.1043
 4362W        W20623  14.651   1.710   4.389 -0.0241 -0.0899 -0.2410
 4363W        W20624   4.127   3.350  15.594 -0.0441  0.1440 -0.1664
 4364W        W20625   6.979   7.433   3.392 -0.1382 -0.1624  0.1157
 4365W        W20626   5.888   6.184  12.699  0.1972  0.0366 -0.0280
 4366W        W20627   7.378  16.317   6.270 -0.0521  0.2412  0.1313
 4367W        W20628  14.501  16.404  12.737 -0.1951  0.2710  0.1246
 4368W        W20629  16.734  16.692   1.939 -0.3659  0.2997 -0.1264
 4369W        W20630  13.550  17.253   3.438 -0.1514  0.0624  0.2297
 4370W        W20631  17.329   7.545  12.708  0.1240 -0.0053 -0.0391
 4371W        W20632  11.544  16.229  14.887  0.0041  0.0642 -0.0519
 4372W        W20633   1.969   2.026  13.192 -0.0521 -0.0325  0.0517
 4373W        W20634   0.896  14.561   5.233 -0.0686 -0.1713 -0.0223
 4374W        W20635  10.547  10.173   2.168  0.1200  0.3096  0.1131
 4375W        W20636   9.887   6.376   2.642  0.0387 -0.2339 -0.3075
 4376W        W20637   3.494   9.207   3.956 -0.1067 -0.0328  0.0833
 4377W        W20638  12.805  14.066  12.004  0.0828  0.1182 -0.1486
 4378W        W20639   1.525   1.814   0.379  0.0222 -0.2973 -0.1444
 4379W        W20640   2.596   0.656  16.319  0.1184  0.1116  0.1048
 4380W        W20641   5.909   5.600  14.163  0.0370 -0.0273  0.3970
 4381W        W20642   0.521  13.108   2.890  0.3100 -0.2497 -0.0002
 4382W        W20643  15.904  11.562   2.356 -0.0094  0.1130  0.0249
 4383W        W20644   3.428   9.709  15.562  0.2831 -0.2424  0.0896
 4384W        W20645  13.132  16.619  14.217  0.1655  0.2680 -0.0096
 4385W        W20646  16.197   9.747   0.257  0.0239  0.1226  0.0486
 4386W        W20647  11.074   5.063   1.035 -0.0989 -0.2816  0.0284
 4387W        W20648  12.742   0.615  15.411  0.3311 -0.0918  0.5927
 4388W        W20649  11.568  14.933   4.289 -0.1046 -0.0428 -0.0865
 4389W        W20650   4.814  11.041   0.259 -0.0268  0.1338  0.0930
 4390W        W20651   9.595  11.614  16.637  0.1409 -0.0307 -0.0308
 4391W        W20652   9.031   5.979  15.476 -0.1024 -0.0608 -0.1920
 4392W        W20653   2.363  14.819  16.119 -0.1270 -0.1144  0.0678
 4393W        W20654  10.753   8.469  15.377  0.0074 -0.1450  0.1182
 4394W        W20655   8.044  10.067   3.420 -0.1301  0.0236 -0.0173
 4395W        W20656  11.701   0.911  12.753 -0.0451  0.4229 -0.1526
 4396W        W20657   5.932   8.031   4.614 -0.0185  0.0737  0.2897
 4397W        W20658  16.929   0.795   4.984 -0.1228  0.1727  0.1818
 4398W        W20659  13.772  12.140   4.060 -0.1585  0.0886 -0.0260
 4399W        W20660   7.886   6.810  13.673 -0.4471 -0.1901 -0.2566
 4400W        W20661  16.818   7.841  11.922  0.0886  0.0182 -0.0857
 4401W        W20662  10.280  14.110   5.097 -0.1473 -0.0657  0.0062
 4402W        W20663   6.424   7.194  10.721  0.2297  0.0852  0.2804
 4403W        W20664   0.837   1.249   2.634 -0.1685 -0.1816 -0.2259
 4404W        W20665  17.332   6.338  14.667  0.3657  0.0605  0.0988
 4405W        W20666  12.653   9.960   5.677 -0.3170  0.0137 -0.0563
 4406W        W20667   7.416   1.430   3.552  0.0816 -0.2130 -0.0496
 4407W        W20668   7.813   5.466   2.955  0.1216 -0.0214 -0.2601
 4408W        W20669   7.275  12.498  16.015 -0.4125  0.1809  0.2972
 4409W        W20670  14.586  15.077  14.302  0.0282  0.2733  0.1148
 4410W        W20671   2.461  14.773  13.272  0.2025 -0.0354  0.0663
 4411W        W20672   1.582  12.632   5.282 -0.2586  0.1378 -0.2263
 4412W        W20673   4.587  17.303  13.954  0.0576  0.0806 -0.2571
 4413W        W20674  10.467   9.911   0.677 -0.2018  0.0231 -0.1273
 4414W        W20675  14.141  10.109  15.378 -0.0504 -0.3214 -0.1003
 4415W        W20676   9.044   5.328  16.513 -0.0852 -0.2475  0.0749
 4416W        W20677   1.099  12.229   0.643  0.2892 -0.3479  0.0507
 4417W        W20678   1.817   5.938   5.880  0.0991  0.1322 -0.0812
 4418W        W20679   7.952   1.436   3.519  0.1772 -0.4464 -0.0471
 4419W        W20680   2.462   3.602   3.262 -0.1909  0.0537 -0.1009
 4420W        W20681   7.562  17.326  15.520  0.1143 -0.4629  0.0499
 4421W        W20682   5.684  15.893   0.894  0.0600  0.3772  0.2006
 4422W        W20683  12.001   3.079   3.862  0.1670  0.0231 -0.2026
 4423W        W20684   8.849   4.096   3.814  0.1141 -0.1183 -0.2976
 4424W        W20685  11.737  17.114   3.959 -0.1869 -0.4963 -0.0581
 4425W        W20686  14.384   0.631   1.769 -0.2533 -0.1403  0.0811
 4426W        W20687  16.614  14.577   3.204 -0.0429  0.3458 -0.1695
 4427W        W20688  17.027   4.638   5.898  0.1843  0.2231 -0.1251
 4428W        W20689   8.869   1.571  11.039 -0.1998  0.2663  0.5495
 4429W        W20690  13.429  15.459  12.839  0.1390  0.1631  0.0217
 4430W        W20691   7.359   0.959   4.524 -0.1923 -0.2230  0.1480
 4431W        W20692   6.102  17.466   2.216  0.0462  0.2136 -0.3243
 4432W        W20693   4.602  17.238   3.986 -0.1562 -0.0124  0.3427
 4433W        W20694   0.816   7.114  13.552 -0.0101  0.0586 -0.1312
 4434W        W20695  13.526   3.464  13.283 -0.4677  0.2153  0.1501
 4435W        W20696   2.918  14.198  16.460 -0.3392 -0.0627  0.0057
 4436W        W20697  15.124  12.343   4.557 -0.0239  0.1608  0.0742
 4437W        W20698   7.369  10.092   6.039  0.2755  0.1282 -0.0275
 4438W        W20699   8.964   0.184  15.348  0.1766 -0.1073 -0.0688
 4439W        W20700  14.203   4.823   3.392 -0.0928  0.1395 -0.1611
 4440W        W20701  13.143  12.543  15.960  0.0382 -0.2526 -0.2071
 4441W        W20702   1.525   4.100   2.802 -0.3026 -0.2239  0.2996
 4442W        W20703  16.029   4.062  16.689  0.0656  0.0924 -0.1905
 4443W        W20704   0.657   7.975   1.082  0.0203 -0.0830  0.2593
 4444W        W20705   8.652   2.992   1.500 -0.0822 -0.0450  0.0158
 4445W        W20706  10.498   8.786   0.784 -0.1976  0.1099  0.1753
 4446W        W20707   6.082   7.071   4.347 -0.1678  0.0742  0.2332
 4447W        W20708   5.272  15.630   2.182  0.0421  0.4582  0.0225
 4448W        W20709  16.121   3.743   5.745  0.1075  0.0443  0.0228
 4449W        W20710  10.846  10.100   4.063 -0.0190  0.1964 -0.2482
 4450W        W20711   6.240   8.219   5.605  0.2091 -0.0749  0.1754
 4451W        W20712   7.096  15.003   5.249 -0.3014  0.2165  0.3141
 4452W        W20713  10.235   5.602   1.893  0.0217  0.1009 -0.2734
 4453W        W20714   9.021   9.142  16.711  0.0657  0.1902 -0.2434
 4454W        W20715   4.835   3.104  16.862  0.0044 -0.0523  0.1166
 4455W        W20716   6.065   6.676  15.035  0.1130 -0.0643  0.2597
 4456W        W20717   7.877   0.778   0.852  0.0520 -0.1240 -0.0170
 4457W        W20718  10.088  16.768   1.368 -0.0671 -0.0351 -0.0286
 4458W        W20719   0.925  11.608   0.061 -0.0941  0.2995  0.3970
 4459W        W20720  12.488  16.083  15.053 -0.0911 -0.0169 -0.0647
 4460W        W20721   6.973  15.581  16.205 -0.2400 -0.2583 -0.2031
 4461W        W20722  13.949   7.500   4.174 -0.0487 -0.0773 -0.0806
 4462W        W20723  14.284   0.034   2.370 -0.0065  0.1304  0.1351
 4463W        W20724  13.022   6.926  13.459  0.2183  0.1126  0.0413
 4464W        W20725   8.253   0.399  14.007  0.1359  0.2097 -0.1159
 4465W        W20726   1.252   0.831   0.477 -0.0528  0.1370  0.0468
 4466W        W20727  11.234   6.967  14.345  0.0592  0.3838  0.3035
 4467W        W20728  14.235   7.192  12.459 -0.0640 -0.1655 -0.0201
 4468W        W20729  15.290   3.843   2.687  0.0015 -0.2183  0.1006
 4469W        W20730  14.377   2.808   3.996  0.0102  0.2496 -0.1320
 4470W        W20731  14.694  16.162  13.565 -0.1030  0.1907  0.0896
 4471W        W20732   8.769  13.140  15.195  0.0544  0.1041  0.0386
 4472W        W20733   4.971   0.531  14.723 -0.2815 -0.1516 -0.0079
 4473W        W20734   3.672   5.604   1.402 -0.4202 -0.0957  0.0419
 4474W        W20735  13.995   6.577  12.200 -0.1366  0.1119  0.2186
 4475W        W20736   2.679   7.284   4.054 -0.5136 -0.2327  0.0355
 4476W        W20737  14.415  11.095   3.794  0.1913  0.0982 -0.4346
 4477W        W20738  13.856  10.779  14.722 -0.0920 -0.0244  0.2837
 4478W        W20739   2.846  12.596   3.687 -0.1385 -0.1360 -0.1325
 4479W        W20740  13.898   4.392   0.455  0.2676  0.3811  0.0007
 4480W        W20741  11.759   1.906   0.197  0.0576  0.1893  0.0481
 4481W        W20742  15.602  15.118   3.378 -0.1569  0.1624  0.2584
 4482W        W20743   5.487   9.893   4.522 -0.3158 -0.0697  0.0332
 4483W        W20744   0.334   4.394   5.648 -0.3396 -0.0187 -0.1985
 4484W        W20745   8.772  13.833  13.840 -0.0698  0.1571 -0.1890
 4485W        W20746   7.634   7.118  15.670 -0.0214 -0.0216  0.3419
 4486W        W20747   0.043  16.322   4.571  0.3719 -0.0492  0.0132
 4487W        W20748   8.787   4.622   0.613  0.1090  0.0573  0.3629
 4488W        W20749  16.670  14.212   2.774  0.1276 -0.0379  0.1644
 4489W        W20750   0.053  15.845   0.017 -0.0690 -0.1056 -0.0301
 4490W        W20751   9.401   7.475   1.135 -0.0090 -0.1583 -0.0526
 4491W        W20752   9.785  15.808   3.777  0.0017  0.1540 -0.0216
 4492W        W20753   0.581   3.010   4.106 -0.1095 -0.1070  0.0064
 4493W        W20754   6.669   7.486   2.796 -0.1637  0.1412 -0.0271
 4494W        W20755  12.317  13.563   1.368 -0.2371 -0.0577 -0.0465
 4495W        W20756  17.066   3.399  16.245 -0.0976  0.0532  0.0862
 4496W        W20757  15.105   6.795   1.663 -0.0153  0.1498  0.0129
 4497W        W20758   8.143   5.455   2.536 -0.1917  0.1167  0.0124
 4498W        W20759   2.745   7.944  13.913 -0.1920 -0.1314 -0.0946
 4499W        W20760  17.102   6.377  11.873  0.1201 -0.2260  0.2010
 4500W        W20761   0.449   0.092   6.342  0.1618 -0.0970  0.2829
 4501W        W20762   3.404  17.613   6.137  0.1929 -0.0061  0.0498
 4502W        W20763   2.749  16.840  12.234  0.0147  0.3397 -0.3491
 4503W        W20764   2.274  13.550  14.914  0.1421 -0.0433  0.1381
 4504W        W20765  15.184   1.246  13.776  0.0090 -0.0455 -0.4335
 4505W        W20766   2.503  16.539   3.878 -0.1083  0.3379  0.0920
 4506W        W20767  17.761   3.338   4.754 -0.0085 -0.2680 -0.1534
 4507W        W20768   0.807   7.484   3.638 -0.4078  0.0455  0.0349
 4508W        W20769   4.560  17.490  12.576  0.1080 -0.1523 -0.1430
 4509W        W20770  16.347  14.100   5.648  0.1622  0.0771 -0.0119
 4510W        W20771  10.480   8.256  13.903 -0.1023  0.0518 -0.0101
 4511W        W20772  12.311   4.841  11.879  0.0731  0.5452 -0.2485
 4512W        W20773  10.914  16.239  13.949 -0.0756 -0.1981  0.2176
 4513W        W20774   8.647   5.537  12.613 -0.0130  0.2481 -0.3121
 4514W        W20775   7.451  14.152   5.306 -0.0685 -0.1454 -0.0462
 4515W        W20776  15.900   2.910   4.228  0.1740 -0.0084  0.0897
 4516W        W20777  16.428   3.600   4.770 -0.1381  0.2834 -0.2405
 4517W        W20778  13.821  16.419   2.943 -0.0324  0.2612  0.2544
 4518W        W20779  16.043  10.623   2.433 -0.1215 -0.3724 -0.1739
 4519W        W20780   0.741  10.817  12.144 -0.2315  0.1537  0.0773
 4520W        W20781   8.491  10.752   3.849 -0.4093 -0.1380 -0.0360
 4521W        W20782   9.486   6.627   5.282  0.0563 -0.2960 -0.1278
 4522W        W20783   5.739   9.058  12.279  0.3379 -0.0503 -0.0396
 4523W        W20784  13.800   4.253  14.259  0.3167  0.1264  0.1486
 4524W        W20785  10.694  17.441   1.372  0.2942 -0.1356 -0.0983
 4525W        W20786  12.111   9.887   2.347  0.0526 -0.3745  0.0663
 4526W        W20787  10.919   8.192  15.765 -0.0073 -0.1708  0.0608
 4527W        W20788  15.511  12.629   6.780 -0.1093  0.1104  0.3551
 4528W        W20789   8.123  14.528  15.946  0.0268  0.1860  0.1952
 4529W        W20790   4.837   5.972   4.583  0.2884 -0.2264  0.2617
 4530W        W20791  12.870   8.244   2.272 -0.1609  0.0321 -0.1595
 4531W        W20792   3.811   5.395  12.783 -0.1082  0.3502  0.4601
 4532W        W20793  11.836  14.512  14.964  0.0152  0.2638  0.0554
 4533W        W20794   0.730   0.799   0.488 -0.0640 -0.0359 -0.0388
 4534W        W20795   5.911  12.317  11.769  0.2197  0.4241 -0.0367
 4535W        W20796   4.844   1.622   5.367 -0.3273  0.0895  0.0883
 4536W        W20797   5.586  10.729  12.014  0.1881  0.1682  0.2663
 4537W        W20798  10.061   2.555  12.872  0.1838  0.2414  0.1117
 4538W        W20799   0.098   2.972  15.714 -0.3473 -0.1731 -0.2549
 4539W        W20800  15.271   0.951   1.920 -0.2129 -0.3736 -0.2405
 4540W        W20801   4.071   0.893   3.124 -0.0814  0.1035 -0.1667
 4541W        W20802  13.546   4.586   1.692 -0.1239  0.0899 -0.0196
 4542W        W20803   0.691   9.325  16.054  0.0266  0.2614  0.2065
 4543W        W20804  14.751  16.601   4.618  0.0857 -0.1194  0.0743
 4544W        W20805   6.294  17.601   0.770  0.0174 -0.0536 -0.2220
 4545W        W20806  15.772   6.227   1.250 -0.2112 -0.1012 -0.0580
 4546W        W20807   7.508   9.076  14.575 -0.1402 -0.1681 -0.2172
 4547W        W20808   9.891  11.042   3.310 -0.0840 -0.2289  0.1675
 4548W        W20809   8.356  11.273   3.014  0.0335 -0.0612  0.1878
 4549W        W20810  16.050  10.498  12.485 -0.0811  0.2245  0.1202
 4550W        W20811   7.627  12.839  16.076 -0.1466  0.3188  0.0884
 4551W        W20812   2.745   8.338   0.394  0.1954 -0.0625  0.3773
 4552W        W20813  12.163   9.739  13.689 -0.0788  0.3670 -0.0712
 4553W        W20814   9.951   8.311  14.219 -0.0653 -0.2479  0.2330
 4554W        W20815  16.967  13.671   3.964  0.0967  0.0292 -0.2477
 4555W        W20816  13.369  15.456   2.837 -0.0877  0.1260 -0.1870
 4556W        W20817   7.084   9.272  15.034 -0.4450  0.1436  0.0918
 4557W        W20818   8.214  11.667  13.757  0.1984 -0.1135  0.1815
 4558W        W20819   3.741   3.259   3.877 -0.1031 -0.1611  0.1322
 4559W        W20820   5.611   1.768  11.773  0.1093  0.0265  0.1666
 4560W        W20821  16.730  13.701   4.857  0.1593  0.0600 -0.0219
 4561W        W20822   8.915  10.588  15.321  0.1232 -0.1811  0.2822
 4562W        W20823   9.000   6.230   2.691  0.0107 -0.2427 -0.0601
 4563W        W20824  12.109   9.031   0.125  0.2177 -0.0551  0.0017
 4564W        W20825  13.760  15.282   0.232 -0.0806  0.1715 -0.0999
 4565W        W20826  11.809   8.701   1.670  0.0171  0.1195 -0.1602
 4566W        W20827  10.882  17.381   5.039  0.1633  0.2313 -0.3441
 4567W        W20828   5.524  14.029  11.596  0.0303  0.3573  0.0654
 4568W        W20829   5.326   8.454  13.254  0.1048 -0.1930 -0.1193
 4569W        W20830   2.963  13.718   3.944  0.1487 -0.3247 -0.2226
 4570W        W20831   9.807  15.273  16.057  0.1204 -0.3596 -0.0583
 4571W        W20832  14.049   7.040  13.116 -0.2137  0.0226  0.1405
 4572W        W20833   7.942  13.903   3.307 -0.1847 -0.2195 -0.3052
 4573W        W20834   6.880  14.469   2.320 -0.0741  0.0956 -0.1957
 4574W        W20835   1.558   2.936  15.843 -0.0302 -0.2994  0.2513
 4575W        W20836  13.379  16.890   2.306 -0.1913  0.1746 -0.1323
 4576W        W20837  11.855   1.686  15.200 -0.1500  0.3373 -0.0764
 4577W        W20838  12.483  16.632   3.732  0.1991 -0.0796  0.1689
 4578W        W20839  14.806  13.356   5.223 -0.1061 -0.0380 -0.2093
 4579W        W20840   4.345   3.719  12.978  0.2095  0.3029 -0.1007
 4580W        W20841   9.008  13.905   5.170  0.0844  0.3411  0.0728
 4581W        W20842  11.510   1.690   5.180  0.2218  0.1163  0.2029
 4582W        W20843  13.357  17.590   0.233 -0.1149 -0.0862  0.3116
 4583W        W20844   8.257   6.944   1.977 -0.0141 -0.3508 -0.1488
 4584W        W20845  11.022   0.750  15.486  0.1607  0.0595  0.0494
 4585W        W20846   5.560   1.465   1.031  0.3451  0.0975 -0.0154
 4586W        W20847  11.715   5.990  11.459 -0.2870  0.0842  0.1519
 4587W        W20848  12.020   4.155   4.356 -0.1740 -0.1062  0.0252
 4588W        W20849   6.473   1.413  16.205  0.0999 -0.0933  0.1297
 4589W        W20850   7.801   9.504  15.485  0.2446 -0.3028  0.2030
 4590W        W20851   2.626  11.059   6.355 -0.0289  0.0434 -0.0665
 4591W        W20852   2.088  17.005  15.323  0.3128 -0.0619  0.1424
 4592W        W20853  16.558   7.673   5.056 -0.0387 -0.0504  0.1371
 4593W        W20854   9.432   4.705  13.517 -0.0543 -0.2028  0.1554
 4594W        W20855   1.315  13.295  13.811 -0.1602  0.1513  0.1884
 4595W        W20856   1.561  15.065   2.249  0.0495  0.1218  0.0979
 4596W        W20857  14.930   4.225  14.147 -0.0625 -0.1482  0.1540
 4597W        W20858  10.897  11.474   3.774 -0.1877  0.1269  0.2472
 4598W        W20859   4.468   9.353   0.924 -0.0613 -0.3673  0.1650
 4599W        W20860  14.374  11.465  14.414 -0.0415  0.1389  0.0149
 4600W        W20861  13.477  10.833   0.238 -0.1044 -0.1336  0.2171
 4601W        W20862   7.635   2.773   0.348  0.0443 -0.2073  0.0992
 4602W        W20863  10.389  17.120   5.161  0.3821 -0.1256  0.0511
 4603W        W20864  10.794   7.209  14.157  0.0215  0.0233 -0.1388
 4604W        W20865  13.557  10.168  15.441  0.4861 -0.1268  0.0456
 4605W        W20866   7.021   5.804   4.607  0.0591 -0.1142 -0.0163
 4606W        W20867  15.615   3.427  15.483  0.2041  0.1053 -0.0871
 4607W        W20868  14.988  11.936   3.714  0.1077 -0.1198 -0.1625
 4608W        W20869  10.240   9.815  11.752 -0.3963 -0.1349  0.0734
 4609W        W20870  12.796  10.404   5.816  0.0182 -0.2051  0.1214
 4610W        W20871  15.237   6.885  16.278 -0.1089  0.1593  0.3368
 4611W        W20872  16.565   1.650  13.539 -0.1059  0.0020 -0.3532
 4612W        W20873  11.995   4.882  14.754  0.0961 -0.0333 -0.0345
 4613W        W20874   7.349   5.573   5.945  0.1187 -0.2812 -0.2682
 4614W        W20875  12.526  16.176   3.620 -0.1582 -0.2001  0.0560
 4615W        W20876   0.598   4.744   4.401 -0.0410  0.1206 -0.2940
 4616W        W20877  12.861   3.470  16.811 -0.2046  0.0239  0.0646
 4617W        W20878   4.862   7.239   0.860  0.1627  0.1601  0.0861
 4618W        W20879  15.334  13.228  15.824  0.2323 -0.2995 -0.2355
 4619W        W20880   2.129  10.239  15.778 -0.2192 -0.1283 -0.1651
 4620W        W20881   5.971   1.977  11.476 -0.1102  0.3241 -0.1133
 4621W        W20882  10.496   0.504   0.675 -0.1384 -0.0152 -0.2142
 4622W        W20883  15.129   0.479  12.759  0.2500 -0.0367  0.1334
 4623W        W20884  16.589  17.438   4.898  0.1763  0.2012 -0.0707
 4624W        W20885  11.476   5.887  13.894 -0.1507 -0.0747  0.2569
 4625W        W20886   1.168  13.485   2.099 -0.1599 -0.1948 -0.4027
 4626W        W20887  15.506   2.275   5.546 -0.1853 -0.0313  0.0379
 4627W        W20888  15.824  11.679   6.337 -0.1549  0.2523  0.2701
 4628W        W20889   8.687   4.705  12.607  0.0898 -0.0007  0.3274
 4629W        W20890  15.246  11.242   3.393 -0.1644  0.3214 -0.3190
 4630W        W20891  13.014  14.795  13.084 -0.1851  0.1532  0.2436
 4631W        W20892   6.329   4.818   2.873  0.2756 -0.0014  0.1829
 4632W        W20893   6.231   8.675  13.606  0.3653 -0.1236  0.1952
 4633W        W20894  10.788  13.634   1.833 -0.1526 -0.1038 -0.1620
 4634W        W20895   5.402   2.756   4.245 -0.0950 -0.4767 -0.2365
 4635W        W20896  11.074   8.330  12.311 -0.2721 -0.0956 -0.2383
 4636W        W20897   8.050   9.109  12.804  0.1764  0.0995  0.0724
 4637W        W20898  11.958  16.633   1.774  0.1985  0.0759 -0.2562
 4638W        W20899   7.851  11.711  12.847  0.4004  0.0932  0.1564
 4639W        W20900  12.154   8.273  14.373 -0.2418  0.0679  0.2848
 4640W        W20901   5.172  16.998   2.662  0.1279  0.1212 -0.0824
 4641W        W20902  11.895  12.548   2.606 -0.1294 -0.2260  0.1652
 4642W        W20903  17.067   8.115   0.388 -0.0291  0.1646 -0.1625
 4643W        W20904   7.936   1.229  13.955  0.1311 -0.2647  0.2031
 4644W        W20905   7.238   1.841   3.085  0.2660 -0.2163  0.0017
 4645W        W20906   1.538   5.895   3.738 -0.1462  0.0886  0.1276
 4646W        W20907   2.408   4.298  12.223 -0.1338 -0.1928 -0.0292
 4647W        W20908  16.367  12.405   0.029  0.2555  0.2219  0.0305
 4648W        W20909   3.390  13.208   1.917 -0.0436 -0.0297  0.0523
 4649W        W20910   0.004  16.583  13.964  0.2744 -0.2295 -0.1322
 4650W        W20911  13.506  10.779  13.188 -0.1846 -0.2308 -0.0834
 4651W        W20912   3.705   6.547   0.559 -0.1400 -0.1124 -0.1192
 4652W        W20913   1.139  11.588  16.548 -0.2055 -0.0989 -0.0081
 4653W        W20914  13.918   2.356   2.166 -0.0824  0.0733 -0.2962
 4654W        W20915   5.038  15.953  11.811  0.2509  0.3060  0.2343
 4655W        W20916   7.809   5.924   1.873 -0.0662  0.3440  0.3925
 4656W        W20917  14.627  11.125  14.062 -0.0757 -0.0124  0.2143
 4657W        W20918  10.850   5.929  15.948  0.0740 -0.0814  0.2371
 4658W        W20919  17.552  14.974  16.736 -0.1111 -0.1118  0.0910
 4659W        W20920   8.050  10.979   3.686 -0.0278 -0.1854  0.3769
 4660W        W20921  17.290   3.894  12.550  0.0685 -0.3128  0.1193
 4661W        W20922   0.569  12.938  14.031  0.0558  0.1861  0.0725
 4662W        W20923   6.539   5.246  14.856 -0.0216  0.0629 -0.0593
 4663W        W20924  11.449   0.780   1.171 -0.1357 -0.0243 -0.2422
 4664W        W20925   0.591   9.407   0.640 -0.0500  0.2937  0.3135
 4665W        W20926  15.326   9.817   0.509 -0.1560  0.2377 -0.2032
 4666W        W20927   8.255  16.366   5.709  0.1068  0.2996  0.1926
 4667W        W20928   3.526   4.962  10.736 -0.1978 -0.3689  0.0693
 4668W        W20929  17.053   3.692   2.590 -0.2119 -0.0294 -0.0654
 4669W        W20930   6.554   4.971  14.402  0.0155  0.2929  0.2862
 4670W        W20931   3.819   7.377   0.982  0.1158 -0.1781  0.1036
 4671W        W20932   2.836   4.549   5.630 -0.0234 -0.1350 -0.4941
 4672W        W20933   0.257  15.863   3.765 -0.1392 -0.0842  0.0746
 4673W        W20934   2.057  16.048  15.353  0.0905  0.1959  0.0429
 4674W        W20935   0.327   1.529  11.693  0.2848 -0.2285  0.2001
 4675W        W20936   2.873  12.356   5.738 -0.0442 -0.0124  0.0584
 4676W        W20937   2.812  12.672  11.561 -0.0055  0.1636  0.1641
 4677W        W20938   6.789  14.283  15.129 -0.2027  0.1052 -0.3414
 4678W        W20939   2.889  16.306   4.105 -0.2175  0.0854 -0.1195
 4679W        W20940  15.899  15.778  16.978  0.0661  0.0988  0.1971
 4680W        W20941   3.525  16.396   3.657  0.2258 -0.1546  0.2269
 4681W        W20942  10.203   8.660  14.022  0.1527 -0.3257  0.3503
 4682W        W20943  16.506   8.746  13.980 -0.4155 -0.3927  0.1296
 4683W        W20944   5.944   9.527   6.180 -0.0290 -0.2407 -0.4370
 4684W        W20945  14.190   6.020  12.977  0.1501  0.2120 -0.1852
 4685W        W20946   9.634  13.565   0.405 -0.2400  0.0465  0.1015
 4686W        W20947   4.792  14.647   3.323  0.1171  0.2038 -0.0385
 4687W        W20948  16.176   1.220   1.617  0.0769  0.2780  0.2093
 4688W        W20949   1.120   7.147   3.982 -0.1139  0.0786 -0.0916
 4689W        W20950   6.329  11.601   0.005 -0.0129  0.2152  0.1212
 4690W        W20951  11.172  14.180   2.561 -0.2939 -0.1251  0.3496
 4691W        W20952   9.760   1.670  14.460 -0.1545  0.1995 -0.0744
 4692W        W20953   9.079  16.502  12.308  0.0179  0.1558 -0.1218
 4693W        W20954   6.572  10.336  16.503 -0.1225 -0.0954 -0.0288
 4694W        W20955   0.515   2.928  13.975 -0.1699  0.3141  0.0886
 4695W        W20956  14.468  17.415   3.054  0.1962 -0.1961 -0.0051
 4696W        W20957  14.941   8.738   5.210 -0.0058  0.0428 -0.2863
 4697W        W20958  16.922   9.623   1.985  0.2761 -0.1499  0.0655
 4698W        W20959   9.406  16.363   6.284 -0.0311  0.2056 -0.0553
 4699W        W20960  15.856   8.029   1.854  0.3541 -0.0775  0.0156
 4700W        W20961  16.061   8.911  13.412 -0.2388 -0.0848  0.0205
 4701W        W20962   5.172   1.009  13.206  0.2739 -0.3291 -0.0494
 4702W        W20963  12.432   2.737  11.830  0.1684 -0.1123 -0.0351
 4703W        W20964   6.076   8.585   2.192 -0.1940  0.0847  0.1841
 4704W        W20965   7.485  12.434   5.483  0.1570 -0.0753  0.2645
 4705W        W20966   8.094   6.378  13.973 -0.2755 -0.2771  0.3606
 4706W        W20967   5.062   3.527  12.276 -0.1027  0.1940 -0.0613
 4707W        W20968   4.357   6.411  15.624  0.1138  0.2306 -0.0355
 4708W        W20969   7.806   6.716   0.403 -0.2882  0.1762 -0.0035
 4709W        W20970   8.551   5.683   2.297  0.2794  0.1693 -0.0519
 4710W        W20971  12.190  10.062   2.943  0.1298  0.1325  0.0300
 4711W        W20972  10.775   4.873  14.440  0.0564 -0.1318 -0.5091
 4712W        W20973  16.748   3.830  11.778  0.1224 -0.1328  0.1410
 4713W        W20974  17.023  13.469  12.845 -0.3958  0.2642  0.1161
 4714W        W20975   3.235  11.992  12.135 -0.0626  0.2879 -0.1022
 4715W        W20976  17.259   3.194  13.291  0.1956 -0.1557 -0.0574
 4716W        W20977  13.563   6.966  14.020 -0.1210  0.2601 -0.1144
 4717W        W20978  13.828   2.749   0.963  0.1620 -0.1314 -0.0345
 4718W        W20979  13.602  13.618   1.447 -0.0588  0.0051  0.0855
 4719W        W20980   7.298  15.057   4.158 -0.0812  0.0313 -0.2696
 4720W        W20981  14.015  13.772  12.546  0.2609 -0.1023  0.0033
 4721W        W20982  12.911   8.922  13.612  0.0464  0.1688 -0.1235
 4722W        W20983  10.034   9.758  15.069 -0.2539  0.2028  0.1448
 4723W        W20984   0.307   6.227   3.142  0.0372 -0.0927 -0.1021
 4724W        W20985  13.685   2.739   2.447 -0.0204  0.1998  0.1753
 4725W        W20986   8.970   1.805  15.952  0.3454 -0.0966  0.1219
 4726W        W20987  14.505  14.944  13.282  0.0408  0.3258 -0.0764
 4727W        W20988  16.699   2.756  13.410  0.1420  0.1132  0.1130
 4728W        W20989   5.078   7.175  14.096 -0.1580 -0.3612 -0.0713
 4729W        W20990  13.481   0.948  16.029  0.0121  0.0694 -0.1108
 4730W        W20991  17.016   2.308   1.445 -0.0131 -0.1183  0.2889
 4731W        W20992  15.822   7.367   4.407  0.1143  0.1506  0.3166
 4732W        W20993   9.280  17.495   2.897  0.1093  0.0086 -0.2551
 4733W        W20994   0.916  13.912  15.377  0.4529 -0.4757 -0.2122
 4734W        W20995   0.169   7.100  12.582  0.0158  0.0331 -0.1531
 4735W        W20996  15.944  10.838  14.676  0.1243  0.0955  0.2037
 4736W        W20997   7.611   0.423  12.274 -0.2713  0.1104 -0.0176
 4737W        W20998   5.988   5.468   3.153 -0.2770 -0.1811 -0.2886
 4738W        W20999  11.265   2.878  14.636  0.2473  0.0489  0.1298
 4739W        W21000  16.247  13.855  12.613 -0.0166 -0.0881  0.0200
 4740W        W21001   5.708   1.332   0.466  0.1257  0.0593  0.3148
 4741W        W21002   6.298   4.557  16.821  0.1732  0.1347 -0.0858
 4742W        W21003   2.353  10.108   4.491 -0.2480 -0.1563 -0.1745
 4743W        W21004   9.017  14.000  14.815 -0.0327  0.0740  0.0239
 4744W        W21005  13.279   6.189  13.998  0.0573 -0.0312  0.1885
 4745W        W21006   5.695  11.195   2.698  0.0877 -0.1396  0.1880
 4746W        W21007   4.466   6.795  16.868  0.0525  0.0122 -0.2024
 4747W        W21008   6.711   7.033   2.991 -0.2107  0.3997 -0.0688
 4748W        W21009  10.493  16.421   2.193 -0.2225 -0.2295  0.0417
 4749W        W21010  15.735   2.889  15.147  0.3002 -0.1950  0.3531
 4750W        W21011   2.349  17.562  14.649 -0.1480  0.3813 -0.0569
 4751W        W21012  17.663  11.352  15.023 -0.2057  0.0775 -0.0058
 4752W        W21013   4.772   4.527  13.052  0.0500 -0.3049  0.1092
 4753W        W21014   6.898  11.175  15.713 -0.1657 -0.2741  0.3337
 4754W        W21015  14.937  14.928  11.859 -0.0478  0.2184  0.0604
 4755W        W21016   1.864   3.272  13.153  0.0513 -0.0302  0.1753
 4756W        W21017   1.558  12.669   0.407 -0.1038  0.4159  0.5934
 4757W        W21018   7.296  14.864  14.743 -0.1793 -0.0706  0.3039
 4758W        W21019   9.827  12.917   4.064 -0.0659 -0.1793  0.2710
 4759W        W21020   1.022  13.736  13.582 -0.3445 -0.1451  0.1784
 4760W        W21021  15.061   8.807   5.753  0.0480 -0.1065 -0.0467
 4761W        W21022  17.163   2.665  13.330 -0.3278  0.0730  0.0116
 4762W        W21023   7.048  10.338  12.478 -0.2750  0.0262  0.0443
 4763W        W21024   8.089  17.598  12.437 -0.0266  0.0053 -0.2459
 4764W        W21025   3.905   9.581  13.533  0.2078 -0.3458  0.0260
 4765W        W21026  14.316  12.180  15.691 -0.1424 -0.0397  0.2405
 4766W        W21027  17.358  12.742  16.874 -0.0161 -0.1592 -0.1623
 4767W        W21028  16.176   0.246   6.414 -0.1844  0.1380  0.0062
 4768W        W21029   6.277  10.805  14.234 -0.1359  0.0887  0.1280
 4769W        W21030   0.923   5.960   0.200 -0.2196 -0.2353 -0.0905
 4770W        W21031   1.142   9.432   5.981  0.0174  0.2888 -0.1222
 4771W        W21032   7.924   7.291  10.821  0.2638  0.0294 -0.1463
 4772W        W21033  10.879   8.559  11.498  0.2503 -0.0592 -0.4717
 4773W        W21034   6.884  17.504  16.124  0.0322 -0.0370 -0.2054
 4774W        W21035   9.542   7.122  12.065  0.1856  0.1285 -0.0852
 4775W        W21036   7.489   3.374  16.141  0.1326 -0.0769 -0.0039
 4776W        W21037  14.434  13.264   3.878 -0.5042  0.0487 -0.3342
 4777W        W21038  13.179  11.805  16.885  0.3289 -0.1397  0.2160
 4778W        W21039  14.536   4.327  13.785 -0.2041  0.1409 -0.2171
 4779W        W21040   6.992  15.078   1.558  0.2071 -0.0434  0.2542
 4780W        W21041  17.659  11.571   1.409  0.1782 -0.1876 -0.1442
 4781W        W21042  11.013  12.834   2.368 -0.0590  0.1086 -0.2668
 4782W        W21043  10.855   7.475   3.404  0.0740 -0.1374 -0.0670
 4783W        W21044  10.083  15.451   3.450  0.0140  0.2382 -0.0857
 4784W        W21045  14.582   5.242   5.036  0.0813 -0.0653  0.0543
 4785W        W21046  17.748  12.130   2.222 -0.2453  0.0356 -0.0780
 4786W        W21047   6.173   7.827  13.905  0.0585  0.2003 -0.0052
 4787W        W21048   4.215  11.130   5.465  0.3470 -0.3960  0.1357
 4788W        W21049   0.973  15.539  13.290 -0.0018 -0.0578 -0.1532
 4789W        W21050  10.417   4.802  16.847 -0.0279 -0.0094  0.2163
 4790W        W21051   5.348  11.576  15.066  0.0790  0.2200  0.2531
 4791W        W21052  14.047   8.237   5.334  0.2430  0.2447  0.0351
 4792W        W21053  14.751  17.609  14.170  0.0996 -0.2717  0.0770
 4793W        W21054  13.932   8.863  15.514 -0.2570  0.1015  0.0218
 4794W        W21055  16.757  10.383  12.761 -0.2605  0.0405  0.0941
 4795W        W21056  13.484  17.836   1.181  0.3922 -0.3534 -0.1411
 4796W        W21057  11.937   8.672  15.860 -0.1228 -0.0050 -0.2218
 4797W        W21058  11.611   1.731   3.781 -0.0347 -0.1580  0.0173
 4798W        W21059  15.004  15.179   4.750  0.0821 -0.0747  0.0084
 4799W        W21060   7.716   8.370   2.295  0.0956  0.4022 -0.0872
 4800W        W21061   4.230   2.911   5.446 -0.0523  0.1318  0.1161
 4801W        W21062   4.122  16.307  15.885  0.0554  0.1276  0.5634
 4802W        W21063   0.520  17.151   4.234 -0.1322  0.0122 -0.0650
 4803W        W21064   3.772   8.833  11.835 -0.3264  0.0349 -0.2769
 4804W        W21065   4.041   0.584  14.381 -0.0452 -0.0897  0.0063
 4805W        W21066   5.151   0.013   0.986  0.1859 -0.0814  0.0906
 4806W        W21067   1.211  10.202  12.863 -0.0827  0.3876 -0.0615
 4807W        W21068  10.204  15.153   4.791 -0.0073  0.2678 -0.4783
 4808W        W21069  12.298   9.960   1.352 -0.0681  0.0371  0.1931
 4809W        W21070   0.816   7.352  15.210 -0.1518 -0.1523 -0.2596
 4810W        W21071   3.127  13.627  13.416  0.0780 -0.1474 -0.2362
 4811W        W21072   7.795   0.120   3.689 -0.2777 -0.0174 -0.2938
 4812W        W21073   6.016   3.848   0.212  0.1316  0.0969  0.0090
 4813W        W21074  14.165   3.203  13.956 -0.0138  0.0402  0.2577
 4814W        W21075   3.217   9.969   0.239  0.1129  0.1109  0.1391
 4815W        W21076  11.714   4.694  15.148  0.4473 -0.0323  0.2621
 4816W        W21077  11.109  16.839   5.100 -0.0915  0.2007  0.2468
 4817W        W21078  16.742   3.366  13.365 -0.3426  0.0431  0.0614
 4818W        W21079  17.683   7.205   4.953 -0.0519  0.2926 -0.0852
 4819W        W21080   1.454  11.847   0.852 -0.0420 -0.2039 -0.1891
 4820W        W21081   3.101   7.315  15.633  0.2466 -0.3213  0.2448
 4821W        W21082   7.506   1.241  11.858  0.0007  0.4926  0.1914
 4822W        W21083   4.654  17.406  14.656  0.2279 -0.1833 -0.1571
 4823W        W21084  16.924  14.881   2.755 -0.0799 -0.0810 -0.1563
 4824W        W21085   7.250   0.131  13.992  0.0855  0.2981  0.0380
 4825W        W21086  11.586  10.160  13.536 -0.0283  0.0014 -0.1444
 4826W        W21087  14.923   5.524   1.929  0.2542 -0.1383  0.2055
 4827W        W21088  12.440   1.438  13.533 -0.1305 -0.1471  0.1038
 4828W        W21089   4.811   5.405  15.989  0.0158 -0.2129  0.1717
 4829W        W21090  11.645  16.920  11.884  0.0940  0.1152  0.1579
 4830W        W21091   5.522  13.597  12.290  0.0059  0.1784  0.0153
 4831W        W21092  16.620   5.002   5.758 -0.0371  0.0760  0.3364
 4832W        W21093  11.507  15.140   0.762 -0.2086  0.1704  0.0740
 4833W        W21094  15.145   1.262   5.594  0.2931  0.3333  0.1515
 4834W        W21095  15.662   1.292   4.673 -0.3258 -0.2352  0.0077
 4835W        W21096  12.054  17.477   1.020 -0.0288  0.1366  0.2194
 4836W        W21097   7.198   9.388  14.032  0.0132 -0.2905 -0.3594
 4837W        W21098  14.937  15.981   1.600  0.0168  0.4040 -0.0548
 4838W        W21099  14.881   9.080   4.359  0.1065 -0.1144  0.3742
 4839W        W21100   0.708  13.861  13.982  0.1028  0.0001 -0.0739
 4840W        W21101  16.642  10.737   4.472 -0.1299  0.2137 -0.0613
 4841W        W21102   3.172  10.623   3.627 -0.1608 -0.0225  0.0610
 4842W        W21103  14.825   8.409  14.098 -0.1376 -0.3419 -0.2308
 4843W        W21104   8.812   8.278  11.924 -0.0769  0.0414  0.0544
 4844W        W21105   5.508  13.081  12.004  0.0288  0.0809 -0.0690
 4845W        W21106   7.003  13.757  13.115  0.1506 -0.1346 -0.2022
 4846W        W21107  15.400   0.141   5.720 -0.0494  0.0185  0.0930
 4847W        W21108   7.217   6.902  14.432 -0.0271  0.0394 -0.0872
 4848W        W21109  12.750  10.143   1.255 -0.2901 -0.0271  0.1161
 4849W        W21110  10.910  15.482   1.500  0.3313 -0.0908  0.0818
 4850W        W21111   4.234  15.619   0.966  0.0649  0.0157 -0.0851
 4851W        W21112   0.951   8.567   3.648  0.3322 -0.1313  0.1532
 4852W        W21113   7.441   4.482   0.586  0.1307  0.3737  0.0921
 4853W        W21114   2.211   7.529   4.046  0.1978  0.2027  0.2292
 4854W        W21115   2.503   2.461  10.960  0.1050  0.0645 -0.0602
 4855W        W21116  16.032   2.331  12.702 -0.0548  0.0860  0.2302
 4856W        W21117  17.673  14.660   1.543  0.0350 -0.0355 -0.0675
 4857W        W21118   7.334  14.969   1.923 -0.1319 -0.3105  0.2216
 4858W        W21119   4.438  11.173   1.546 -0.0300  0.0786  0.1855
 4859W        W21120   9.624   1.918   6.496 -0.1306  0.0030  0.0462
 4860W        W21121  13.442   0.764  12.164  0.1511  0.0823 -0.0088
 4861W        W21122  11.574   1.140  16.025  0.0889 -0.0833 -0.2411
 4862W        W21123  11.832   5.512  16.504 -0.3024 -0.1400  0.0312
 4863W        W21124   1.461   9.417   4.300  0.0677  0.0923 -0.0598
 4864W        W21125   6.968   5.515   4.087  0.0918 -0.0562 -0.2588
 4865W        W21126   1.866   7.849  15.557  0.2196  0.5343 -0.0576
 4866W        W21127   3.730   7.092  11.445 -0.0071  0.2430  0.0523
 4867W        W21128   8.679   7.663   2.321  0.0254  0.0182 -0.2162
 4868W        W21129   4.773   9.516  14.782  0.5719 -0.2166  0.1776
 4869W        W21130   0.070   9.117   1.406  0.0981 -0.2916  0.0267
 4870W        W21131   5.825   7.801   5.562 -0.1659 -0.1100 -0.0939
 4871W        W21132   6.497  13.706  16.342 -0.2780 -0.1413 -0.0130
 4872W        W21133   5.574  14.486  15.425 -0.1201 -0.2174  0.0227
 4873W        W21134   0.889  12.454   1.423 -0.0126 -0.1367  0.2012
 4874W        W21135  16.688   9.477  13.089  0.0455  0.1999  0.0117
 4875W        W21136   2.724  17.146   4.504  0.0916  0.1031  0.0588
 4876W        W21137   0.830  15.114  15.304 -0.2000  0.1486 -0.0696
 4877W        W21138   4.308  12.859   1.986  0.0428 -0.1079  0.1811
 4878W        W21139   7.708   8.805   4.546 -0.2404  0.1759  0.1692
 4879W        W21140   6.083   2.084   0.300  0.1499 -0.1175  0.1611
 4880W        W21141  13.087   7.158  12.956 -0.2154  0.3226  0.1404
 4881W        W21142   3.565  10.547   6.015 -0.2301  0.0401 -0.1225
 4882W        W21143  10.922   8.932   3.265 -0.1523  0.1095  0.1956
 4883W        W21144   5.953  17.328   6.075 -0.1579  0.0594  0.0712
 4884W        W21145   3.402  17.663   1.605  0.0730  0.2809  0.1537
 4885W        W21146  10.443  11.199  13.047 -0.1497 -0.0856  0.3981
 4886W        W21147  15.536   1.423   1.102  0.0620  0.0737  0.1308
 4887W        W21148   9.704   8.687  15.891 -0.0141 -0.0408 -0.3291
 4888W        W21149  12.852  10.248   3.784 -0.0461  0.0834 -0.0556
 4889W        W21150   7.518   6.340  12.786  0.1894  0.3282 -0.0523
 4890W        W21151   3.634  17.375  12.928  0.1592  0.0357 -0.1290
 4891W        W21152   9.580   8.594   2.500 -0.0151  0.0053 -0.3897
 4892W        W21153   8.119   1.033  13.490  0.2659  0.0735  0.3728
 4893W        W21154  11.349   9.192   5.238  0.0005 -0.0585  0.0582
 4894W        W21155   4.401  15.949  13.032  0.2336  0.1448  0.0097
 4895W        W21156   9.332   5.840  12.198  0.0509 -0.1744 -0.0558
 4896W        W21157  14.972   0.041   1.525 -0.2392  0.0116  0.1765
 4897W        W21158   4.680   7.373  14.941 -0.0406  0.2755  0.1509
 4898W        W21159   6.120   6.404  14.547  0.1377 -0.4111  0.2154
 4899W        W21160   9.536   1.672   5.978 -0.0981  0.4669 -0.0487
 4900W        W21161   6.012   9.005   4.438  0.3121  0.0135  0.0491
 4901W        W21162   3.870   8.777  12.783  0.0397 -0.1804  0.1461
 4902W        W21163   3.263   7.405  16.146 -0.3830  0.1268  0.0312
 4903W        W21164  10.495  10.547  13.783  0.0274  0.0728 -0.0977
 4904W        W21165   5.608   2.927  15.383 -0.3508 -0.0997  0.0891
 4905W        W21166  15.089  11.179   1.843  0.0430 -0.0450 -0.0093
 4906W        W21167  15.076   0.329  12.207 -0.0843 -0.0730 -0.0335
 4907W        W21168   3.612   2.176  12.326  0.0164 -0.0488 -0.1491
 4908W        W21169   6.358   3.682  13.358 -0.1291  0.1738 -0.1788
 4909W        W21170  17.281   1.852   2.107 -0.2257 -0.2105 -0.0953
 4910W        W21171  15.201  13.410  12.920 -0.1083  0.2442 -0.3273
 4911W        W21172   9.643   5.460   2.591  0.1245 -0.0854 -0.2799
 4912W        W21173  17.492   6.021  15.451  0.0725  0.1054 -0.0364
 4913W        W21174   3.784   4.925   0.383  0.0734  0.1786  0.0175
 4914W        W21175  14.315   3.960   1.894  0.2263  0.0982  0.0515
 4915W        W21176   0.174   2.477  15.876 -0.0136  0.3212  0.0837
 4916W        W21177   0.519  15.994  16.820 -0.0239 -0.0814 -0.1556
 4917W        W21178  10.536  16.167   3.294 -0.0430  0.1109 -0.1623
 4918W        W21179   2.431   0.877  13.899  0.1248 -0.4540 -0.1235
 4919W        W21180   3.637  11.209  13.752 -0.1725  0.1781 -0.0630
 4920W        W21181   3.165   1.283  13.249  0.3860  0.0330  0.1843
 4921W        W21182   9.479   4.562   5.021 -0.1187  0.1225 -0.0029
 4922W        W21183   2.679   0.095  11.661 -0.1805  0.0030  0.0637
 4923W        W21184  14.135  10.734  13.246  0.0140 -0.0804 -0.0232
 4924W        W21185  12.706   8.162   5.395 -0.0808  0.1003 -0.3823
 4925W        W21186  11.490  16.205   1.185  0.0380  0.0298 -0.0646
 4926W        W21187  14.319  13.559  16.747  0.0122  0.1492  0.1852
 4927W        W21188   9.089   8.509  16.668  0.0402 -0.1558 -0.2262
 4928W        W21189   1.772  15.218   6.723  0.2322 -0.1315 -0.0278
 4929W        W21190   2.694  16.333   5.396  0.3684  0.0081 -0.2554
 4930W        W21191   9.048  11.506   5.558 -0.1332  0.2242  0.1575
 4931W        W21192  10.804   4.928   1.845  0.1235  0.1348 -0.2723
 4932W        W21193  16.681   8.686  15.581  0.1311  0.1948  0.1454
 4933W        W21194   6.797   5.690  14.816  0.1605 -0.2277  0.1594
 4934W        W21195   9.664   9.691  11.939 -0.2390  0.2546 -0.1290
 4935W        W21196   0.526  14.916  12.067  0.2690 -0.1697 -0.0865
 4936W        W21197  15.469  14.381   4.646  0.0142 -0.1151  0.2349
 4937W        W21198  12.221   4.857  13.262  0.2445  0.3173 -0.3142
 4938W        W21199  17.684  14.132   2.176 -0.0127 -0.1519  0.0738
 4939W        W21200   5.847  11.576  16.725  0.0912 -0.3618 -0.0895
 4940W        W21201  10.355  12.867   0.786 -0.0876  0.4608  0.0540
 4941W        W21202   6.953  10.262   2.660  0.0056  0.1988  0.1759
 4942W        W21203   3.797   1.960  14.115  0.1694 -0.4626  0.4375
 4943W        W21204   8.043   1.705  13.772 -0.1567 -0.1436  0.0936
 4944W        W21205   0.501  15.831   0.341 -0.2058 -0.0270  0.1669
 4945W        W21206   9.813  13.790  12.436  0.2401  0.0631 -0.2549
 4946W        W21207   9.332   0.253  13.228 -0.3426  0.2261  0.0926
 4947W        W21208   1.261  11.672  12.426  0.2377 -0.0119  0.0578
 4948W        W21209  15.325   9.166  12.177  0.1724  0.0252 -0.0778
 4949W        W21210  12.837  15.187  14.270  0.0637 -0.2385 -0.1446
 4950W        W21211   4.226  10.311   2.977 -0.0950 -0.0607  0.0435
 4951W        W21212  12.655   8.633  15.252  0.0930  0.1878  0.0294
 4952W        W21213   1.654   9.880  11.083 -0.5911 -0.0242  0.3232
 4953W        W21214   5.890   2.463  15.634  0.2045 -0.0123 -0.1434
 4954W        W21215   4.125   8.547   5.715 -0.0552  0.0495 -0.0360
 4955W        W21216  10.300   0.184   4.990 -0.1371  0.0221  0.1387
 4956W        W21217   8.365  14.159   3.337  0.1515 -0.1648 -0.0306
 4957W        W21218  14.031   0.079   3.600 -0.0011 -0.1587  0.0197
 4958W        W21219   2.056  12.192  13.884  0.0880 -0.1048 -0.1377
 4959W        W21220  11.914   3.595  15.826 -0.0489 -0.1397  0.0996
 4960W        W21221  10.451  13.484   5.793  0.0182  0.0731 -0.2733
 4961W        W21222   8.511  16.975  16.452 -0.0940 -0.0295  0.0473
 4962W        W21223  16.694   7.480  14.080 -0.1126  0.1993  0.3466
 4963W        W21224   6.263  10.894  12.544  0.0276  0.2828 -0.3152
 4964W        W21225   9.524   6.161  14.676  0.1046  0.2375  0.2172
 4965W        W21226   7.032  15.245  14.789  0.1875 -0.0987 -0.0729
 4966W        W21227   1.780   5.776  13.322  0.0788  0.0914  0.1932
 4967W        W21228  12.671  10.771  15.817  0.0245 -0.1153 -0.0638
 4968W        W21229   8.896   8.751   0.074  0.1290 -0.0808  0.0988
 4969W        W21230   9.634  16.432  16.669 -0.1767 -0.1043  0.0733
 4970W        W21231  17.031  16.210  12.486 -0.0897  0.2851  0.0201
 4971W        W21232  14.606   5.437   3.545 -0.1126  0.2380 -0.1787
 4972W        W21233  11.369   9.255   3.862 -0.0901 -0.1531  0.0467
 4973W        W21234   7.533   6.509   1.818  0.0067  0.0850  0.1483
 4974W        W21235   0.621  14.732   2.638  0.1426  0.1311 -0.0563
 4975W        W21236  17.418   8.875   1.684 -0.1507  0.0682  0.2077
 4976W        W21237  13.244   1.574   4.497 -0.1348 -0.2037  0.0384
 4977W        W21238   1.769  13.889   0.956  0.0359  0.1477 -0.2649
 4978W        W21239   7.260   8.827  11.249  0.0244 -0.5819  0.0685
 4979W        W21240  16.111  13.764   4.046 -0.4445  0.0411  0.4167
 4980W        W21241   8.298  11.421   3.976 -0.1962 -0.0517 -0.0682
 4981W        W21242  11.240   8.309  15.402 -0.0428 -0.0208  0.0273
 4982W        W21243  16.064   5.624  16.586 -0.1570  0.0630 -0.0467
 4983W        W21244  16.092   3.921   0.378 -0.0375 -0.1511 -0.1191
 4984W        W21245  16.417   0.927  13.070  0.2383 -0.0584 -0.0273
 4985W        W21246  15.028   9.487   2.933 -0.0106 -0.2621  0.1974
 4986W        W21247  15.899  14.195   4.389 -0.0244 -0.1191  0.4528
 4987W        W21248   3.103  11.681   1.481  0.0850  0.0367 -0.1369
 4988W        W21249  17.142   1.607   1.603  0.0191 -0.2063  0.0946
 4989W        W21250   9.219  13.669  15.578  0.0676 -0.0237 -0.0066
 4990W        W21251  10.083  17.056  15.371 -0.1979  0.0186  0.3651
 4991W        W21252   0.625  14.182   2.072 -0.1383 -0.1573  0.1986
 4992W        W21253  14.734   0.837  11.618 -0.0599 -0.0062  0.2534
 4993W        W21254  16.962   5.805  12.030 -0.1604 -0.0347 -0.1424
 4994W        W21255  13.116  16.434  10.955 -0.2820  0.0098  0.0669
 4995W        W21256  10.088   1.351   1.921 -0.1275 -0.1230  0.0005
 4996W        W21257  13.652   9.421   4.945  0.2770  0.0645  0.0410
 4997W        W21258  16.562  10.178  13.739  0.1873  0.2117 -0.2428
 4998W        W21259   7.031   3.185  12.786  0.0761 -0.1815 -0.1521
 4999W        W21260  14.469  15.914   4.667  0.3024 -0.0556 -0.0200
 5000W        W21261  17.358  13.874  15.736 -0.0780 -0.0881  0.0861
 5001W        W21262  12.413   2.077   3.657 -0.1099 -0.1484  0.0442
 5002W        W21263  17.623   6.059  14.016  0.0276 -0.0695 -0.2879
 5003W        W21264  15.994   9.136  14.393  0.0185  0.0595 -0.0160
 5004W        W21265  11.623  10.284   1.237  0.2303  0.3508  0.2335
 5005W        W21266   0.141  10.299   2.782  0.2003 -0.0644 -0.1127
 5006W        W21267  10.993   1.939  11.708 -0.0134  0.0691 -0.0509
 5007W        W21268   9.991  17.844  14.934  0.1417  0.1283  0.0087
 5008W        W21269   2.632  13.404  15.793 -0.0920 -0.1161  0.1815
 5009W        W21270   4.757   4.472   5.018 -0.0068 -0.0035 -0.2552
 5010W        W21271  10.645  15.707  15.648  0.1399  0.0001  0.3944
 5011W        W21272  14.313  17.536  16.362 -0.2301 -0.0471 -0.0335
 5012W        W21273   7.889   5.118  12.256 -0.3357 -0.0309  0.0477
 5013W        W21274   9.792   3.730  15.154 -0.0544 -0.1678  0.1551
 5014W        W21275  17.580  14.205  14.802  0.3097  0.2083 -0.0513
 5015W        W21276   0.999   9.065   3.676 -0.0143 -0.0036 -0.1446
 5016W        W21277   0.172   1.266   4.377  0.0690  0.2002  0.0453
 5017W        W21278   0.557   9.380   3.677 -0.0129 -0.0266 -0.1444
 5018W        W21279   4.140   2.669   4.994  0.1446 -0.1627  0.0792
 5019W        W21280  12.299  10.611  16.610 -0.2282 -0.0584  0.0319
 5020W        W21281  11.575   4.251   4.642  0.1446  0.0648  0.2832
 5021W        W21282   6.818   6.600   3.143  0.0154  0.2521  0.0320
 5022W        W21283  10.663   6.774   5.308 -0.0210 -0.0444  0.1652
 5023W        W21284   6.654   7.038   5.194  0.4561  0.1450  0.0408
 5024W        W21285  16.405   1.059  14.152 -0.3380  0.0648  0.1044
 5025W        W21286   9.366  16.001  15.535 -0.0773  0.1475  0.2654
 5026W        W21287   5.028  10.026   4.720 -0.3778 -0.1025 -0.1746
 5027W        W21288   7.812   4.148   2.123  0.1473 -0.0231 -0.1247
 5028W        W21289  10.819  11.766  13.001 -0.0592 -0.0897  0.3711
 5029W        W21290  16.856   9.197   1.154  0.0451  0.1300 -0.1507
 5030W        W21291   3.501   8.106   1.230  0.2593  0.1202  0.2086
 5031W        W21292   8.952  15.152  15.421  0.3458 -0.2464 -0.0953
 5032W        W21293   8.276  10.052   0.268 -0.0770 -0.0012  0.2705
 5033W        W21294   0.418   8.569  16.747  0.0223  0.2001  0.4323
 5034W        W21295  11.963  14.676   4.476 -0.1653  0.3586 -0.2613
 5035W        W21296   4.476  13.112   5.070  0.2682 -0.1358 -0.0604
 5036W        W21297  16.910   2.418   4.146 -0.0771  0.2784  0.2294
 5037W        W21298   2.159   8.507   5.256  0.0668 -0.0921  0.1126
 5038W        W21299   9.278   0.919  11.926  0.1427  0.1397  0.2827
 5039W        W21300  12.403  10.023   0.851  0.2235  0.0108  0.3062
 5040W        W21301  15.817  14.961   5.864  0.1847 -0.0870 -0.1624
 5041W        W21302  14.325   2.345   4.282 -0.2355 -0.0965  0.1431
 5042W        W21303   2.940  14.641   0.323  0.1660 -0.1175 -0.3156
 5043W        W21304   4.199   1.579   4.270 -0.0415 -0.0799  0.3313
 5044W        W21305   5.413   4.770   2.943  0.0206 -0.2682 -0.1672
 5045W        W21306  12.372   7.434   0.130  0.1141  0.3527 -0.3470
 5046W        W21307  14.390   1.757  16.359  0.1899 -0.0265 -0.1821
 5047W        W21308  16.962   7.001  13.857  0.1378 -0.1039 -0.0887
 5048W        W21309   9.027   0.535   5.851 -0.1040 -0.1271 -0.2422
 5049W        W21310   9.824  15.174   0.170  0.0296  0.0058  0.1734
 5050W        W21311  17.421   3.973  16.168 -0.3435  0.0054  0.3145
 5051W        W21312  12.275   6.824   4.382 -0.0660 -0.2847  0.1669
 5052W        W21313   0.067  12.368   4.603  0.4085  0.0069 -0.1798
 5053W        W21314   3.780   3.473   2.415 -0.1229 -0.2597  0.0670
 5054W        W21315  14.480   2.265   0.006 -0.0336 -0.1737 -0.0160
 5055W        W21316   0.081  17.279   5.625  0.0065 -0.0278  0.2042
 5056W        W21317   9.156   7.515  14.699 -0.1580 -0.1489  0.0027
 5057W        W21318   9.992   9.768  10.955  0.1149 -0.2851 -0.0905
 5058W        W21319  11.884  16.431   0.381 -0.2798 -0.3510  0.5014
 5059W        W21320   6.111   7.851  10.703  0.1956 -0.0947 -0.3648
 5060W        W21321   3.508  15.498  16.004 -0.2480  0.3382 -0.1413
 5061W        W21322   9.362   2.697   3.130 -0.1369 -0.2746 -0.0351
 5062W        W21323   1.454   0.163  13.666  0.1164  0.0714  0.0087
 5063W        W21324   4.141   1.870   3.076 -0.3225  0.0805 -0.1880
 5064W        W21325   7.700  10.461   3.277  0.0656  0.0054  0.2197
 5065W        W21326   7.239  16.779  13.390 -0.0112 -0.0489 -0.0930
 5066W        W21327  17.242   1.909  14.698 -0.1426 -0.0767  0.4812
 5067W        W21328  16.953  14.618   0.339 -0.1176  0.0397  0.0296
 5068W        W21329  13.873  16.657   2.151 -0.2264 -0.1214  0.1258
 5069W        W21330  16.758   4.201   5.965  0.0862  0.0164 -0.0396
 5070W        W21331   7.462   3.879  16.436  0.4056  0.0156  0.0067
 5071W        W21332   0.107   2.435   5.605 -0.0889  0.0756 -0.1273
 5072W        W21333   1.798  10.699  14.136 -0.2043  0.0232 -0.1398
 5073W        W21334   0.247   5.220  14.351 -0.1541 -0.0851 -0.1269
 5074W        W21335   2.086   8.128  15.154 -0.2783 -0.1231  0.1678
 5075W        W21336  12.973   0.190   2.573 -0.0908  0.0582  0.1420
 5076W        W21337   2.330   1.888   1.453 -0.0006  0.1966 -0.0108
 5077W        W21338  13.992  16.087   3.277 -0.2140 -0.0301 -0.1446
 5078W        W21339   2.570  16.068   2.379 -0.1981 -0.2120 -0.0305
 5079W        W21340   1.808  15.868  16.711  0.3002  0.1567  0.0006
 5080W        W21341   0.083   4.616  12.995 -0.2214  0.2318  0.0115
 5081W        W21342  10.431  11.032  12.367 -0.1445 -0.1137  0.0480
 5082W        W21343   4.450   3.623   2.136  0.2233  0.2238 -0.2205
 5083W        W21344   3.390   1.687  15.982  0.2357 -0.0650 -0.0487
 5084W        W21345  13.910   0.851  12.434  0.3628 -0.1248  0.0011
 5085W        W21346   9.434   7.441  13.505 -0.1330  0.0816 -0.0186
 5086W        W21347  10.712   8.456  12.624  0.1087  0.0956 -0.1518
 5087W        W21348  16.817   7.680  16.699 -0.1141 -0.2130 -0.1336
 5088W        W21349   6.330  10.664   6.144 -0.3334  0.0982  0.2626
 5089W        W21350   2.793  11.194  16.167 -0.2462 -0.1626  0.0395
 5090W        W21351  11.367   0.799  15.003 -0.0001  0.1189  0.4058
 5091W        W21352   7.738   1.159  13.054  0.2302 -0.0782 -0.1344
 5092W        W21353  17.198   2.377   2.005  0.1744 -0.0397 -0.1671
 5093W        W21354  10.157  14.054   0.841  0.0956 -0.0537  0.1687
 5094W        W21355   0.308   0.797   5.653  0.2147 -0.0774  0.0958
 5095W        W21356   2.177   5.753  14.757  0.2595  0.1495  0.1289
 5096W        W21357  15.166  16.471   4.791  0.4033  0.2052  0.0995
 5097W        W21358   9.469  17.061   0.893 -0.0710 -0.0966  0.2666
 5098W        W21359  14.224   4.297  16.300 -0.0470  0.3200  0.2355
 5099W        W21360   8.571   6.773  11.914 -0.1588 -0.0771 -0.2500
 5100W        W21361  14.581   5.729  12.905  0.0823  0.0166  0.1097
 5101W        W21362  16.469   7.188   4.763 -0.0224  0.0801 -0.0275
 5102W        W21363  17.792  16.889  14.326  0.0146 -0.0416  0.0276
 5103W        W21364   9.943   8.651   0.783  0.1833  0.1215 -0.1202
 5104W        W21365   6.978   3.074   1.630 -0.0039  0.0190 -0.0494
 5105W        W21366   9.264   7.150  12.481  0.5243  0.1551 -0.0110
 5106W        W21367  14.367  13.772  13.723  0.3137  0.1735 -0.2325
 5107W        W21368  10.205   8.586  16.239  0.4732  0.0432 -0.0161
 5108W        W21369   9.645  12.552   4.494 -0.1277  0.0872  0.4643
 5109W        W21370   0.576   4.226   1.046 -0.2656 -0.0610  0.3105
 5110W        W21371  11.512  14.452   5.878  0.2476 -0.1831 -0.1849
 5111W        W21372   2.922  10.378  15.201  0.1372  0.0561  0.0233
 5112W        W21373   1.639   1.219  15.484  0.1609  0.0166 -0.0282
 5113W        W21374   5.522  17.222   2.966  0.0178 -0.2582 -0.1102
 5114W        W21375   1.279  14.610  15.027  0.0280  0.3928  0.2273
 5115W        W21376   3.745   6.098   0.206 -0.2279  0.2955  0.1776
 5116W        W21377   9.777  16.159  14.508  0.2262  0.0517 -0.0854
 5117W        W21378  14.540   8.456  15.742 -0.2416  0.0795 -0.1736
 5118W        W21379  17.286   7.547  16.559  0.0207 -0.2298  0.1807
 5119W        W21380  12.573  14.843   0.502  0.1916 -0.0838  0.2622
 5120W        W21381  14.753   5.697  12.426  0.5852 -0.1510  0.1816
 5121W        W21382  12.005  14.976   3.472 -0.2642 -0.0727 -0.4242
 5122W        W21383   3.384   0.897   2.620 -0.1150 -0.0923  0.0193
 5123W        W21384   2.970  10.801   3.114  0.0863 -0.3383  0.1352
 5124W        W21385  10.204   8.361   0.476 -0.1957  0.2378 -0.2570
 5125W        W21386   3.047  12.562   6.509 -0.1172  0.0632 -0.0067
 5126W        W21387  10.124  11.905  16.334  0.1247 -0.0886 -0.2505
 5127W        W21388   0.609   3.645   5.223 -0.0010  0.3743 -0.1820
 5128W        W21389   6.141   8.749  15.289 -0.0985  0.0682 -0.3043
 5129W        W21390  11.329  10.980   1.260  0.3237  0.2616 -0.0227
 5130W        W21391   5.935   0.790   3.450 -0.2153  0.0916 -0.0800
 5131W        W21392  16.294   5.639  12.545  0.0032 -0.0699  0.1440
 5132W        W21393   7.383   6.545   4.149 -0.0025 -0.5269  0.5228
 5133W        W21394   5.728   9.216  14.640  0.1154  0.2050 -0.1721
 5134W        W21395  10.403  11.644   0.539  0.0810 -0.4615 -0.0233
 5135W        W21396   5.078   8.235  15.805  0.1978  0.1501  0.1533
 5136W        W21397   9.514   3.984  13.440  0.2058  0.1490 -0.2139
 5137W        W21398  11.411   8.108  13.668 -0.1036 -0.4141 -0.1719
 5138W        W21399   2.589   0.925   1.822 -0.1374 -0.2088 -0.3155
 5139W        W21400  14.840  17.568  15.189 -0.1119 -0.2076 -0.1233
 5140W        W21401  17.102   9.261   2.933  0.0897  0.0241 -0.2032
 5141W        W21402  11.272   7.186  11.718  0.0280  0.2020 -0.0765
 5142W        W21403   1.672  10.844   2.952 -0.1368 -0.1578 -0.3020
 5143W        W21404  11.769  10.207   5.379 -0.1257  0.2617  0.0534
 5144W        W21405   0.897   9.518   1.200 -0.1325  0.3095 -0.5644
 5145W        W21406  14.923   6.747   3.946  0.0679 -0.1341  0.1749
 5146W        W21407  13.840  11.819  16.281  0.0725  0.2118  0.1938
 5147W        W21408   3.660   5.037   1.449  0.0205 -0.0055 -0.1498
 5148W        W21409  11.608  15.271  15.974 -0.0226 -0.2127  0.0409
 5149W        W21410  17.422   8.780   0.703 -0.1764 -0.1984 -0.0607
 5150W        W21411   1.577  17.498  12.681  0.0523  0.0652  0.4429
 5151W        W21412  13.848  14.011  14.049  0.0289 -0.2045 -0.1800
 5152W        W21413  14.182  16.421   0.175 -0.0088 -0.1352 -0.1435
 5153W        W21414  12.018   1.887   1.757 -0.0337  0.1884 -0.0736
 5154W        W21415   9.193  10.937  15.139 -0.1911  0.0488  0.0442
 5155W        W21416   2.410   1.498   0.027  0.2248  0.1355 -0.1819
 5156W        W21417   1.020  17.372  12.600  0.0114  0.0719 -0.0781
 5157W        W21418   3.459   9.961  14.124  0.2252 -0.1453  0.2378
 5158W        W21419  13.561   0.874   0.685  0.2983  0.0621  0.1746
 5159W        W21420  14.339   7.954  16.519  0.0317  0.1330  0.2628
 5160W        W21421  10.014   9.461  16.535  0.0489 -0.0226  0.1366
 5161W        W21422   6.345  14.817   1.991  0.0574  0.0742 -0.0502
 5162W        W21423   6.955  16.770   0.169 -0.0353 -0.0896  0.2291
 5163W        W21424  13.479   7.440   3.867 -0.0911  0.3031 -0.3305
 5164W        W21425  17.026   4.582  14.200 -0.1815  0.2345 -0.2420
 5165W        W21426   1.598   6.918  12.155  0.2128  0.0777 -0.1072
 5166W        W21427   5.103  10.246  16.555  0.1693 -0.0417  0.0704
 5167W        W21428   2.050   0.757   5.191 -0.0720 -0.3320  0.1700
 5168W        W21429  10.472   8.413  14.430 -0.1607 -0.2695 -0.2632
 5169W        W21430   6.923   6.721   4.244 -0.1022  0.0614  0.0865
 5170W        W21431  13.884  16.337   4.804  0.3067  0.0900 -0.0925
 5171W        W21432   2.709   7.574  16.431  0.3366 -0.1874  0.0281
 5172W        W21433  10.759  13.276   2.196 -0.0912 -0.2315  0.0228
 5173W        W21434   3.250   1.245   1.326  0.0977  0.1469 -0.3495
 5174W        W21435  17.082   7.110  14.717  0.2481 -0.0941  0.1682
 5175W        W21436   1.750   2.792  13.356 -0.0062 -0.1020  0.2344
 5176W        W21437   0.822   7.119  13.007 -0.0988 -0.2516 -0.0254
 5177W        W21438   7.395   0.595  14.162  0.2778  0.2730  0.4221
 5178W        W21439  14.989   0.078  16.723  0.1676  0.0499  0.2232
 5179W        W21440   1.626   2.254  13.532 -0.0877  0.1118 -0.0330
 5180W        W21441   4.471   1.581   2.770  0.2383 -0.0437  0.1372
 5181W        W21442   4.513   8.539   3.934  0.2493 -0.2960  0.0111
 5182W        W21443   9.535   6.065  13.328  0.4589 -0.0836  0.3412
 5183W        W21444  10.837   3.237  15.035 -0.3090 -0.0352 -0.0271
 5184W        W21445   9.600  15.895   5.313 -0.0661 -0.2135 -0.3328
 5185W        W21446  12.935   0.117   3.075 -0.0114  0.1142  0.0038
 5186W        W21447  10.303   2.025   2.521 -0.1225  0.0919 -0.0148
 5187W        W21448  13.450   9.774   5.615  0.1045  0.0147 -0.1051
 5188W        W21449   8.441   8.636  12.703  0.1753 -0.1089  0.3066
 5189W        W21450   2.422  17.322  13.028  0.1058  0.0931  0.4822
 5190W        W21451  10.858   3.972  13.255  0.0684  0.0691 -0.1800
 5191W        W21452   1.810  13.815   4.354 -0.0592  0.1213 -0.0804
 5192W        W21453  13.326  17.813  16.389  0.3049  0.1410  0.0848
 5193W        W21454   7.943   0.700  15.513  0.2003  0.1708  0.2972
 5194W        W21455   4.450   6.827  16.385 -0.3161  0.2060 -0.1495
 5195W        W21456  12.438  17.459  16.360 -0.3411 -0.0040 -0.2660
 5196W        W21457  12.821   2.472  13.016  0.3906 -0.0108 -0.0761
 5197W        W21458   3.684   1.423  14.136  0.0960 -0.2072 -0.2057
 5198W        W21459   6.820  12.514  12.607  0.0192  0.3392  0.1282
 5199W        W21460   5.637   7.756  14.279 -0.0058 -0.0022 -0.0573
 5200W        W21461   8.981  10.905  16.561 -0.1249  0.0156 -0.2912
 5201W        W21462  16.775  11.255   4.495  0.3810 -0.2295 -0.1634
 5202W        W21463  13.549  15.540   5.851  0.0337  0.1770  0.0921
 5203W        W21464   6.422  15.552  11.795 -0.2793  0.0266 -0.1367
 5204W        W21465   4.974   6.860   4.898 -0.1534 -0.1474  0.1426
 5205W        W21466   7.200  12.147  16.520  0.4567  0.3511  0.2781
 5206W        W21467  16.367  16.145  14.720 -0.2482  0.2031  0.0330
 5207W        W21468   2.804   0.929  13.075 -0.1092 -0.1317 -0.0690
 5208W        W21469   2.300   6.293  15.018  0.0209  0.0807  0.2565
 5209W        W21470   0.442  15.055   4.080  0.1703  0.0429 -0.0263
 5210W        W21471   1.470   8.778   3.553 -0.2289  0.2895 -0.0586
 5211W        W21472   4.830   8.384  12.815 -0.1544  0.0534 -0.1809
 5212W        W21473  10.586   2.315  12.969 -0.0910  0.1621  0.0574
 5213W        W21474  14.015   3.120  16.121 -0.1346 -0.2680 -0.1518
 5214W        W21475   2.885   1.393   1.926 -0.2625  0.2106  0.1719
 5215W        W21476  14.448  16.810  14.868 -0.0720  0.4142 -0.0760
 5216W        W21477  14.767   4.897   5.336 -0.0208 -0.0357 -0.3224
 5217W        W21478  10.405   6.360  16.729  0.3777 -0.1745 -0.0224
 5218W        W21479   0.370  16.370   3.910  0.0777  0.1463  0.1677
 5219W        W21480  13.164   8.380  12.467  0.1129  0.1289 -0.0468
 5220W        W21481  12.743   3.630  16.326 -0.0061  0.0928  0.3070
 5221W        W21482   7.288   1.324   2.320  0.1572  0.0864  0.0091
 5222W        W21483  15.865  12.086  12.602  0.0203  0.1462 -0.3143
 5223W        W21484   4.770   4.611   5.935  0.0846 -0.1118  0.0469
 5224W        W21485  12.723  15.464  12.048 -0.0576 -0.0915  0.1360
 5225W        W21486  14.283  12.671  15.368 -0.2539  0.3138 -0.0449
 5226W        W21487  15.007   2.553   5.365  0.1014  0.2656 -0.2534
 5227W        W21488  17.081  10.789   1.159 -0.3009  0.1793 -0.0768
 5228W        W21489   5.686  12.869   1.307 -0.1325 -0.0169 -0.0801
 5229W        W21490   5.620   3.015  13.083 -0.3281  0.1061  0.0276
 5230W        W21491   0.092  13.649   0.318 -0.0484  0.1147  0.0683
 5231W        W21492  16.877  11.687   2.139  0.0682 -0.2173 -0.0429
 5232W        W21493  13.538   1.287   0.404 -0.4757  0.0491 -0.2947
 5233W        W21494   1.537   3.011  11.985 -0.2070 -0.0542 -0.1047
 5234W        W21495   8.748  15.206  15.865  0.1622  0.1216 -0.3452
 5235W        W21496  11.409  13.746   5.701 -0.4229 -0.0601  0.0999
 5236W        W21497   3.709   9.724   5.832  0.0252 -0.3995 -0.2384
 5237W        W21498   3.397   6.452   5.764  0.0915 -0.0633 -0.1440
 5238W        W21499  11.738   7.015   4.335 -0.1855 -0.2475 -0.0680
 5239W        W21500  13.425   8.805  12.352 -0.2341  0.2402  0.0147
 5240W        W21501  12.874   6.819  16.019  0.0329 -0.4605 -0.4254
 5241W        W21502   9.575   2.997  15.686 -0.0575  0.1157  0.0554
 5242W        W21503   2.768  10.649   1.478 -0.1882  0.0193  0.0010
 5243W        W21504  12.063  15.223  16.229 -0.2031  0.0463  0.0109
 5244W        W21505  11.816  17.084  13.690 -0.0127 -0.4423 -0.1956
 5245W        W21506   2.889   9.755  15.510  0.0920 -0.0759 -0.3456
 5246W        W21507   7.443  11.399   2.173  0.0664 -0.1637 -0.2110
 5247W        W21508   0.331   4.062   3.813 -0.2912  0.1031  0.1827
 5248W        W21509  14.492  13.117  15.872 -0.2878 -0.2463  0.2408
 5249W        W21510  14.130  13.473   6.632  0.1972 -0.1410  0.1817
 5250W        W21511   4.888   7.701   0.949 -0.1428 -0.1407 -0.2902
 5251W        W21512  15.299   8.075  10.795 -0.1497  0.0423  0.1216
 5252W        W21513  15.716   1.686  16.629 -0.2585 -0.0501  0.0323
 5253W        W21514   6.391  15.009  14.099 -0.1477  0.1546 -0.0834
 5254W        W21515  12.652   1.443   3.699  0.0011 -0.2239 -0.2853
 5255W        W21516   6.221  14.021   4.839 -0.1072 -0.3284  0.1238
 5256W        W21517  10.361  17.487   0.970  0.3721 -0.1780  0.0612
 5257W        W21518   9.487   7.588   2.930  0.2038 -0.2186  0.0210
 5258W        W21519  12.149  12.400  14.185 -0.0258 -0.1800  0.1677
 5259W        W21520  11.217  17.799  15.172 -0.0289 -0.1119  0.3151
 5260W        W21521   1.805  16.246  11.653 -0.1661  0.2121  0.3388
 5261W        W21522   9.410  11.070  13.216  0.0198  0.0371 -0.1813
 5262W        W21523   6.877  16.375  15.131 -0.0073 -0.2099 -0.1808
 5263W        W21524   3.159  11.337  16.706 -0.1025 -0.1614 -0.0253
 5264W        W21525   6.153   7.871  11.831 -0.0245  0.2848 -0.0610
 5265W        W21526   1.245   8.086   5.615 -0.3808  0.1988  0.2211
 5266W        W21527  17.096   9.897   2.707  0.1013 -0.2899  0.0430
 5267W        W21528   0.876   4.469  16.941 -0.1810  0.0808 -0.0098
 5268W        W21529  11.001  13.970  13.843  0.0624 -0.0768  0.0185
 5269W        W21530  13.165   8.579  15.327  0.2319 -0.3079 -0.1940
 5270W        W21531   4.743   8.906   4.160  0.2372 -0.0037  0.0486
 5271W        W21532   7.872   5.095  12.857  0.1117  0.0247 -0.2670
 5272W        W21533   6.024   1.607  13.077 -0.0205  0.1474 -0.0416
 5273W        W21534   9.926  16.887  15.832 -0.1169 -0.3164  0.1457
 5274W        W21535   8.912  15.202  12.566 -0.1307  0.3289  0.0714
 5275W        W21536  11.286   3.549  15.823 -0.0278 -0.0525  0.0640
 5276W        W21537   7.027  10.941  12.277 -0.0556  0.1246 -0.0234
 5277W        W21538   5.058   1.775  16.740  0.0052  0.1830 -0.1747
 5278W        W21539  11.506  11.001  12.822 -0.0592  0.0220  0.0629
 5279W        W21540   5.909   0.500  14.699  0.2480 -0.0891 -0.0272
 5280W        W21541   3.445   2.073   1.380 -0.0864 -0.1402 -0.2202
 5281W        W21542   7.143  15.428   4.485 -0.0250 -0.0790 -0.0671
 5282W        W21543  17.456  12.346  16.547  0.2599  0.0565  0.1958
 5283W        W21544   9.793   2.014  15.685  0.2759 -0.0827  0.2789
 5284W        W21545   4.287   4.020  13.912  0.1661 -0.1534 -0.0562
 5285W        W21546  11.413   1.810   1.793 -0.1253 -0.3797 -0.0008
 5286W        W21547  10.031  14.405  12.898  0.1033  0.2052 -0.0663
 5287W        W21548   7.766   7.437  13.587 -0.0625  0.1196  0.1915
 5288W        W21549  15.889   8.338   1.445 -0.1401  0.0028  0.2149
 5289W        W21550  12.747   1.632   4.669  0.0206  0.2175  0.0176
 5290W        W21551  17.481  13.834   4.095  0.1730 -0.2002 -0.0513
 5291W        W21552   4.468  14.810  13.102 -0.0613 -0.1043 -0.0285
 5292W        W21553  16.948  16.375   4.275  0.5183  0.2264  0.0988
 5293W        W21554   9.727   3.457  13.456  0.1611 -0.3810  0.3207
 5294W        W21555   5.781   8.656   3.213  0.0713 -0.1291 -0.0341
 5295W        W21556   1.343   2.400  15.812 -0.1151  0.2451  0.0400
 5296W        W21557   7.145  14.193   3.727  0.0012 -0.0982  0.1753
 5297W        W21558   1.028  11.287  12.735  0.1216  0.1274 -0.1831
 5298W        W21559   6.824   3.729  13.532  0.2891  0.0214 -0.0987
 5299W        W21560  16.512  14.674  15.893  0.0818  0.2886  0.0446
 5300W        W21561   9.372   6.517   1.837  0.2421 -0.2162 -0.1822
 5301W        W21562  12.097  14.201   2.971  0.0219  0.1685  0.0383
 5302W        W21563  17.635  12.639  15.709  0.2222 -0.1383 -0.1512
 5303W        W21564   0.516  13.824  16.941 -0.2115  0.2640  0.0414
 5304W        W21565  12.306  15.262  15.396 -0.0772 -0.2184 -0.1723
 5305W        W21566  10.172   9.358   2.656  0.0092 -0.0812 -0.0764
 5306W        W21567  14.475   6.492  14.593 -0.0055  0.1028  0.1822
 5307W        W21568  10.407  14.635  15.203 -0.1723  0.0054 -0.1160
 5308W        W21569  11.918  11.115  13.000  0.1184  0.0155 -0.0888
 5309W        W21570   0.970  12.078  15.716  0.3445  0.1072  0.1894
 5310W        W21571   5.101   1.058  14.586 -0.2702 -0.0136 -0.0133
 5311W        W21572   9.370  17.259   1.593 -0.3269 -0.1515  0.1535
 5312W        W21573  15.338  17.728  15.326  0.2248  0.2225  0.1284
 5313W        W21574   8.108  16.292  12.095  0.0190 -0.2362  0.1159
 5314W        W21575  12.996   7.973  14.041  0.0061  0.2894  0.3419
 5315W        W21576   4.452   2.584  13.281  0.1629  0.1379  0.0869
 5316W        W21577  17.844  15.183  11.801  0.1162  0.1542 -0.3061
 5317W        W21578   6.316  16.132   4.730 -0.3078 -0.2746  0.1565
 5318W        W21579   4.161   4.694  12.139  0.0887  0.0859 -0.0777
 5319W        W21580   9.655   9.203  11.489  0.2734  0.0736 -0.1415
 5320W        W21581   6.834  15.515  13.649 -0.0078  0.0893  0.1147
 5321W        W21582  16.107   0.297   4.056  0.0993  0.0551 -0.0467
 5322W        W21583  14.094   1.451  13.968 -0.0876  0.0856 -0.1207
 5323W        W21584   6.405   2.390   3.196 -0.0606  0.2182  0.2377
 5324W        W21585  11.464   2.871  14.028 -0.1780  0.1976  0.2004
 5325W        W21586   1.579   2.708   3.138  0.0072 -0.0277  0.0254
 5326W        W21587   1.513   3.235  12.799  0.0413 -0.1035  0.0228
 5327W        W21588  11.259   8.775  12.461 -0.0972 -0.1288  0.2866
 5328W        W21589   9.295  15.054   4.874 -0.1255  0.3039  0.0893
 5329W        W21590  10.783   0.620   5.820 -0.0116  0.6660 -0.2477
 5330W        W21591  16.641   4.856  11.797 -0.1737  0.2303 -0.2698
 5331W        W21592   3.521   3.384   3.446  0.0878 -0.4189 -0.1965
 5332W        W21593   9.876   6.775   4.622  0.1507  0.0221  0.2204
 5333W        W21594  12.060   5.316   5.128 -0.1169  0.1363 -0.0228
 5334W        W21595  12.970  16.300   4.931  0.2918  0.0705  0.0799
 5335W        W21596   0.932   8.129   2.798  0.0628  0.0147  0.0241
 5336W        W21597   9.637  14.119  12.793  0.0630 -0.1718  0.3074
 5337W        W21598   4.056   7.359   3.458 -0.0260  0.0858 -0.1451
 5338W        W21599   8.249   4.279  14.664  0.0664 -0.2244 -0.0309
 5339W        W21600  13.682   3.225   0.860 -0.1985 -0.1179 -0.0108
 5340W        W21601  13.335   2.644   2.797  0.2059 -0.0283  0.2291
 5341W        W21602   7.960   2.365   5.022  0.0518  0.2129  0.0993
 5342W        W21603   6.642  14.430   4.041 -0.1016  0.4410  0.1371
 5343W        W21604   1.929   5.991  15.753  0.2974 -0.3341 -0.2645
 5344W        W21605   6.583  12.510   3.090  0.1747  0.1696 -0.1681
 5345W        W21606   4.916   6.594  16.919  0.0551 -0.0680 -0.0875
 5346W        W21607   0.647  11.775  16.601 -0.1707 -0.0584  0.2833
 5347W        W21608  10.405  17.767   1.646 -0.1402  0.1955 -0.1023
 5348W        W21609   8.723  11.640   3.215 -0.3003  0.2968 -0.3732
 5349W        W21610   9.661  10.527  12.068  0.2518 -0.1173  0.2878
 5350W        W21611   4.364   1.136  11.596 -0.0869  0.1636  0.0086
 5351W        W21612  14.399  12.099   2.843 -0.3446  0.0965  0.3105
 5352W        W21613  15.517  11.975   3.126  0.0573 -0.1260 -0.1347
 5353W        W21614  17.354  16.407  13.826 -0.1697  0.0636 -0.0235
 5354W        W21615  14.893  13.796  13.111  0.1800 -0.0541  0.0965
 5355W        W21616  15.875   6.415   1.853 -0.1511  0.0380 -0.1287
 5356W        W21617  12.267   9.652   5.112  0.2051 -0.5684  0.2147
 5357W        W21618   0.905   1.477  15.758 -0.1573 -0.1310 -0.0961
 5358W        W21619   3.596  15.438   2.660  0.1269 -0.1357  0.0504
 5359W        W21620   5.761   0.798   4.796  0.1812  0.0502 -0.2699
 5360W        W21621  15.618  16.078  13.237 -0.2500  0.0027 -0.0779
 5361W        W21622   0.234  15.638   5.105  0.0604  0.0917 -0.0062
 5362W        W21623   3.622  10.399   3.257 -0.2083  0.0375 -0.1011
 5363W        W21624  11.433   9.841   1.180  0.0665 -0.1221 -0.0277
 5364W        W21625   9.507   7.388  12.945  0.2304  0.0218  0.0809
 5365W        W21626   2.790  11.598   3.567 -0.2342  0.2458 -0.0472
 5366W        W21627   7.366   3.878  15.965  0.1039  0.1057 -0.1564
 5367W        W21628   7.314   6.154   5.426  0.0264  0.0295  0.1410
 5368W        W21629   2.676  15.601   4.628  0.0692  0.1053 -0.1599
 5369W        W21630   2.709  17.347   5.383 -0.0900  0.0108 -0.1440
 5370W        W21631  17.244   8.719   0.167 -0.2047 -0.0391  0.1078
 5371W        W21632  13.429  11.665  15.760 -0.0024  0.2516  0.3099
 5372W        W21633  10.610   2.425   5.032  0.2014  0.1408 -0.0066
 5373W        W21634   9.164  12.749   0.998  0.1341  0.1236  0.1648
 5374W        W21635  11.790  16.526  13.845 -0.0086  0.0562  0.0415
 5375W        W21636   1.594   1.717  16.504 -0.2042  0.0500  0.1908
 5376W        W21637   8.442   0.795  14.789  0.0120 -0.2096 -0.2660
 5377W        W21638  10.986   7.535  12.237 -0.0871  0.1893  0.2098
 5378W        W21639  15.244   8.911  12.930  0.2719 -0.1957  0.3458
 5379W        W21640  13.990  13.272  15.658 -0.1146 -0.3769  0.0161
 5380W        W21641  11.732  14.076   5.060 -0.0767 -0.2006 -0.2091
 5381W        W21642  16.251   2.603   1.435  0.2333  0.0851 -0.0453
 5382W        W21643   2.877   7.204  12.812 -0.1333 -0.3275 -0.3303
 5383W        W21644   1.011   8.554   5.608  0.0264  0.2959  0.1360
 5384W        W21645   7.605   2.679  11.836  0.2430 -0.2690  0.1576
 5385W        W21646   2.278   9.368   0.329 -0.2906 -0.1438  0.2638
 5386W        W21647   0.814  14.195  16.782 -0.1408  0.2661  0.0960
 5387W        W21648  10.994  14.999   3.137  0.0701 -0.4026  0.0343
 5388W        W21649  10.329   5.994  13.419  0.0542 -0.1685  0.3022
 5389W        W21650   5.666   6.158  13.993 -0.2717 -0.1855  0.0073
 5390W        W21651  17.782  15.426   1.829  0.2099  0.0180  0.1467
 5391W        W21652  16.887   6.444   0.198 -0.1234 -0.2685 -0.1807
 5392W        W21653   5.317   0.722   3.158 -0.0558 -0.1407  0.2575
 5393W        W21654   7.369  12.747  15.079  0.1656 -0.1476 -0.0206
 5394W        W21655  15.013   6.261   3.182  0.0266 -0.0292 -0.2055
 5395W        W21656   9.673  13.777  13.695 -0.0859  0.1279  0.0456
 5396W        W21657  15.413  10.597  11.776  0.1454 -0.1975  0.2280
 5397W        W21658   1.613  14.078   5.375  0.2479  0.1092 -0.1305
 5398W        W21659  14.787   2.106  13.754  0.0872 -0.1833  0.2334
 5399W        W21660  16.223  15.809   2.386  0.1667  0.1731 -0.2041
 5400W        W21661   9.572   0.721   1.965  0.1559  0.0199  0.5156
 5401W        W21662  15.449  11.755   3.618 -0.1134  0.2652  0.1203
 5402W        W21663  13.001  17.417   4.897 -0.1218 -0.0178 -0.1370
 5403W        W21664   6.023  13.215  11.680 -0.1246  0.2493 -0.0679
 5404W        W21665  15.656   1.838   2.827  0.1405  0.0474 -0.0740
 5405W        W21666  12.369   4.276  14.455  0.0572  0.1116  0.0191
 5406W        W21667  12.792   4.275  14.205  0.2487  0.1505  0.1654
 5407W        W21668  10.501  12.451   1.112  0.0527  0.2591 -0.3675
 5408W        W21669  15.840   9.176   3.535 -0.0904 -0.1021  0.0882
 5409W        W21670   1.134   2.147   4.743  0.2720  0.0579 -0.0662
 5410W        W21671  15.604  12.988   1.350 -0.2354  0.1317  0.1721
 5411W        W21672   7.834   7.708   0.067 -0.1296  0.2588  0.1996
 5412W        W21673  10.016   9.871   5.780  0.0578 -0.2199 -0.0372
 5413W        W21674   8.381   2.312   2.974  0.2288  0.0777  0.0934
 5414W        W21675   2.519  11.338   3.143  0.2347 -0.4087  0.0714
 5415W        W21676  16.333   0.929  15.980 -0.1061 -0.2555 -0.0795
 5416W        W21677  14.458   1.690  14.447 -0.0334  0.2149 -0.1375
 5417W        W21678   0.783   2.206  12.760 -0.1800 -0.0694  0.0574
 5418W        W21679   1.675  16.187  16.292  0.1616  0.1153 -0.0230
 5419W        W21680   5.514  11.998   3.089 -0.0548  0.0109 -0.1254
 5420W        W21681  16.945  15.884   1.648 -0.0539 -0.4201 -0.0337
 5421W        W21682  15.490  13.483   4.052  0.1585  0.3791  0.0480
 5422W        W21683   8.194   7.740  13.635 -0.0092 -0.1130 -0.2104
 5423W        W21684   3.380  17.263   3.219  0.1115 -0.0703 -0.1769
 5424W        W21685  15.831   6.827   4.158 -0.0405  0.1629 -0.0412
 5425W        W21686  15.710  13.070  16.075  0.1259  0.1526 -0.0575
 5426W        W21687  11.764   1.082  11.193 -0.0936 -0.2691  0.2431
 5427W        W21688  10.487   9.848  13.370  0.0037  0.0686 -0.1421
 5428W        W21689  10.076   1.874   5.640  0.0834 -0.0086 -0.1499
 5429W        W21690   8.855  10.339  12.752  0.2133  0.2069 -0.0295
 5430W        W21691   8.352  17.317  14.508  0.0444  0.0374  0.0929
 5431W        W21692  17.452  14.495   3.744  0.3694 -0.3139 -0.1103
 5432W        W21693   7.839  17.495  13.516  0.0687 -0.0170  0.1445
 5433W        W21694  10.326   4.738   1.676 -0.2082  0.1177 -0.0838
 5434W        W21695   6.801  16.780   0.708 -0.2484 -0.0202  0.0086
 5435W        W21696   0.747  12.307  13.774 -0.1040 -0.0215 -0.1317
 5436W        W21697   6.858   4.479   5.619  0.4404 -0.3581 -0.1480
 5437W        W21698  15.041  16.957  13.110  0.0243  0.0281 -0.1427
 5438W        W21699  13.419   0.619   4.698  0.0802  0.1589  0.0206
 5439W        W21700  13.454   8.410  11.999 -0.1774 -0.0586 -0.0428
 5440W        W21701  14.618   9.655   5.447 -0.0894 -0.2433  0.0818
 5441W        W21702  14.914   1.937   0.945  0.2695 -0.0659  0.1088
 5442W        W21703  17.437  10.372   1.052 -0.2053 -0.1424 -0.1494
 5443W        W21704   4.918   8.612   1.315 -0.2091  0.2180  0.1889
 5444W        W21705  16.660  13.819  16.919 -0.2843  0.1376 -0.2541
 5445W        W21706   7.328  14.349  13.996  0.1955 -0.1198 -0.1547
 5446W        W21707  14.043  10.934  15.702  0.3366  0.4022 -0.1256
 5447W        W21708   3.120   9.995   5.453 -0.0464 -0.1732  0.1857
 5448W        W21709  14.514  10.894  15.247 -0.0849  0.1701  0.0619
 5449W        W21710   1.515   2.825  14.345  0.0390  0.4419  0.2127
 5450W        W21711   0.701  15.783  13.630 -0.0263 -0.0735 -0.1477
 5451W        W21712   5.559   8.357  16.051  0.0135 -0.1855 -0.0824
 5452W        W21713   5.999   7.353  11.906  0.1467 -0.1858  0.2111
 5453W        W21714   0.075  12.903   1.631 -0.1192 -0.0714  0.0605
 5454W        W21715  10.750  11.597   0.989 -0.0288  0.0130 -0.3275
 5455W        W21716  10.601  13.056   3.034 -0.2073 -0.3192 -0.1228
 5456W        W21717   9.283  16.368   0.535 -0.0904  0.1305 -0.0079
 5457W        W21718  16.700   2.875   3.697 -0.2647 -0.0804 -0.1703
 5458W        W21719   3.415   3.286   5.784 -0.1019 -0.1007 -0.0238
 5459W        W21720   8.736   7.370  12.400  0.0977 -0.1774  0.0615
 5460W        W21721  11.779  14.527   2.679  0.0283  0.1492 -0.2095
 5461W        W21722  16.887   9.907   4.075  0.0460  0.1330  0.2801
 5462W        W21723  11.853  10.287   5.929  0.0711  0.0302  0.1778
 5463W        W21724   7.570  15.447  12.023 -0.1897  0.3530  0.1370
 5464W        W21725  13.873   5.767  14.790 -0.0032  0.1402 -0.0141
 5465W        W21726  16.070   9.758   4.507  0.1426  0.3564 -0.3404
 5466W        W21727  15.149   6.360  16.886 -0.0793  0.0040 -0.5811
 5467W        W21728   3.737   3.928   2.834  0.2219 -0.1906  0.0688
 5468W        W21729   4.940   7.069   2.383  0.1287 -0.0748 -0.1459
 5469W        W21730   3.437  14.419  11.923  0.0795  0.0786 -0.0992
 5470W        W21731   7.673   9.320   1.824 -0.0688 -0.0119 -0.0672
 5471W        W21732  12.637  10.356  13.358  0.2302  0.3247  0.4327
 5472W        W21733   8.904  12.105   3.074  0.0334 -0.2049  0.1764
 5473W        W21734   3.774   8.340  13.609 -0.0551  0.1861  0.0069
 5474W        W21735  14.638  10.283  13.416 -0.0776  0.0811 -0.2943
 5475W        W21736  11.207  15.607  16.509 -0.0984  0.2726 -0.0201
 5476W        W21737   3.701   9.592   3.601 -0.1731  0.0054 -0.3078
 5477W        W21738   9.784  10.972  14.461  0.1261  0.2240 -0.0757
 5478W        W21739   8.702   1.291   0.473 -0.3020 -0.0903  0.0402
 5479W        W21740  12.241   1.069  11.427  0.0282 -0.1031  0.1258
 5480W        W21741  11.449   2.215  16.933  0.1226 -0.1461 -0.4254
 5481W        W21742  14.363   3.932  12.227 -0.1241  0.0392  0.1620
 5482W        W21743   5.961   3.888  13.640 -0.3532 -0.1323 -0.0342
 5483W        W21744   8.868  13.103   4.896  0.0835  0.1207  0.2125
 5484W        W21745  17.081  17.305  15.580 -0.0970 -0.0687  0.2036
 5485W        W21746  17.133  13.297   4.654  0.0318  0.0447 -0.0519
 5486W        W21747   1.508  16.972  15.745  0.2510  0.1999 -0.1109
 5487W        W21748   4.500   0.956  12.515  0.0733 -0.0536  0.0799
 5488W        W21749   4.387   6.091  14.565 -0.0995 -0.2563 -0.4419
 5489W        W21750   3.048  16.728  14.700 -0.2918  0.1918  0.3455
 5490W        W21751   1.772   2.037   0.775 -0.1923 -0.1189  0.0309
 5491W        W21752  15.268  17.700   4.400  0.0139  0.1267  0.2887
 5492W        W21753   7.629   2.853   1.614  0.2024 -0.1305 -0.0554
 5493W        W21754   5.994   4.114   1.826  0.1464 -0.2467  0.2056
 5494W        W21755  11.121  13.980  14.791 -0.2516  0.2205  0.0073
 5495W        W21756  16.196  11.883  12.280 -0.0916 -0.0388  0.0329
 5496W        W21757   7.654  14.185   1.962 -0.2725  0.1703 -0.1100
 5497W        W21758  15.415  11.435   4.045 -0.1099  0.0135  0.0480
 5498W        W21759   9.759   0.279  12.156 -0.3125  0.0904  0.0054
 5499W        W21760  14.492  16.490  15.248 -0.2261 -0.3809  0.1045
 5500W        W21761  17.217  15.503  15.397  0.0903 -0.1373 -0.0202
 5501W        W21762   8.738  11.572   2.676  0.2273  0.1370  0.0207
 5502W        W21763   3.862  10.722   5.579  0.0933  0.0074  0.1190
 5503W        W21764   9.158   3.683   4.995 -0.0507 -0.1128 -0.3546
 5504W        W21765  15.020  13.383  16.246  0.2398 -0.0080 -0.0807
 5505W        W21766  16.787   5.563   4.092  0.1060 -0.0951  0.0807
 5506W        W21767   3.391  12.321   0.945 -0.0156 -0.0046 -0.0934
 5507W        W21768   5.461  11.997   1.181  0.0325  0.0789  0.1083
 5508W        W21769   2.719   3.615  12.718 -0.0086 -0.0334  0.0951
 5509W        W21770  10.098  17.535  13.492  0.0224 -0.0007 -0.0972
 5510W        W21771   4.346   2.938  16.826  0.0178 -0.1453 -0.0429
 5511W        W21772   1.341   1.963   1.089 -0.1867  0.1792  0.1579
 5512W        W21773   3.892   0.344   3.973  0.2351 -0.0655 -0.1405
 5513W        W21774   5.547   9.777   1.500 -0.0186  0.0377 -0.2500
 5514W        W21775  12.431   0.115  14.044  0.1794  0.0032  0.1862
 5515W        W21776  15.176  17.197   0.953  0.0439  0.0013 -0.1053
 5516W        W21777  13.895   5.204  11.457  0.0021 -0.1847 -0.1384
 5517W        W21778   7.154   0.405  15.550 -0.1378  0.1842  0.0959
 5518W        W21779  13.396  15.732  16.190  0.0033 -0.4793  0.0231
 5519W        W21780  13.341  17.664  11.929  0.0962 -0.2259  0.0232
 5520W        W21781   5.738   9.345  14.202  0.1885  0.0696  0.0012
 5521W        W21782  17.360  14.670  14.197 -0.0872 -0.2280  0.4136
 5522W        W21783   6.374   5.980  14.204 -0.1578  0.0824  0.2166
 5523W        W21784  13.909  13.876  14.585  0.2190  0.2710  0.2768
 5524W        W21785  15.008  14.652   2.957 -0.3251 -0.0242  0.0407
 5525W        W21786   9.365  10.884  11.821 -0.0394 -0.0315 -0.0673
 5526W        W21787   5.803   3.356  14.426  0.1202 -0.0010 -0.0274
 5527W        W21788  15.023   4.515   1.357  0.1976  0.3321  0.0257
 5528W        W21789  10.080  13.851  12.011 -0.1684  0.2822  0.1054
 5529W        W21790  14.738   3.150   0.461 -0.0904 -0.0760  0.1850
 5530W        W21791   4.472   6.305   0.162 -0.4654  0.3165  0.3830
 5531W        W21792  14.876  11.444   2.509 -0.0203 -0.0772  0.2658
 5532W        W21793  16.549  13.180   5.491  0.2114 -0.1728 -0.1963
 5533W        W21794  12.129   5.531   2.086 -0.1801  0.0061  0.1740
 5534W        W21795   1.758   5.099   0.755 -0.1380 -0.4972  0.1393
 5535W        W21796   8.085   9.530  14.014 -0.1997 -0.0525  0.0315
 5536W        W21797  17.451  13.485   0.396  0.0536  0.0165 -0.1854
 5537W        W21798  14.393  11.565   0.552 -0.0320  0.0355  0.0472
 5538W        W21799  11.665   0.058  16.729 -0.1898  0.1182 -0.0467
 5539W        W21800   6.063  12.041  13.943 -0.3367 -0.0477  0.0905
 5540W        W21801  13.832   5.708  15.946 -0.1564  0.3002 -0.1556
 5541W        W21802   3.788   7.079  11.967 -0.0387  0.0230 -0.2406
 5542W        W21803  11.548  15.954   4.655 -0.0593  0.1363 -0.1300
 5543W        W21804  13.267  12.494  14.997 -0.1674  0.2341  0.0258
 5544W        W21805  10.877   1.486  12.475 -0.5607  0.1239 -0.3037
 5545W        W21806  11.081   4.420   4.749  0.1650  0.1948 -0.1376
 5546W        W21807   0.004  14.536   0.264 -0.0335  0.0715 -0.0471
 5547W        W21808  13.300  15.113   1.596 -0.0164 -0.2610  0.2784
 5548W        W21809   8.308  11.073  12.494 -0.1506  0.1467 -0.3030
 5549W        W21810   3.299  15.003  16.810  0.0252 -0.1655 -0.1338
 5550W        W21811   5.533  16.336   4.429  0.1971 -0.3683  0.2226
 5551W        W21812  13.887   2.656  16.198  0.1184  0.0765 -0.1669
 5552W        W21813   3.644   2.871   3.054 -0.0019 -0.2692  0.0404
 5553W        W21814   7.900   1.625   5.231 -0.0884  0.0279  0.0271
 5554W        W21815   3.451  13.661   4.098  0.2743  0.1372 -0.1683
 5555W        W21816   2.617   5.259   5.192 -0.2742 -0.1383  0.1618
 5556W        W21817   7.810  15.279  15.491  0.0920  0.1387 -0.0018
 5557W        W21818   3.776  14.139   3.062  0.3279  0.1586  0.0363
 5558W        W21819  11.521   4.715   2.587  0.1466 -0.2622  0.1641
 5559W        W21820  12.263  15.463   6.141 -0.1165 -0.2711 -0.0085
 5560W        W21821   9.641   5.714   1.312  0.0047 -0.1058  0.0294
 5561W        W21822   9.175   7.098  14.312 -0.0176 -0.0799 -0.0928
 5562W        W21823   2.758   1.850  15.685  0.1297  0.0161  0.1549
 5563W        W21824   2.161   8.861   4.022 -0.1276 -0.0631 -0.3272
 5564W        W21825   9.125  13.550  15.091  0.1485  0.2967  0.0421
 5565W        W21826  13.996   8.107   2.165 -0.3136  0.2308  0.0957
 5566W        W21827  15.091   0.320  11.743  0.1657 -0.4182  0.1847
 5567W        W21828  10.844  12.756   0.057 -0.0286 -0.0718 -0.2814
 5568W        W21829   4.389   8.442  13.551 -0.2402  0.0028 -0.1296
 5569W        W21830   7.251  16.210  16.584  0.0976 -0.1159 -0.2508
 5570W        W21831  16.649   8.922   5.092 -0.1050  0.0675  0.3447
 5571W        W21832  12.974  14.003  16.218 -0.1571  0.0122 -0.1799
 5572W        W21833   5.111  10.504  14.945  0.1956  0.0869  0.1052
 5573W        W21834   7.627   1.370  16.282  0.0298 -0.2436  0.0219
 5574W        W21835   3.651  11.324  15.791  0.1370  0.1698 -0.0313
 5575W        W21836  12.655   2.381  12.107  0.2479 -0.1612  0.2066
 5576W        W21837   8.870  13.804   0.340  0.0637 -0.1321 -0.0047
 5577W        W21838   4.856  11.216   3.367 -0.0747 -0.0476 -0.0474
 5578W        W21839  15.734  17.440  14.020  0.0868 -0.5138 -0.1854
 5579W        W21840   4.814   8.907  12.748 -0.0399  0.0728 -0.2072
 5580W        W21841   1.938  16.884  13.947  0.0191 -0.0262  0.1457
 5581W        W21842   4.561   5.545  13.920 -0.2015 -0.1540 -0.1932
 5582W        W21843   1.637   1.479   4.088  0.1920 -0.1951  0.0042
 5583W        W21844  12.259   8.845  16.305 -0.1572  0.0817  0.0673
 5584W        W21845  13.001  12.173   0.859 -0.0689  0.1147  0.3367
 5585W        W21846   9.240   5.045   0.825 -0.2816  0.1901  0.1034
 5586W        W21847  12.332  14.058   1.511  0.0324  0.1998 -0.2129
 5587W        W21848   4.531   8.595   2.218  0.1796 -0.1299  0.0308
 5588W        W21849   7.216   3.607  16.831  0.0691 -0.1051 -0.1520
 5589W        W21850   9.586   3.016   4.691  0.1016  0.1230 -0.0376
 5590W        W21851  14.730   6.046  14.567 -0.1763 -0.3073 -0.4055
 5591W        W21852   1.218  12.030  16.742 -0.1597 -0.1116  0.1467
 5592W        W21853   0.173   0.022  12.643  0.2649 -0.0203 -0.0324
 5593W        W21854  10.490   6.022  12.918 -0.3946 -0.0162  0.0363
 5594W        W21855  14.416   9.885  12.683  0.0180 -0.0195  0.1941
 5595W        W21856   6.863   7.235  16.100 -0.1308 -0.1385 -0.0293
 5596W        W21857  11.985  15.247   4.450 -0.0145  0.1689 -0.2492
 5597W        W21858  12.962   7.735   2.984  0.0042 -0.1244 -0.1352
 5598W        W21859   5.129  13.514  14.129  0.3660  0.2884 -0.0170
 5599W        W21860   2.474  12.056   2.534  0.1769 -0.2895  0.0453
 5600W        W21861   7.763  11.919   6.132 -0.1779 -0.0723  0.3748
 5601W        W21862   8.872   3.805  15.953 -0.1122 -0.0752  0.3535
 5602W        W21863  13.733  16.342  16.121  0.2070  0.3701  0.0797
 5603W        W21864   8.869   9.376  15.773  0.0585 -0.1240  0.1036
 5604W        W21865   3.280   8.184   0.345  0.3478 -0.2208 -0.4407
 5605W        W21866   4.462  14.061  13.776  0.1547 -0.0838 -0.2910
 5606W        W21867   6.052   0.778  16.840 -0.0915 -0.0829 -0.0669
 5607W        W21868   9.130   4.452   3.661  0.0630  0.2555 -0.0167
 5608W        W21869   1.454   9.687  15.094 -0.2325 -0.2813 -0.1271
 5609W        W21870  15.388   1.476  12.374  0.0855  0.0037  0.3558
 5610W        W21871   9.826  15.753   0.316 -0.0323  0.2069  0.2321
 5611W        W21872   2.324   7.109  12.024  0.1219 -0.0854 -0.1044
 5612W        W21873  13.434   3.146   2.788 -0.0204 -0.2608  0.0254
 5613W        W21874   8.443   3.531  15.775  0.2153 -0.0593  0.0843
 5614W        W21875   2.761   9.580   5.564  0.2027 -0.1218  0.0592
 5615W        W21876   4.779  13.856   2.100  0.2364  0.0936  0.0901
 5616W        W21877   3.204   2.767  14.803  0.1125  0.2530  0.1805
 5617W        W21878  14.607   2.391   3.818 -0.0391 -0.1223 -0.2615
 5618W        W21879   5.977  15.000  16.147 -0.1755 -0.0099  0.1298
 5619W        W21880  13.155   5.613   0.688  0.1120  0.2078 -0.0178
 5620W        W21881   4.999  16.255  15.884 -0.1130  0.0134 -0.6484
 5621W        W21882  15.083  10.154  13.089 -0.2972  0.0957  0.1349
 5622W        W21883  10.329   1.612  13.207  0.0251 -0.1447  0.0244
 5623W        W21884  17.756   3.084   0.489 -0.1755 -0.1506  0.1414
 5624W        W21885   7.446   2.963   3.801 -0.3339  0.1053 -0.0586
 5625W        W21886   2.615  10.081   5.496 -0.0413  0.3069  0.2588
 5626W        W21887  15.719   8.718   3.680 -0.0747  0.2338 -0.1661
 5627W        W21888   9.161  17.047   4.008 -0.0890  0.0543 -0.1447
 5628W        W21889  15.805   5.934   3.785  0.0463 -0.1942 -0.0719
 5629W        W21890  12.551   3.891   0.278 -0.2173  0.0133 -0.1527
 5630W        W21891   8.245  12.502  15.513  0.1635  0.2434  0.3732
 5631W        W21892   0.130   4.572   1.834  0.1567  0.1148  0.1402
 5632W        W21893   3.007  11.705   2.461 -0.2516 -0.1952  0.0424
 5633W        W21894   7.386   0.381  11.792 -0.1516 -0.2760  0.2362
 5634W        W21895   9.519   7.969   6.029 -0.0499  0.4594  0.0844
 5635W        W21896   9.184  13.010  16.881  0.3753  0.1648 -0.4310
 5636W        W21897   8.416   6.149  14.269  0.0280  0.0496  0.0655
 5637W        W21898  16.910  13.900  14.337  0.1251 -0.0321 -0.1589
 5638W        W21899   3.964   9.158  14.322 -0.1039 -0.2966 -0.1182
 5639W        W21900  16.698  11.249  16.241 -0.2770 -0.2176 -0.2118
 5640W        W21901   0.330  13.950   0.895  0.2190 -0.0202 -0.0142
 5641W        W21902  12.183   7.762  14.185  0.0437  0.0242  0.2240
 5642W        W21903   1.359  13.079   3.383  0.3994 -0.2557  0.0585
 5643W        W21904   9.394  15.906  16.586 -0.1468  0.0120 -0.1784
 5644W        W21905  14.829   3.926  14.965  0.1116  0.0511 -0.1392
 5645W        W21906  12.555   2.312  11.637 -0.4166  0.1414 -0.1466
 5646W        W21907   1.053   4.977   1.304  0.0933 -0.1815  0.1890
 5647W        W21908   3.397   0.810  15.022  0.1937 -0.2968  0.1075
 5648W        W21909   0.410  10.435   5.280 -0.2333 -0.1485  0.1348
 5649W        W21910  11.532   2.943  13.022  0.3223 -0.2291 -0.2604
 5650W        W21911   3.163   1.284  12.019 -0.0170  0.0958  0.1441
 5651W        W21912   6.250   7.046  14.655  0.1694  0.0570 -0.0849
 5652W        W21913   4.128   8.874   6.098  0.2267  0.0485  0.0479
 5653W        W21914   5.896  17.316  13.126  0.2809  0.0628 -0.2056
 5654W        W21915  16.799   9.215  13.978 -0.5818  0.2702 -0.2154
 5655W        W21916   3.659  10.669   2.148 -0.0510 -0.2234  0.0851
 5656W        W21917   5.783  10.007  16.326 -0.1460  0.2461 -0.0026
 5657W        W21918   0.475  12.172  16.017 -0.1239  0.0201  0.0265
 5658W        W21919   4.346  12.687   3.804 -0.2196 -0.1323 -0.3125
 5659W        W21920   4.144  10.010   2.614  0.0454  0.0391  0.3524
 5660W        W21921  13.328  14.927  12.614 -0.2164 -0.0207  0.3589
 5661W        W21922   4.787  17.583   4.813  0.0752  0.0541  0.0526
 5662W        W21923   3.810   2.108  16.012 -0.0364 -0.1927  0.0529
 5663W        W21924   0.776  13.154   3.847 -0.0760  0.1877 -0.0991
 5664W        W21925   8.166  12.385  13.284 -0.1099  0.1594 -0.0780
 5665W        W21926  16.124  10.180  13.947 -0.1203  0.1407 -0.0374
 5666W        W21927  10.153   0.632   5.209 -0.1858 -0.0228  0.2466
 5667W        W21928  17.777   3.230  13.068 -0.0912  0.1590 -0.1740
 5668W        W21929  13.090  12.365  16.451 -0.2320  0.0682 -0.2106
 5669W        W21930   8.547  10.115   3.342  0.0770  0.1341  0.1377
 5670W        W21931  10.062   0.281  14.438  0.1188 -0.0886 -0.0545
 5671W        W21932   7.086  17.713  16.934 -0.2527  0.0568  0.3453
 5672W        W21933  17.700   6.014   4.544  0.0104  0.1446  0.3049
 5673W        W21934   9.106  17.540   3.756  0.0837 -0.1376 -0.0751
 5674W        W21935  13.654  10.069   4.255  0.0485  0.3247  0.1178
 5675W        W21936   4.921  15.787   1.211 -0.1525  0.0015  0.1253
 5676W        W21937  11.179   8.855   1.720 -0.1041  0.2573 -0.1181
 5677W        W21938  13.665  15.002  15.256 -0.0928  0.2885  0.0321
 5678W        W21939   3.545  17.754   2.579  0.1417  0.2245 -0.1614
 5679W        W21940   9.983   1.633   5.208 -0.2953 -0.1779  0.0191
 5680W        W21941   0.964   0.227  13.470 -0.1639  0.0518 -0.1572
 5681W        W21942   7.217   5.833  12.665  0.2825 -0.1572 -0.1530
 5682W        W21943   1.760   8.822  14.367 -0.3341 -0.1361  0.0657
 5683W        W21944  11.988  17.273  16.255  0.1716 -0.0514  0.0853
 5684W        W21945  10.709   8.189   5.310 -0.0691  0.1249 -0.1371
 5685W        W21946   3.451  16.050   3.159 -0.1891 -0.1086  0.0233
 5686W        W21947  10.423  15.895  12.070 -0.0141  0.1708  0.0730
 5687W        W21948  11.782  12.548  16.922  0.1751 -0.1228 -0.0416
 5688W        W21949  13.838  13.626   3.243 -0.1964 -0.2597 -0.0801
 5689W        W21950   8.018  14.822   3.710 -0.0711 -0.0671  0.1457
 5690W        W21951   2.823  10.022   0.608 -0.1228 -0.0050 -0.1242
 5691W        W21952   4.788   9.398   1.951  0.1787  0.1867 -0.3138
 5692W        W21953   3.211   1.108   4.482  0.4738 -0.0645  0.0280
 5693W        W21954  14.659  17.249   5.780 -0.2939  0.1457 -0.2027
 5694W        W21955   8.517   1.206  11.824 -0.3671  0.0355  0.1559
 5695W        W21956   9.299   1.851  14.918 -0.1947 -0.0811 -0.2199
 5696W        W21957  13.588  10.085   3.252 -0.0974  0.1939 -0.0059
 5697W        W21958   8.958   5.136  12.583 -0.3019  0.0613  0.0265
 5698W        W21959  11.968   3.803  15.247  0.0814 -0.0646 -0.2257
 5699W        W21960   5.613   9.536   1.962 -0.2866 -0.0479  0.1963
 5700W        W21961   2.782   5.872   2.659  0.1622  0.0345  0.0218
 5701W        W21962  17.252   1.294  14.522 -0.0091 -0.1302 -0.2526
 5702W        W21963  16.259   1.632  16.791  0.0789  0.1673  0.1429
 5703W        W21964   7.818  14.223   5.817 -0.0835 -0.5468 -0.2021
 5704W        W21965   3.068  10.890   0.732 -0.0393  0.3944 -0.1651
 5705W        W21966  14.738   7.923  14.194 -0.0670  0.2344  0.1180
 5706W        W21967  17.686   7.535   1.534  0.1308  0.2965  0.2149
 5707W        W21968  15.611  13.854   3.149  0.0295 -0.1719  0.0746
 5708W        W21969  16.289   5.328  11.740 -0.1540  0.2372 -0.1403
 5709W        W21970   0.437   7.815   5.135 -0.2574  0.1014  0.3246
 5710W        W21971   1.624  13.924  13.017  0.0077  0.1154  0.0681
 5711W        W21972   1.078   0.866  16.419 -0.0924  0.0955  0.1578
 5712W        W21973   6.724  10.339   3.609  0.0691  0.0632  0.1772
 5713W        W21974  14.720   1.094   4.881 -0.2428  0.0904  0.2141
 5714W        W21975  16.589  11.216  12.877  0.1244  0.3031 -0.0063
 5715W        W21976   1.751  13.394   1.010 -0.0339  0.2571 -0.0636
 5716W        W21977  12.189   9.500   1.135  0.0959 -0.5066  0.1149
 5717W        W21978   0.931  13.494   5.190 -0.1663 -0.0069  0.1190
 5718W        W21979   2.865   0.137  12.318  0.1402  0.1387  0.1336
 5719W        W21980   9.542   7.218  13.979  0.2490  0.1148  0.0890
 5720W        W21981   0.211  13.312  15.859  0.1534 -0.0217 -0.0375
 5721W        W21982  12.783  14.372   2.259  0.0253 -0.1299 -0.2097
 5722W        W21983   2.850   3.334  14.209 -0.0076  0.0723 -0.1514
 5723W        W21984  13.711   8.367  12.441 -0.1197 -0.2104 -0.0072
 5724W        W21985  17.470   2.094  15.906  0.1715 -0.0557  0.1146
 5725W        W21986   1.892  15.023   4.469  0.1598  0.1070  0.1928
 5726W        W21987   3.479  10.966   0.482  0.0033 -0.1930 -0.2607
 5727W        W21988  10.554  13.825  12.167  0.1468 -0.0423 -0.0339
 5728W        W21989  12.492   9.867   2.060  0.1027 -0.1599 -0.1617
 5729W        W21990   3.694   6.917   0.122  0.0185  0.3553  0.1925
 5730W        W21991  12.525  13.357   2.277 -0.0534  0.3243 -0.1122
 5731W        W21992  11.483  14.189   3.628  0.0919 -0.0084  0.1580
 5732W        W21993   6.320   3.309  14.776  0.3188 -0.2171 -0.0253
 5733W        W21994  17.419  12.261  14.640 -0.2981 -0.1388 -0.1884
 5734W        W21995  17.182  16.052   4.017  0.0925 -0.2621 -0.0801
 5735W        W21996  14.263  11.170   1.232 -0.2182  0.1328 -0.1321
 5736W        W21997   2.744   4.418   1.581  0.1579 -0.0217 -0.0816
 5737W        W21998   1.246  15.215   3.552  0.1058  0.0765  0.1423
 5738W        W21999  12.714   3.918  15.236 -0.2611 -0.5217  0.2330
 5739W        W22000   2.362   1.102  16.157 -0.0237  0.0892  0.0309
 5740W        W22001  12.468   2.433  15.538 -0.0674  0.0222 -0.2829
 5741W        W22002  13.704   4.836   3.753  0.0911 -0.4705  0.0169
 5742W        W22003   3.217   4.669   4.880  0.0557 -0.1407  0.3622
 5743W        W22004  12.064   4.870  15.584 -0.0171  0.1254 -0.1286
 5744W        W22005   9.619  10.300  13.576 -0.0833 -0.0847  0.1392
 5745W        W22006  10.388   1.659  12.620 -0.3243  0.1063 -0.0577
 5746W        W22007   3.055   1.947  15.289  0.0876 -0.0086  0.2575
 5747W        W22008  17.649   2.603   0.143 -0.0250  0.0854  0.2039
 5748W        W22009   7.541   5.257   3.322 -0.2207 -0.3397 -0.2850
 5749W        W22010   8.619   0.355  11.593 -0.2285 -0.1906 -0.2473
 5750W        W22011   1.528  15.762  14.695  0.0175  0.0108  0.1244
 5751W        W22012   1.318  12.147   4.481 -0.2004 -0.0083  0.0243
 5752W        W22013   5.936   4.143   3.673  0.1572 -0.1340  0.0243
 5753W        W22014   0.260   8.975  14.365  0.2241 -0.4032 -0.0403
 5754W        W22015   6.102  12.553   4.313 -0.2529 -0.2901 -0.4120
 5755W        W22016   8.138  17.639  13.879  0.0026 -0.2284 -0.0255
 5756W        W22017  11.007   6.379  16.093 -0.0832 -0.0840 -0.2808
 5757W        W22018   7.157  13.701  11.346  0.2341  0.3144  0.1217
 5758W        W22019  16.242  10.977  16.332 -0.2543 -0.0925  0.3233
 5759W        W22020  15.921   6.376   3.991 -0.1661  0.1826 -0.0633
 5760W        W22021  10.767   0.627  12.175  0.1118  0.1395  0.1886
 5761W        W22022  11.390   6.131  14.557 -0.4419 -0.0812  0.3180
 5762W        W22023  12.202  17.767  14.444 -0.1176 -0.2151 -0.0478
 5763W        W22024  17.563  16.756   4.749 -0.1239 -0.1709 -0.1678
 5764W        W22025   0.848  11.628   1.982 -0.0096 -0.0497  0.0161
 5765W        W22026   8.195  15.503   2.853  0.0197  0.1807 -0.2400
 5766W        W22027  13.587   1.447   3.316  0.0354 -0.2015 -0.1185
 5767W        W22028   1.056   6.167  13.817 -0.1168 -0.2648 -0.2364
 5768W        W22029  10.016  16.821  11.944 -0.1323 -0.2184 -0.3350
 5769W        W22030   0.878  10.206   4.000 -0.1223  0.3434 -0.3403
 5770W        W22031  11.230  17.816  12.801 -0.0021  0.1332 -0.2169
 5771W        W22032   1.843   6.360   0.039 -0.0832  0.1884 -0.0527
 5772W        W22033  16.350   3.267   3.556  0.1898  0.0457 -0.0877
 5773W        W22034   2.306  11.712   1.032 -0.0748 -0.0281  0.0381
 5774W        W22035   0.551   5.449   5.917 -0.1369  0.3740 -0.2026
 5775W        W22036  12.845   2.561   2.893 -0.1941 -0.1039  0.0492
 5776W        W22037   9.500   7.095   3.188  0.2113  0.4077 -0.0319
 5777W        W22038   0.610  17.327   5.600 -0.0409  0.0378 -0.1232
 5778W        W22039  11.462   8.565   3.805  0.2271 -0.0692  0.0610
 5779W        W22040   6.845   6.906  16.970 -0.2943 -0.1068 -0.0943
 5780W        W22041   8.510  12.411  12.854  0.0996 -0.0388  0.1958
 5781W        W22042  12.625   7.748  16.361 -0.1702  0.0364  0.0219
 5782W        W22043   4.281  10.236  15.188  0.0484  0.4436 -0.3593
 5783W        W22044   7.971   4.381   4.785  0.0223 -0.1244 -0.1312
 5784W        W22045   3.405  13.214  15.108  0.1947 -0.0789  0.1477
 5785W        W22046   4.582   1.094   4.538 -0.2869  0.1006  0.1402
 5786W        W22047   4.040  12.313   3.874  0.1528 -0.2086 -0.1113
 5787W        W22048   4.118  15.334  14.908 -0.4157 -0.2963 -0.1355
 5788W        W22049   1.200  14.955   5.123  0.2760 -0.0743 -0.2544
 5789W        W22050  15.703   9.716   2.536 -0.1484  0.0155  0.0426
 5790W        W22051   9.364  13.582   1.162  0.1952  0.3537  0.0174
 5791W        W22052  15.874  17.471   1.387  0.1131  0.2954 -0.2378
 5792W        W22053   4.121  13.457   5.020 -0.1398 -0.0930  0.1822
 5793W        W22054  11.360  17.360  14.606  0.3285 -0.0517 -0.0020
 5794W        W22055  12.641  13.217  15.351 -0.0695  0.2935 -0.0586
 5795W        W22056  17.515   8.650   4.137 -0.0772 -0.1954 -0.0595
 5796W        W22057   9.740  12.943  14.098  0.0769 -0.2168 -0.0260
 5797W        W22058  16.355  15.416  12.653  0.1343 -0.0055  0.0196
 5798W        W22059  13.946  13.993   0.374  0.2708  0.0937  0.0515
 5799W        W22060   2.264   9.389  16.047 -0.2318 -0.4039  0.0353
 5800W        W22061   7.494   5.525   4.717  0.0391 -0.1928  0.2112
 5801W        W22062   1.675   2.396  13.052  0.0789  0.0879  0.3801
 5802W        W22063  10.882   7.213  16.809  0.3399 -0.1365  0.2204
 5803W        W22064   9.412   9.504  14.639 -0.0493 -0.0036  0.0505
 5804W        W22065   5.737   8.164   3.564 -0.1815 -0.1582  0.2121
 5805W        W22066   4.695  15.645   2.850  0.0533  0.2766 -0.1442
 5806W        W22067   1.963  11.960   5.017  0.1970  0.1523  0.0115
 5807W        W22068  16.840  13.756   2.883 -0.2507  0.0101  0.1687
 5808W        W22069   6.133   6.377  14.055 -0.2184  0.0898  0.2470
 5809W        W22070   2.590  14.026  12.019 -0.2192  0.1248  0.0965
 5810W        W22071   3.925  17.748   4.372  0.0506  0.0497  0.0942
 5811W        W22072   7.120   2.636   3.526 -0.1705 -0.2279  0.2223
 5812W        W22073  12.982   9.875  14.054  0.1067 -0.0611  0.1350
 5813W        W22074   5.201  15.483  12.081 -0.2370  0.3226 -0.0797
 5814W        W22075  12.860   9.068  15.225 -0.0716  0.0521  0.2192
 5815W        W22076  14.787  15.451  11.811  0.1680  0.1523 -0.0202
 5816W        W22077  12.726   0.157   4.991  0.0238  0.0544 -0.0061
 5817W        W22078   0.807   9.494  14.468  0.2686 -0.3148  0.2908
 5818W        W22079  12.110  14.894   2.564 -0.0827 -0.3677 -0.3513
 5819W        W22080  12.324  13.346   2.743 -0.4871 -0.0883 -0.1848
 5820W        W22081   1.311   4.859  15.297  0.4127 -0.1110  0.0105
 5821W        W22082   6.454  17.360   6.191  0.1415 -0.0120  0.0233
 5822W        W22083   9.681   5.743   4.485  0.3406  0.0086  0.1551
 5823W        W22084  14.959   7.864   5.517 -0.1407 -0.1971 -0.1101
 5824W        W22085  17.398  13.764  16.372 -0.1705 -0.3420 -0.0070
 5825W        W22086   1.119  17.380  13.900  0.0181 -0.1836 -0.1676
 5826W        W22087   4.201  10.734  15.134  0.0458  0.3868  0.0345
 5827W        W22088  10.942  15.229  14.137 -0.0274  0.0382 -0.0831
 5828W        W22089  11.453  11.468   0.588 -0.1389  0.1560 -0.0025
 5829W        W22090   6.334  11.382   1.047 -0.1344 -0.3152 -0.1473
 5830W        W22091  10.496  13.289   0.651 -0.0313  0.2440  0.1348
 5831W        W22092  12.282   1.020  15.313  0.1658 -0.0874 -0.0931
 5832W        W22093   7.057   0.907   1.481  0.2623  0.0309 -0.0196
 5833W        W22094  14.086   4.608   4.271  0.1190 -0.0071 -0.3703
 5834W        W22095  14.810  16.608   2.949 -0.2361 -0.1901  0.0465
 5835W        W22096   4.972  14.890  12.931 -0.4971  0.5082 -0.0123
 5836W        W22097   5.030   0.062   1.573  0.1202  0.0003  0.2701
 5837W        W22098  14.224   5.274   2.707 -0.0560  0.1280  0.1604
 5838W        W22099  13.049   2.376   1.211  0.0260  0.1918  0.1178
 5839W        W22100  11.675  14.018   6.045  0.0266  0.1571  0.1423
 5840W        W22101  12.831  12.738  15.080 -0.0661  0.0627  0.0592
 5841W        W22102   3.234   1.626   3.111  0.1366  0.0019  0.0201
 5842W        W22103  12.476   3.175  14.422  0.3416 -0.1580 -0.0675
 5843W        W22104   4.760   1.014  13.748 -0.2976 -0.0177  0.2597
 5844W        W22105   9.982   5.660  13.403 -0.0456 -0.1410  0.1097
 5845W        W22106   9.784   3.105  14.407  0.1766  0.3206 -0.1099
 5846W        W22107   4.304   8.084   5.853  0.1374 -0.2269 -0.1081
 5847W        W22108  10.287   8.361   2.037  0.1257 -0.2112 -0.2279
 5848W        W22109   0.991  14.845   3.237  0.1093 -0.2087 -0.2954
 5849W        W22110  14.905   6.606  11.666  0.2128 -0.1600 -0.0375
 5850W        W22111  17.497  17.189  12.349 -0.2646 -0.0758  0.1296
 5851W        W22112  15.650  12.470  12.811 -0.1649 -0.0383 -0.0507
 5852W        W22113   4.027   8.419  11.940 -0.1697 -0.2393 -0.0701
 5853W        W22114   8.818   8.352  14.717 -0.4344  0.0821 -0.0627
 5854W        W22115   8.950  17.176  13.931  0.1252 -0.1611 -0.1183
 5855W        W22116   6.804  12.207  11.824 -0.0340 -0.2588  0.0573
 5856W        W22117   2.778   5.361   5.935 -0.0380  0.1374  0.4046
 5857W        W22118   9.893  12.014  13.975 -0.1124  0.0659 -0.0924
 5858W        W22119   6.472   7.457  14.450  0.2649 -0.2955  0.0096
 5859W        W22120   5.559  14.895   2.596 -0.0491 -0.3391 -0.0259
 5860W        W22121  16.546  15.291   1.125 -0.3246  0.3923 -0.3220
 5861W        W22122   2.730   4.004   5.531 -0.3235 -0.0614 -0.0770
 5862W        W22123  16.845  13.490  11.638 -0.0522  0.1404  0.0034
 5863W        W22124  11.172   6.662  14.703  0.2061 -0.1019  0.1355
 5864W        W22125   9.626  17.809   3.778  0.0707 -0.1665  0.0535
 5865W        W22126   3.708  11.168  13.221 -0.3816 -0.1202 -0.2434
 5866W        W22127  16.330   9.396  13.431  0.1420  0.3158 -0.0343
 5867W        W22128  15.829  10.620  16.124  0.1865  0.2456 -0.0633
 5868W        W22129  15.932   3.476  11.788  0.0378 -0.1179 -0.1937
 5869W        W22130   2.659   0.931   0.643  0.2027 -0.2038 -0.1332
 5870W        W22131  16.092   2.268   6.199  0.0605  0.0132  0.1980
 5871W        W22132  12.363  15.343   4.167  0.1113 -0.0451 -0.1136
 5872W        W22133  15.462   6.588   5.541 -0.3290  0.0739 -0.0040
 5873W        W22134   6.874   3.839  14.037  0.1182  0.0655 -0.2414
 5874W        W22135   6.843  12.425  16.161 -0.1838  0.1103 -0.0171
 5875W        W22136   9.376  14.470  13.555 -0.0640 -0.1892  0.1269
 5876W        W22137   4.744  15.612  12.821 -0.0386 -0.0001 -0.3862
 5877W        W22138  13.294  15.135  14.516  0.0923 -0.1215  0.3005
 5878W        W22139  11.849  13.806   1.306 -0.1233  0.1737 -0.2431
 5879W        W22140  11.283   9.187  13.416 -0.1761 -0.1277  0.3145
 5880W        W22141   0.570   2.795   1.947  0.1271  0.2833 -0.1598
 5881W        W22142  10.208   4.229  14.619 -0.2887  0.0264 -0.1640
 5882W        W22143  16.042  15.889  12.939  0.0989 -0.1891  0.3479
 5883W        W22144  15.614   2.392   5.012  0.1248 -0.4293 -0.1065
 5884W        W22145  13.292   1.810   5.395 -0.2935 -0.1155 -0.2009
 5885W        W22146   8.133  12.236   3.358  0.1327 -0.0207  0.1513
 5886W        W22147   4.760   1.970  11.960 -0.3639 -0.1812 -0.1211
 5887W        W22148   1.826  11.535   1.977 -0.0781 -0.1024  0.3841
 5888W        W22149   6.839   7.725  16.811  0.4126  0.0859  0.1669
 5889W        W22150   6.538   9.636  13.632  0.5215 -0.2545  0.3654
 5890W        W22151  10.672  10.130   3.195 -0.2300 -0.3081  0.1517
 5891W        W22152   8.116   2.311  12.453  0.0510 -0.0131  0.0260
 5892W        W22153   0.645  17.330  16.574  0.1254 -0.0435 -0.0844
 5893W        W22154   3.235  12.806   1.490 -0.1290  0.0464  0.2766
 5894W        W22155  10.904  16.161   5.688  0.0154 -0.1161 -0.0187
 5895W        W22156   3.642   9.464  13.956  0.0927  0.1797 -0.1683
 5896W        W22157   1.749   5.523   1.553 -0.1385 -0.1265  0.1114
 5897W        W22158  13.370  17.083  12.587  0.1218  0.0004 -0.1930
 5898W        W22159   0.045  12.056  14.598  0.0016  0.3154  0.2990
 5899W        W22160  13.744   1.895   0.163  0.0816  0.0008 -0.1551
 5900W        W22161  15.331  12.479  16.447  0.0341 -0.1637  0.0658
 5901W        W22162   1.399   1.129  12.503  0.1433  0.1945 -0.4127
 5902W        W22163  16.250  15.077  16.729 -0.0331  0.0357  0.2409
 5903W        W22164   1.687   7.328  13.084  0.0152  0.3870 -0.0428
 5904W        W22165   5.826   2.938   2.604 -0.3061 -0.0232  0.2402
 5905W        W22166   4.602  14.846  12.229  0.2103  0.0173  0.0649
 5906W        W22167   9.920   0.515   0.392 -0.0343  0.0982  0.0348
 5907W        W22168  11.399   2.321  12.410 -0.2262  0.1227  0.3200
 5908W        W22169   8.927  10.892   4.536  0.2695 -0.1976 -0.1061
 5909W        W22170   3.128  14.333  12.855  0.1983 -0.0256  0.0656
 5910W        W22171   6.609   4.026  16.315 -0.2599  0.0600 -0.0900
 5911W        W22172   1.839  10.207   4.276 -0.0111 -0.2765 -0.0550
 5912W        W22173  14.568  15.081   5.289 -0.0107  0.0946  0.1998
 5913W        W22174   2.680  17.589   5.854 -0.2573  0.0820  0.1561
 5914W        W22175   1.673   7.840  12.082  0.0061  0.1627  0.1583
 5915W        W22176   4.086   4.288  13.545  0.3888  0.3400 -0.0805
 5916W        W22177   8.115   7.563   2.916  0.0577 -0.0645 -0.1984
 5917W        W22178  11.235   1.019   3.584 -0.1446  0.0697 -0.1898
 5918W        W22179   8.544  12.619  11.568  0.2318 -0.0890  0.1020
 5919W        W22180  15.518  15.298   1.445 -0.4165  0.2032  0.0298
 5920W        W22181  16.290   9.324  16.544  0.3442 -0.1379  0.1206
 5921W        W22182  11.219   3.633  12.392 -0.2164  0.0301 -0.1407
 5922W        W22183   1.935  10.218   4.868 -0.3463 -0.0079  0.1824
 5923W        W22184   9.454  12.598  16.599 -0.0461 -0.1522 -0.1818
 5924W        W22185   1.959   1.202  12.501  0.0098  0.2599  0.3115
 5925W        W22186   0.446   9.454  15.616  0.2438  0.1507  0.1777
 5926W        W22187   8.612   5.596  13.187  0.2721  0.2519  0.0616
 5927W        W22188   9.980  14.075   5.486  0.0743  0.1140 -0.0259
 5928W        W22189  10.051   5.823  11.976 -0.0715  0.2301 -0.1324
 5929W        W22190  14.752  10.782   2.053  0.1905 -0.1739 -0.0778
 5930W        W22191  16.383   8.378   1.449 -0.1171 -0.2163  0.1645
 5931W        W22192  15.134  15.469   1.114 -0.0489 -0.1049  0.2354
 5932W        W22193   3.640  16.151  12.382  0.0283  0.0214  0.1302
 5933W        W22194   3.005   6.003   1.105  0.4073  0.1942 -0.2225
 5934W        W22195   1.206   6.408   3.543 -0.3562  0.0271  0.0227
 5935W        W22196  12.933   8.013   1.256  0.1097 -0.1050  0.0487
 5936W        W22197   5.079   5.634  13.598 -0.0623  0.0351  0.3287
 5937W        W22198  17.375   2.714  15.079  0.0461 -0.1863  0.1907
 5938W        W22199   0.213  16.368   5.075  0.1902 -0.1678 -0.0357
 5939W        W22200   6.579   6.233  13.840  0.3030  0.1709  0.0200
 5940W        W22201   4.596  15.324  12.125 -0.3839 -0.2148 -0.4123
 5941W        W22202  11.057  12.949   2.855 -0.0154  0.4191 -0.4266
 5942W        W22203   2.487  17.081   1.642 -0.2713 -0.1647 -0.0190
 5943W        W22204  17.753   6.006   2.215 -0.2248  0.0753 -0.4106
 5944W        W22205   4.425   1.169  13.382  0.3278  0.2647  0.2396
 5945W        W22206   4.306  11.842  15.884  0.0730 -0.1598  0.2685
 5946W        W22207  12.416  16.942  16.329 -0.0195 -0.2021  0.0602
 5947W        W22208   2.582  13.753  13.602  0.1401  0.2308 -0.1992
 5948W        W22209   1.625   4.973   1.684 -0.0489  0.0194  0.2192
 5949W        W22210   5.582  13.036   3.432 -0.2162  0.2868 -0.2863
 5950W        W22211  15.635   4.456  12.379 -0.2831  0.1255 -0.1115
 5951W        W22212  16.902   9.774   4.942  0.1384 -0.1563  0.2109
 5952W        W22213  14.473   8.840  16.149 -0.0668 -0.1191  0.2786
 5953W        W22214  13.161  10.227   4.990  0.0814  0.2918 -0.1895
 5954W        W22215  11.688  10.991  14.947  0.1428  0.2780 -0.3189
 5955W        W22216  15.551   0.608  12.382 -0.2099  0.0323 -0.4082
 5956W        W22217   5.168   7.974   2.544 -0.2920  0.0360  0.0992
 5957W        W22218   2.286  15.290  13.138  0.2191  0.0916 -0.0245
 5958W        W22219   0.357   1.490   1.830 -0.1607 -0.0092  0.0942
 5959W        W22220   2.041  11.387  12.896  0.0144  0.2784  0.0226
 5960W        W22221   6.901  15.558   1.614  0.1546  0.0728 -0.1236
 5961W        W22222  12.916  14.873   3.257  0.1092  0.1216 -0.2263
 5962W        W22223  10.061  13.889  12.981 -0.3071  0.2819 -0.1268
 5963W        W22224  10.156  11.808   3.539 -0.0552  0.1671 -0.1341
 5964W        W22225   4.369  16.082   3.857  0.0595 -0.0199 -0.0910
 5965W        W22226  11.810   0.970  10.710  0.1885 -0.0931  0.2765
 5966W        W22227  12.247  12.890   1.270 -0.1128  0.5444 -0.1545
 5967W        W22228  11.334  10.588   0.518  0.3573 -0.0763 -0.0164
 5968W        W22229  16.071   9.716  13.139  0.0186  0.0686  0.4240
 5969W        W22230  16.257   1.454  13.888 -0.0580  0.2557 -0.0216
 5970W        W22231  15.628  11.972  14.603 -0.1923 -0.1007 -0.0074
 5971W        W22232  16.528   9.669  16.831 -0.0491 -0.1196 -0.1401
 5972W        W22233  12.993  11.587   5.829  0.0741  0.2506 -0.1613
 5973W        W22234   6.657   8.592  16.602 -0.0559  0.0519  0.0378
 5974W        W22235   3.860   5.548  16.022  0.1580  0.1628 -0.0217
 5975W        W22236  12.066  14.984  15.780 -0.1581 -0.2016 -0.0540
 5976W        W22237   2.105   2.150   4.748 -0.2247 -0.0613  0.2950
 5977W        W22238  16.868   8.795   6.277 -0.2353 -0.1370  0.1076
 5978W        W22239  10.072  12.826  13.532  0.1846 -0.0224  0.0968
 5979W        W22240   8.539   9.018  15.555 -0.0430  0.1400  0.0415
 5980W        W22241   2.824  14.976   3.740  0.1507  0.0325  0.0653
 5981W        W22242  14.740   1.329   2.475 -0.1136  0.4406  0.0812
 5982W        W22243   5.061  17.348  16.254 -0.0134  0.4461  0.2916
 5983W        W22244   4.969  15.226  12.518 -0.1025  0.0604  0.1635
 5984W        W22245  16.698   0.242   4.764 -0.2064  0.2057  0.2676
 5985W        W22246  17.085   8.373  12.684 -0.0887  0.0772  0.4811
 5986W        W22247  15.972  12.677   0.310  0.0702 -0.2915 -0.2839
 5987W        W22248   5.837  14.240   2.540 -0.0128  0.2394  0.0429
 5988W        W22249   6.431   1.427  14.018 -0.1931  0.0217 -0.1436
 5989W        W22250   1.092   0.970   1.999  0.3580  0.3121  0.1134
 5990W        W22251  12.422  13.582   3.582  0.0173  0.0571 -0.1687
 5991W        W22252   0.011   6.454   4.189  0.1904 -0.0936 -0.0622
 5992W        W22253   8.000   7.281  15.401  0.0612  0.2045  0.0795
 5993W        W22254   5.931   9.905   4.106  0.0772  0.0871 -0.3360
 5994W        W22255   5.844   5.381   4.377  0.2951 -0.2273  0.1916
 5995W        W22256   1.250  12.886  16.243 -0.0438  0.1487  0.1059
 5996W        W22257   9.600  17.107  15.472 -0.0956  0.0853  0.0021
 5997W        W22258   8.466  17.553  15.668 -0.0725  0.0941  0.0268
 5998W        W22259  17.142  12.503   3.941 -0.0440 -0.2058 -0.2079
 5999W        W22260   2.157  17.550  11.797  0.1557  0.2068 -0.2674
 6000W        W22261   3.547  15.013   1.071  0.0957 -0.0296 -0.0792
 6001W        W22262   9.048  13.512   5.801  0.0016  0.0772 -0.1376
 6002W        W22263  13.329   5.171   3.522 -0.2308 -0.0770  0.0067
 6003W        W22264   8.032   5.533   1.070 -0.1602 -0.0078  0.0470
 6004W        W22265   3.462   0.258   3.721 -0.2894  0.2121 -0.0318
 6005W        W22266  14.172   8.827   3.659 -0.1076  0.0772 -0.0774
 6006W        W22267  15.154   7.440   5.211  0.2327  0.2725  0.1623
 6007W        W22268  11.623  11.829   3.206  0.0932 -0.2380 -0.0166
 6008W        W22269  13.921  10.913  16.342 -0.0785  0.0933  0.2544
 6009W        W22270   2.562   8.226  16.053  0.1270 -0.1529  0.1313
 6010W        W22271  14.917   7.792  15.667  0.0916 -0.0550  0.1007
 6011W        W22272   6.436   7.504  13.119 -0.1581 -0.1039 -0.3340
 6012W        W22273   6.530  10.501  12.077 -0.2375 -0.1628  0.3013
 6013W        W22274  12.493   8.904  13.346  0.1051  0.0431 -0.0801
 6014W        W22275  13.003   8.673  14.818  0.1090  0.2696 -0.3523
 6015W        W22276   0.221  15.919  14.378  0.1253  0.1093 -0.0146
 6016W        W22277   8.716  17.203   3.757  0.0165  0.1438 -0.0323
 6017W        W22278   0.401   1.128   0.786  0.1013  0.3054  0.2029
 6018W        W22279  13.292   6.464  13.326 -0.1101  0.0007  0.0268
 6019W        W22280  12.294   1.924   0.757  0.1833 -0.0278 -0.1810
 6020W        W22281   8.392   7.600  15.143 -0.0211  0.0534  0.2199
 6021W        W22282  16.039  17.306  15.564 -0.2996 -0.2015 -0.0540
 6022W        W22283   0.867   5.549  13.825 -0.1211 -0.1453  0.1645
 6023W        W22284   1.692  15.674   4.839  0.1684  0.0960  0.0944
 6024W        W22285   6.890  14.052   0.159  0.1889  0.0037 -0.1658
 6025W        W22286   4.615  15.602  14.710  0.1568 -0.2331  0.0242
 6026W        W22287   6.460   8.456   0.151  0.2175 -0.2902  0.0144
 6027W        W22288   6.023  13.904   4.332 -0.2327 -0.1567  0.1620
 6028W        W22289   7.203  10.132  13.830 -0.1717  0.1832 -0.1043
 6029W        W22290  12.305   3.843  16.182  0.0492 -0.5405  0.3376
 6030W        W22291   5.764   5.917   4.591  0.2078  0.2732 -0.0611
 6031W        W22292   1.280   0.629  13.343 -0.3405 -0.3121  0.3082
 6032W        W22293   4.553   2.971  14.569 -0.1891  0.4208 -0.2610
 6033W        W22294  15.933   5.086  14.119  0.1350  0.2331 -0.0190
 6034W        W22295  11.831   8.140  15.994  0.1517  0.2828  0.1725
 6035W        W22296   8.255   1.678  12.707 -0.2555  0.1986  0.1353
 6036W        W22297  11.949  15.720   2.871 -0.1488 -0.4132  0.0581
 6037W        W22298   9.855   4.040  12.931  0.1261  0.0777  0.0238
 6038W        W22299  11.037   4.010   1.890  0.0092 -0.0933 -0.4190
 6039W        W22300   4.297   4.162   2.224 -0.2082  0.3084  0.2288
 6040W        W22301  15.015  13.730   3.227 -0.0036 -0.0003  0.1828
 6041W        W22302   2.427  10.877  16.403 -0.2201 -0.0415  0.2120
 6042W        W22303   1.650   0.787  10.563  0.0462 -0.0496 -0.0965
 6043W        W22304  15.735   6.043  14.784  0.1948  0.1768 -0.0762
 6044W        W22305  11.588  14.237   0.537 -0.1547  0.2249 -0.2674
 6045W        W22306  16.528  13.053  16.490  0.0789  0.3191  0.0073
 6046W        W22307   6.001   1.041  13.358  0.0432  0.0518  0.0976
 6047W        W22308   8.627   0.988  14.331 -0.0484 -0.2599  0.0025
 6048W        W22309  12.008  11.400  14.899  0.3658  0.0811  0.4113
 6049W        W22310   3.289  12.198  11.619 -0.1836 -0.1338  0.0762
 6050W        W22311   4.528   5.086  16.782  0.0545 -0.0648 -0.1488
 6051W        W22312  10.549  12.444   0.487 -0.1189  0.0773  0.1883
 6052W        W22313  15.304  13.347   3.588  0.0798  0.0599 -0.1601
 6053W        W22314  10.093   7.440  15.831 -0.0805 -0.0437  0.2010
 6054W        W22315  10.732  11.950   3.734  0.0826  0.1329  0.1729
 6055W        W22316   7.466  17.230   2.368 -0.0069 -0.0880 -0.1253
 6056W        W22317   7.172   1.171  15.509  0.0166 -0.0276  0.0188
 6057W        W22318  12.835  10.567   0.876  0.0236 -0.1328 -0.1660
 6058W        W22319   4.303  14.859  11.664  0.0166 -0.0963  0.0360
 6059W        W22320   8.283   7.415   0.821 -0.2267 -0.0519 -0.2253
 6060W        W22321   3.518   3.488   0.402 -0.1616 -0.1466 -0.0150
 6061W        W22322   4.140   8.102  13.801  0.0404  0.2954 -0.0043
 6062W        W22323   4.978   5.016   2.928  0.0660 -0.1152 -0.0697
 6063W        W22324   0.538  15.736   2.988 -0.3243 -0.0024 -0.0113
 6064W        W22325   0.311   4.687  14.603  0.1541  0.0904  0.0781
 6065W        W22326   8.021  11.519  11.831  0.1626  0.0173  0.3201
 6066W        W22327   5.818   3.215   4.609 -0.0589 -0.3059  0.1918
 6067W        W22328   1.923  14.824   2.742  0.3906 -0.2156  0.1538
 6068W        W22329   0.734  13.348  16.702  0.0284  0.0757  0.0113
 6069W        W22330   8.789  13.907  16.795 -0.4918 -0.2986 -0.1090
 6070W        W22331  17.200  13.907   0.596  0.2347  0.2651  0.0845
 6071W        W22332   1.924   9.044  13.824  0.0738  0.0191 -0.0936
 6072W        W22333  10.887  17.003   4.219  0.0615 -0.2327  0.2653
 6073W        W22334   0.269   2.393   1.814 -0.1431 -0.0212  0.1635
 6074W        W22335  13.005   5.439  16.765  0.0239  0.2173 -0.2697
 6075W        W22336  13.918  11.085  12.108  0.1791 -0.2345 -0.1232
 6076W        W22337  17.171  15.003   0.092  0.1075 -0.2877 -0.0337
 6077W        W22338  14.244  13.471   6.099  0.1856  0.2850 -0.0564
 6078W        W22339  14.663  12.907  13.252 -0.0723  0.1979  0.0231
 6079W        W22340  13.677  16.914  13.036  0.1940 -0.1526 -0.0287
 6080W        W22341   7.412   7.563  13.183 -0.0425  0.0856  0.2959
 6081W        W22342  11.201   3.306   5.559 -0.0460 -0.0771  0.2630
 6082W        W22343  13.947   5.098   4.350  0.0463  0.1465 -0.1113
 6083W        W22344   2.876  14.745  15.991 -0.2670  0.0114  0.2160
 6084W        W22345   4.115   5.243   1.605  0.0705  0.2671  0.1931
 6085W        W22346  11.794  10.702  12.207 -0.0106 -0.0784 -0.0322
 6086W        W22347  14.073  16.202  16.463 -0.1072 -0.0638  0.0854
 6087W        W22348  10.744   6.717   0.702 -0.2665  0.0882  0.0545
 6088W        W22349   5.384   7.179   4.967 -0.2043  0.2729 -0.1854
 6089W        W22350  14.862   1.664  13.574  0.1104 -0.0274 -0.1455
 6090W        W22351  17.335   4.656   3.417  0.3303 -0.3904 -0.1490
 6091W        W22352  10.116   9.595   4.276 -0.1788  0.3882  0.1685
 6092W        W22353  11.412   0.082  16.188 -0.1695  0.1178 -0.1499
 6093W        W22354   7.127  11.508  16.029 -0.2943  0.2474  0.0405
 6094W        W22355   8.776  11.112   1.895 -0.2372  0.0220 -0.1383
 6095W        W22356   4.345   3.135   1.293  0.0092  0.0201 -0.0654
 6096W        W22357  13.183  10.223   4.500  0.2927  0.1357  0.2850
 6097W        W22358   4.474   8.890   1.443  0.0299 -0.2550  0.1603
 6098W        W22359   8.444   7.343   0.205  0.1529 -0.3478 -0.2729
 6099W        W22360   9.310  10.306  11.280 -0.0146  0.1887  0.0560
 6100W        W22361  10.012   7.148   5.734 -0.1038  0.5067 -0.2417
 6101W        W22362   9.374  17.116  12.984  0.1654  0.1780 -0.0792
 6102W        W22363  13.844  14.801  16.733  0.0978  0.2213  0.2142
 6103W        W22364   5.652  16.621  10.941  0.1613 -0.1494  0.1659
 6104W        W22365   4.834  13.438   5.055 -0.0935  0.0133 -0.2667
 6105W        W22366   2.990   2.848  12.775 -0.2655 -0.0683  0.0281
 6106W        W22367  13.180   6.093   0.718 -0.0020  0.0608 -0.0155
 6107W        W22368   1.127  14.242  16.351  0.0616 -0.1783 -0.0609
 6108W        W22369   8.829  13.533   3.654  0.0814  0.0083  0.0666
 6109W        W22370   0.729   1.859   3.822  0.0102  0.3047  0.0737
 6110W        W22371   9.715   8.394  15.448  0.0409  0.1190  0.0440
 6111W        W22372  11.713  16.462   2.699 -0.0800  0.1221  0.0809
 6112W        W22373  13.107   2.202  14.357  0.1293 -0.0979 -0.0091
 6113W        W22374   3.887   0.059  14.180  0.0898  0.2747  0.2930
 6114W        W22375  12.379   5.832   4.167 -0.3743 -0.2377 -0.0941
 6115W        W22376   6.158   5.590  11.902 -0.0603  0.1050 -0.0186
 6116W        W22377   2.143   5.554   0.712  0.0366  0.3079 -0.1150
 6117W        W22378   1.258   4.375  13.844  0.1400 -0.1112  0.0078
 6118W        W22379  13.998   6.993   5.384  0.0556 -0.0558 -0.1099
 6119W        W22380   9.978   1.609   2.379  0.0106 -0.0561  0.1217
 6120W        W22381  11.665  12.040  12.417  0.2425  0.0985 -0.0191
 6121W        W22382  13.733   3.009  13.465  0.0926 -0.0015 -0.1324
 6122W        W22383  15.998   3.153  16.897 -0.1410  0.0536 -0.1101
 6123W        W22384  16.886   3.655   5.902  0.0407  0.2226 -0.2880
 6124W        W22385   4.169   6.728   4.666  0.0969 -0.0272  0.4454
 6125W        W22386   4.844   6.534   2.554  0.0436 -0.0347  0.1977
 6126W        W22387  14.888  13.521   1.161  0.3124 -0.0589  0.1356
 6127W        W22388   2.041   8.964   5.644  0.1566  0.2581  0.1747
 6128W        W22389   9.311  12.420   2.288 -0.2712  0.0814  0.1807
 6129W        W22390  13.871  14.475  13.915 -0.0419  0.1619  0.1936
 6130W        W22391   0.357   1.848   0.030  0.1436 -0.1995  0.1542
 6131W        W22392   0.395  16.334  13.310 -0.0083 -0.1293 -0.0836
 6132W        W22393  15.575  13.375  13.198 -0.2988 -0.1656 -0.2954
 6133W        W22394   0.092  16.362   2.153  0.2641 -0.1465  0.0435
 6134W        W22395   6.004   6.881   2.743  0.0211  0.1952  0.1553
 6135W        W22396  13.038   1.193  16.501  0.2786  0.0020 -0.2918
 6136W        W22397   2.248   2.394  14.867  0.1345 -0.0673  0.1533
 6137W        W22398  10.071   7.191  11.200 -0.5160 -0.0704 -0.0432
 6138W        W22399   2.170  16.733   0.337  0.3142  0.1434 -0.1923
 6139W        W22400  13.938   9.953   0.451  0.0077  0.3015  0.1361
 6140W        W22401  14.972   7.389   0.519 -0.1361  0.0916 -0.1817
 6141W        W22402  15.511  16.745   4.098  0.0909 -0.0716  0.5804
 6142W        W22403   1.461   5.050   5.921  0.1244  0.0070 -0.4091
 6143W        W22404   7.571   5.827  16.665 -0.1400 -0.0937 -0.3071
 6144W        W22405  15.493  14.226  12.346  0.3273  0.0035  0.2260
 6145W        W22406  12.001   4.192  12.894 -0.0177 -0.0021 -0.0048
 6146W        W22407   2.074  15.009  12.296  0.0793  0.3019 -0.1642
 6147W        W22408   2.969  14.400   5.038  0.0722  0.3816 -0.3422
 6148W        W22409   2.374   4.401  12.701 -0.0397 -0.0495 -0.0306
 6149W        W22410   7.530   2.411   5.265  0.0671  0.1814  0.0299
 6150W        W22411  14.210   8.131   0.749  0.2068 -0.0228 -0.2794
 6151W        W22412  16.272   3.478   3.049 -0.0771 -0.0262 -0.0754
 6152W        W22413  16.326   4.322  16.354  0.0171 -0.0352 -0.1032
 6153W        W22414   8.354  12.613  13.724  0.3834  0.0519 -0.1792
 6154W        W22415   9.500  13.144  16.044  0.0406 -0.1160  0.2909
 6155W        W22416  13.116   8.713   0.445 -0.2532 -0.0282 -0.3252
 6156W        W22417  13.005  14.535  12.082 -0.0459  0.3568  0.1951
 6157W        W22418  15.322   2.301   1.362  0.0238  0.0642 -0.2348
 6158W        W22419   8.697   5.575   4.899  0.0145 -0.1635  0.1469
 6159W        W22420  14.324   7.799   2.457  0.2855 -0.3483 -0.1473
 6160W        W22421  15.974  11.095  15.528 -0.1221 -0.2688 -0.2886
 6161W        W22422   5.110   5.716  16.487  0.1985  0.2423 -0.1614
 6162W        W22423  13.243   0.410   1.308 -0.0013 -0.1579  0.1713
 6163W        W22424   2.408   6.464  13.330 -0.2445 -0.0416  0.0406
 6164W        W22425   0.320   6.992   1.558 -0.2607  0.0575  0.0078
 6165W        W22426   0.523  12.011   6.242  0.0310 -0.0444 -0.4100
 6166W        W22427   9.917  16.303  12.676  0.2900 -0.0053 -0.1379
 6167W        W22428   4.565   8.812  16.984 -0.2407  0.0948  0.0126
 6168W        W22429  15.941   0.561  14.194 -0.0036  0.1409  0.0167
 6169W        W22430  12.069   7.683  13.210  0.0322  0.0336 -0.3604
 6170W        W22431  12.735   3.996  16.727 -0.1470  0.0814  0.0831
 6171W        W22432   6.071  16.581   4.390  0.0632  0.0182  0.1980
 6172W        W22433   9.457   4.119   1.281  0.0451  0.0952  0.1250
 6173W        W22434  11.927   5.561   3.419 -0.1286 -0.1673  0.0731
 6174W        W22435  14.824   3.674   0.247 -0.1448  0.2851 -0.1450
 6175W        W22436   1.077  16.407   5.343 -0.3298 -0.0863  0.1684
 6176W        W22437   6.462   4.278   3.768  0.0670 -0.1306 -0.3741
 6177W        W22438  10.859  12.260  13.927 -0.2760  0.1387 -0.2663
 6178W        W22439   5.230   6.587  13.411  0.0734 -0.2148  0.0144
 6179W        W22440  14.934  15.480   1.561 -0.1425  0.2937 -0.2172
 6180W        W22441   5.939   3.669  14.790 -0.0521 -0.0417  0.0486
 6181W        W22442  12.953   3.865   1.448  0.2690 -0.1445  0.0708
 6182W        W22443   3.635   5.935  13.568 -0.0494 -0.1549  0.2836
 6183W        W22444   3.167  13.382   1.434 -0.0820 -0.5374  0.0782
 6184W        W22445   9.051  11.648  16.882 -0.4443 -0.0892  0.0218
 6185W        W22446   0.665   2.719   0.103  0.1803  0.2215 -0.2958
 6186W        W22447   4.726  14.160   6.783 -0.0386 -0.1466 -0.2670
 6187W        W22448   3.476   6.270   4.437 -0.1795  0.1949 -0.1475
 6188W        W22449   2.234   5.171  14.197  0.2155  0.0115  0.1925
 6189W        W22450  13.629   3.038  16.511  0.1077 -0.1238  0.0944
 6190W        W22451  17.367   3.496  14.470 -0.4196 -0.0098  0.1240
 6191W        W22452   2.070  15.362   6.192  0.2465  0.1408  0.0611
 6192W        W22453  13.697  17.844  15.156 -0.2536 -0.0271  0.3261
 6193W        W22454  15.463  14.218  14.729  0.0557  0.0297  0.2300
 6194W        W22455  16.422  14.271   2.045 -0.1277  0.0400  0.1288
 6195W        W22456  14.883   0.413   1.952 -0.0044  0.0014  0.1573
 6196W        W22457   0.945   9.422   4.043  0.0112  0.1486 -0.1487
 6197W        W22458  13.215  16.808   4.149 -0.3406  0.0596  0.0995
 6198W        W22459   2.733  16.057   5.791  0.1003  0.2580 -0.1964
 6199W        W22460   3.312  13.002   2.970 -0.2904 -0.3368  0.2425
 6200W        W22461   5.407  17.564   0.679 -0.1688 -0.2832  0.1688
 6201W        W22462   3.284  15.188   3.789  0.0600  0.0090  0.0773
 6202W        W22463   2.586   0.878  15.375 -0.1323 -0.0367 -0.2765
 6203W        W22464   4.387   2.465  16.663  0.1172 -0.0897  0.0811
 6204W        W22465   0.366   6.134   2.362  0.3440  0.2377  0.4183
 6205W        W22466   9.430  17.565  15.596 -0.1967 -0.0096  0.2681
 6206W        W22467  14.750  16.135  14.995 -0.2380  0.0870 -0.0876
 6207W        W22468  12.425   9.678   3.253 -0.0427  0.0700  0.3250
 6208W        W22469   9.022  14.637   3.631 -0.0422  0.1125  0.2707
 6209W        W22470  15.787  10.671   0.666 -0.1266  0.1273 -0.0884
 6210W        W22471   2.223   6.812  16.494 -0.0406 -0.2068 -0.0467
 6211W        W22472   5.453   3.177   3.295 -0.1625  0.0193 -0.0175
 6212W        W22473  16.686   7.796  15.358 -0.0808  0.1134  0.2236
 6213W        W22474  13.114  11.398  13.049  0.0836 -0.0471  0.0139
 6214W        W22475   0.145   3.364   1.453 -0.1616  0.5358  0.1228
 6215W        W22476  16.676   0.391  15.277  0.0279 -0.3217 -0.0879
 6216W        W22477   2.989   9.295   4.149 -0.0016 -0.0846  0.2614
 6217W        W22478   3.307  16.536   5.200 -0.0155 -0.2813  0.1152
 6218W        W22479   2.310  14.501  11.570 -0.0356 -0.2550  0.0162
 6219W        W22480   3.373  15.024  12.452 -0.2197 -0.1273 -0.0512
 6220W        W22481   9.368   9.906  13.745  0.3255 -0.0808  0.2061
 6221W        W22482  17.068  17.525   6.227 -0.3053 -0.2894 -0.1535
 6222W        W22483   7.378   5.217  16.853 -0.1246  0.1335  0.0719
 6223W        W22484   8.299   5.276  14.290 -0.1297  0.1485  0.2654
 6224W        W22485   5.143  10.060   1.551  0.0322 -0.0359 -0.1727
 6225W        W22486  12.369   6.056   2.796  0.1877 -0.3173  0.2691
 6226W        W22487  13.909   1.680   1.691 -0.1378 -0.4868  0.1377
 6227W        W22488  10.753  15.454  14.921  0.0619 -0.1187 -0.0165
 6228W        W22489  16.507  14.072  14.524  0.0010 -0.2547 -0.2717
 6229W        W22490   4.242   4.727  13.324 -0.1146  0.0814  0.1518
 6230W        W22491   2.418   4.801  15.807  0.2587 -0.0741  0.1013
 6231W        W22492  15.950  12.691  13.145  0.1739 -0.0048 -0.0261
 6232W        W22493  10.921   3.224  14.279 -0.0375  0.0358 -0.2952
 6233W        W22494   7.516   2.419   4.699 -0.0628 -0.0927 -0.2777
 6234W        W22495   4.410  15.070   2.187  0.0920 -0.0250  0.1578
 6235W        W22496  11.247  12.019   0.742 -0.1113 -0.2237 -0.0996
 6236W        W22497  10.735  10.923  13.371 -0.4095  0.1806  0.0261
 6237W        W22498  12.461  17.138   1.172  0.0614  0.1665 -0.2142
 6238W        W22499  11.584  11.006   1.680 -0.0872  0.1054  0.4670
 6239W        W22500   8.097  14.083   4.846 -0.0072  0.2167  0.0750
 6240W        W22501  13.775  10.164  14.998 -0.5177 -0.2276 -0.0646
 6241W        W22502   7.699   6.277  11.905 -0.1127 -0.1664 -0.0604
 6242W        W22503   1.252  12.479  12.690  0.3089  0.2645 -0.2051
 6243W        W22504  10.294   5.149  15.312 -0.2639  0.2152 -0.2009
 6244W        W22505  10.863  13.733   2.370  0.0196 -0.1172 -0.1513
 6245W        W22506   5.571  14.088   5.960 -0.0025  0.1307 -0.0604
 6246W        W22507   2.669   8.637  12.782  0.0503 -0.0693 -0.1775
 6247W        W22508  11.693  15.307  16.598  0.2941  0.1382 -0.0985
 6248W        W22509   5.487   9.133   3.361  0.2624 -0.0742  0.2601
 6249W        W22510  13.338  14.180  16.562  0.0125  0.0487 -0.1772
 6250W        W22511  13.374   7.630  16.156 -0.1663  0.1062 -0.1694
 6251W        W22512   3.018   5.051  13.838 -0.1345  0.1997 -0.3772
 6252W        W22513  11.223  13.761   1.099 -0.1532  0.0031 -0.0189
 6253W        W22514   5.480  14.254   3.348  0.0185  0.0055 -0.0977
 6254W        W22515   5.808   4.899   4.264 -0.1340 -0.2605  0.3419
 6255W        W22516   6.417   9.199   1.535 -0.1149 -0.1930  0.3738
 6256W        W22517   7.487   4.703   3.791  0.2828 -0.1761  0.0560
 6257W        W22518   4.161   3.764   3.930 -0.1432  0.1469 -0.1746
 6258W        W22519   5.483  14.519   2.269 -0.0870  0.3534  0.0484
 6259W        W22520   7.776  15.722   6.240  0.2325 -0.0547 -0.1519
 6260W        W22521  12.483  10.284   1.747  0.0114 -0.1434 -0.0283
 6261W        W22522  17.498  15.048   4.027 -0.0192  0.3252  0.3769
 6262W        W22523   2.810  14.166   2.026  0.1070 -0.1110 -0.1195
 6263W        W22524  15.984   9.863  11.519  0.2064 -0.1177 -0.2151
 6264W        W22525  11.566  12.703  13.544  0.1747 -0.0780  0.1341
 6265W        W22526   8.818   7.725   2.883  0.2724  0.3636  0.0455
 6266W        W22527   8.534  17.196   2.181 -0.2089 -0.1565  0.2758
 6267W        W22528   9.727  17.618  12.004  0.0881  0.1184 -0.0354
 6268W        W22529   7.927   3.652   1.175 -0.1159  0.0780 -0.1203
 6269W        W22530  16.566  15.117   4.118  0.1977  0.2971  0.3693
 6270W        W22531  16.645   0.720   5.550 -0.0067  0.0318 -0.0932
 6271W        W22532  16.173   0.282   4.674  0.3156 -0.1074  0.0459
 6272W        W22533   1.024  15.658   0.382  0.0813 -0.0505  0.0117
 6273W        W22534  16.041  17.179  12.375 -0.0776  0.0048  0.0673
 6274W        W22535  15.100  11.318   4.474 -0.2148 -0.2654  0.0217
 6275W        W22536  10.502   0.404   1.647  0.2662 -0.0548 -0.1101
 6276W        W22537   5.853  16.216  15.293 -0.0696  0.0693 -0.0337
 6277W        W22538   2.155   1.912  14.922  0.3662  0.0301  0.2278
 6278W        W22539   6.031   3.040  15.664  0.1671  0.0755 -0.1171
 6279W        W22540   4.298  15.924  16.920 -0.1149 -0.1140  0.1935
 6280W        W22541  15.208  13.010  15.144 -0.1474 -0.0612 -0.2419
 6281W        W22542   7.358  10.601   6.398  0.1336  0.2753  0.3003
 6282W        W22543   2.413   7.803   2.017 -0.2393 -0.0175 -0.1713
 6283W        W22544  16.262   9.756   1.156 -0.0406  0.2030 -0.0931
 6284W        W22545   3.940   5.320   2.863  0.0331  0.1489  0.2801
 6285W        W22546  14.082  16.763   4.564 -0.2714  0.2067  0.0230
 6286W        W22547   6.356   2.384  12.109 -0.4034 -0.0014 -0.1180
 6287W        W22548  12.853   9.043  12.029  0.0531 -0.1986  0.0398
 6288W        W22549  11.017   5.453  13.063  0.1399 -0.0657 -0.0020
 6289W        W22550   9.321  11.144   1.872 -0.1495  0.0556  0.1204
 6290W        W22551   8.646  11.026   0.881 -0.0255  0.1442  0.0485
 6291W        W22552  12.924   3.894   3.385 -0.2529 -0.0004  0.1859
 6292W        W22553   3.832   7.625  15.976  0.0146 -0.0464 -0.3686
 6293W        W22554   0.831   1.900  16.804  0.2520 -0.1287  0.1800
 6294W        W22555   1.591   5.377   4.389 -0.1142 -0.0993 -0.0849
 6295W        W22556   7.213  14.410   1.125 -0.0064  0.0651  0.0405
 6296W        W22557   9.277  12.512   4.016 -0.1944 -0.0081 -0.0833
 6297W        W22558   6.612   2.492   3.638  0.1322 -0.1584 -0.3122
 6298W        W22559   9.685  16.222  13.205  0.1388 -0.0125 -0.0704
 6299W        W22560   2.052   2.553  16.966  0.3192 -0.0992 -0.2071
 6300W        W22561   1.021   3.164  14.028 -0.1722  0.0412  0.1934
 6301W        W22562  12.075   3.183  16.847  0.0454 -0.1583 -0.1588
 6302W        W22563   8.149   0.427   2.678  0.5112  0.3939 -0.2536
 6303W        W22564   8.742  14.312   0.501 -0.1455  0.0087 -0.0150
 6304W        W22565  16.519  13.480   3.179  0.0457  0.0025  0.0380
 6305W        W22566  17.715   7.635  16.755  0.3153 -0.1162  0.1401
 6306W        W22567   8.448   4.162  15.080  0.0012 -0.0779  0.0550
 6307W        W22568  15.637  10.634  12.711  0.2336  0.1446 -0.0826
 6308W        W22569   8.003   4.411  14.240  0.1073 -0.1940  0.1016
 6309W        W22570   6.286   2.376   1.579  0.1418 -0.1094 -0.1804
 6310W        W22571  10.613  15.041   2.403 -0.0301 -0.1378 -0.1059
 6311W        W22572   9.281   3.056  14.189  0.1518 -0.1800 -0.0441
 6312W        W22573  12.693  14.855   6.476  0.2488 -0.0182 -0.0838
 6313W        W22574   9.248   7.837   2.495  0.1054  0.1197  0.3966
 6314W        W22575  10.135   8.853  11.989  0.1101  0.1741 -0.0934
 6315W        W22576   0.448  12.915  12.381 -0.2887  0.0073  0.3650
 6316W        W22577   3.746   5.220  15.527 -0.0072  0.0068 -0.1552
 6317W        W22578   9.833   8.241  10.090  0.0970  0.0522  0.1716
 6318W        W22579  11.423  15.050  14.230 -0.0110 -0.0948 -0.1947
 6319W        W22580  15.653   4.471   5.194  0.0533  0.1196 -0.3365
 6320W        W22581  14.277  15.613  12.830  0.1691 -0.0508  0.2445
 6321W        W22582   6.977   1.000   0.939  0.0703 -0.0416 -0.3613
 6322W        W22583  12.251   9.259   3.111  0.0582 -0.2184 -0.2579
 6323W        W22584   9.079  13.728  12.804 -0.1991 -0.1537  0.0514
 6324W        W22585   2.451   5.204  12.307  0.2867  0.2639 -0.0783
 6325W        W22586  15.113   8.354   0.249  0.1992 -0.0957 -0.1717
 6326W        W22587   6.676   1.116  14.368  0.0932  0.0207 -0.2838
 6327W        W22588   7.170   0.157   5.224  0.0793  0.2869  0.3653
 6328W        W22589   1.193  17.166   1.829 -0.0440  0.2635 -0.2186
 6329W        W22590  16.578  10.445  15.487  0.0278 -0.2373 -0.0204
 6330W        W22591   6.261  11.637  15.920 -0.1251  0.0691 -0.1871
 6331W        W22592  12.426  17.644  12.093 -0.0740 -0.0398 -0.1827
 6332W        W22593  16.551   8.557   5.472 -0.2108 -0.1479  0.1219
 6333W        W22594   2.566  13.847   4.276  0.4298  0.0626 -0.0942
 6334W        W22595   4.707  15.477  16.945 -0.1649  0.5251 -0.0162
 6335W        W22596   4.526   3.601   3.596 -0.1076 -0.0037 -0.0265
 6336W        W22597   2.185   0.025   2.474  0.0804  0.2017  0.2965
 6337W        W22598  15.843  13.126   4.698  0.2539  0.2052  0.0464
 6338W        W22599  11.242  14.705  12.382 -0.0224 -0.0962  0.1065
 6339W        W22600   9.182   7.834  11.730 -0.1706  0.1514 -0.1204
 6340W        W22601   6.828  16.025   3.807 -0.1898 -0.4570  0.0798
 6341W        W22602  15.771   6.964  14.340  0.0863 -0.0218 -0.3457
 6342W        W22603  11.398  12.107   4.283  0.2575  0.0424 -0.1149
 6343W        W22604  16.288  16.101  15.236 -0.1126  0.0384 -0.2280
 6344W        W22605   4.916  11.543  14.248  0.0984  0.1565 -0.1224
 6345W        W22606   7.181  11.123  13.632  0.1691  0.0886 -0.0125
 6346W        W22607  13.737   4.682  13.084  0.1281 -0.0108 -0.0847
 6347W        W22608  17.291   4.148   4.507  0.2475  0.0945  0.0969
 6348W        W22609  14.143   8.998   4.966 -0.2579 -0.0355  0.2526
 6349W        W22610   0.886   7.643  15.658 -0.4720  0.0768  0.0017
 6350W        W22611   2.871  17.368   3.109 -0.0411 -0.0373  0.2454
 6351W        W22612   7.306   6.971  16.726 -0.0169 -0.2689  0.0499
 6352W        W22613   9.520  13.485   1.778  0.0126 -0.0895  0.2713
 6353W        W22614  12.826   9.847   2.755 -0.1031  0.2367  0.0309
 6354W        W22615  15.822  10.671   4.804  0.3267  0.2458 -0.3494
 6355W        W22616  17.507   4.414   5.012  0.1724 -0.0540  0.0955
 6356W        W22617   1.332   9.310  12.526 -0.0935 -0.1595 -0.1374
 6357W        W22618   1.258   6.381   5.439  0.1243 -0.0555  0.0239
 6358W        W22619   3.353  15.545  15.506  0.0672  0.0479 -0.0773
 6359W        W22620   8.540   4.975   2.725 -0.2560 -0.0214  0.2098
 6360W        W22621   6.267   3.643   1.798  0.2021 -0.3134  0.1661
 6361W        W22622   2.446   7.215  14.426  0.1806 -0.2332 -0.0705
 6362W        W22623  15.804  10.214   4.637  0.0872 -0.1577 -0.0978
 6363W        W22624  16.076  10.535   6.092 -0.1029  0.2324  0.0528
 6364W        W22625   9.244   2.553   5.835  0.1502 -0.0349 -0.1759
 6365W        W22626  17.407  16.354  12.842  0.3369  0.0051  0.2783
 6366W        W22627   3.342  16.754   1.863 -0.0564 -0.1583 -0.0604
 6367W        W22628  17.222   9.858   5.881 -0.1830  0.0939 -0.1441
 6368W        W22629   9.137   0.980  14.220  0.1357  0.0905  0.0311
 6369W        W22630   6.180   3.503  12.532  0.2835 -0.0007 -0.0475
 6370W        W22631  10.647  14.785   4.091  0.1104 -0.2368  0.0327
 6371W        W22632   6.560  10.073   5.541  0.0269 -0.0009  0.3664
 6372W        W22633  10.579  12.992   2.556  0.0155  0.2976 -0.0969
 6373W        W22634   1.778   4.744  12.591  0.3889 -0.0244  0.2857
 6374W        W22635   4.083   8.948  15.721  0.2459 -0.4186 -0.2448
 6375W        W22636  10.140   6.700   3.520 -0.1004  0.0407 -0.2047
 6376W        W22637   9.219   4.476  16.698 -0.0318  0.1722 -0.0011
 6377W        W22638   6.736   5.825  12.640 -0.0429  0.0489 -0.1096
 6378W        W22639  12.214   8.176   4.788 -0.0131 -0.1319  0.1222
 6379W        W22640   4.184  11.325   5.004  0.1570 -0.3350 -0.0627
 6380W        W22641   5.997   9.392  11.959  0.1034 -0.0254 -0.1413
 6381W        W22642   0.375   2.850   0.719  0.2313 -0.0899  0.0575
 6382W        W22643  12.815   9.247  11.565 -0.1570  0.0492  0.2499
 6383W        W22644   1.280  17.058   3.351  0.2973 -0.0104  0.0232
 6384W        W22645   5.436   2.475   2.392  0.0208  0.0096 -0.4156
 6385W        W22646  16.970   4.832   3.692 -0.1306  0.2132 -0.1403
 6386W        W22647   5.669  11.949  15.310 -0.1950  0.1870  0.0203
 6387W        W22648  14.370  16.039  13.119  0.0099 -0.1151 -0.2350
 6388W        W22649   7.654  17.165  11.712  0.3402  0.2386  0.2030
 6389W        W22650   8.086   0.276   4.755 -0.3601  0.2558  0.0315
 6390W        W22651  13.078  12.053   6.006 -0.1300  0.0433 -0.0632
 6391W        W22652  12.111   1.974   4.719  0.1326 -0.3398  0.0549
 6392W        W22653  11.879  14.542   4.975 -0.0558 -0.0111 -0.0292
 6393W        W22654   7.326   9.702  15.357 -0.1502 -0.3543 -0.1135
 6394W        W22655  17.213   8.420   4.578  0.1336  0.1070 -0.2252
 6395W        W22656  13.173   2.871  12.774  0.3640  0.0151  0.1858
 6396W        W22657   5.823   6.720  12.813  0.0025  0.2512  0.1172
 6397W        W22658  12.441  11.608  16.810  0.2114  0.1387 -0.2217
 6398W        W22659   4.084  14.132  16.521 -0.0753  0.2526 -0.0125
 6399W        W22660   5.989   5.993  12.183 -0.0953 -0.0818 -0.1822
 6400W        W22661   2.237   9.393  13.946  0.0129 -0.2156 -0.0484
 6401W        W22662   4.617   1.443   3.682 -0.0534 -0.0028  0.2340
 6402W        W22663   8.960   1.302   1.339 -0.1034 -0.0455 -0.1226
 6403W        W22664  13.638  14.462   0.935 -0.0775 -0.1890 -0.0444
 6404W        W22665  15.497   4.757  15.382  0.3093 -0.3313 -0.1217
 6405W        W22666  16.811   4.741   4.680  0.1790  0.1765  0.2320
 6406W        W22667  12.834   2.046   5.536 -0.0726  0.1395 -0.1993
 6407W        W22668  11.303  16.958   3.853 -0.0699  0.1064  0.1322
 6408W        W22669  16.912   8.458  13.125 -0.0070 -0.1906  0.0127
 6409W        W22670  15.911  17.647  12.557 -0.0224 -0.1429 -0.2638
 6410W        W22671  14.886   9.622   0.722 -0.0088 -0.0118  0.2469
 6411W        W22672  13.776   4.939   5.258  0.3088 -0.0794  0.2258
 6412W        W22673   7.555   7.289   5.721 -0.2404 -0.3995  0.0487
 6413W        W22674   2.371   9.312   2.287  0.1981  0.0940  0.0976
 6414W        W22675   6.435   7.324  16.434  0.0661 -0.1219  0.3717
 6415W        W22676  17.641   3.806   4.606  0.2142 -0.0430 -0.1268
 6416W        W22677   0.975  11.484  13.230 -0.0464 -0.2080  0.0544
 6417W        W22678  14.161   5.673   3.547  0.0453  0.0218 -0.1084
 6418W        W22679  13.978  12.846   4.304 -0.2360  0.0270  0.3094
 6419W        W22680   2.007  12.911   2.197  0.1773 -0.1523  0.2399
 6420W        W22681   4.034  12.562   5.499  0.2224 -0.0838 -0.0356
 6421W        W22682   8.203  12.224   4.908  0.1552 -0.2183 -0.2782
 6422W        W22683   1.817   6.023   0.868 -0.0194  0.1572 -0.0582
 6423W        W22684   9.338  11.537  15.404  0.0476  0.4109 -0.0221
 6424W        W22685   7.060   7.411  14.299 -0.2646  0.4434  0.1225
 6425W        W22686  15.974   5.450  12.149 -0.0964 -0.1069 -0.0545
 6426W        W22687   1.064   1.769   0.387  0.2885 -0.1163  0.0289
 6427W        W22688  16.543   4.146   2.636 -0.1006  0.0968  0.1420
 6428W        W22689  10.133   3.027   4.270  0.1172  0.1483 -0.1776
 6429W        W22690  13.394   8.408  14.150  0.1088  0.1182 -0.0652
 6430W        W22691   2.746   2.591  13.440 -0.0159 -0.1155  0.1676
 6431W        W22692  10.113  15.447  15.166 -0.0347  0.1574 -0.2799
 6432W        W22693  15.455  17.231   0.152 -0.1199 -0.0324 -0.2938
 6433W        W22694   2.306   1.417   5.940  0.1983  0.2404  0.0047
 6434W        W22695   1.055   4.211  13.367 -0.0882  0.3027 -0.4773
 6435W        W22696   0.155  12.590   5.008 -0.1040 -0.1467 -0.3062
 6436W        W22697   5.821   1.687   3.851  0.0180  0.1796  0.3806
 6437W        W22698  10.583   6.292  15.672  0.0456  0.1558  0.3325
 6438W        W22699   0.573   4.327   4.715  0.3344 -0.0578  0.0662
 6439W        W22700   6.489  13.127   3.588  0.0551 -0.1873 -0.0391
 6440W        W22701  15.004  17.513   0.119 -0.1005 -0.0697 -0.1705
 6441W        W22702   4.156  13.407  16.153  0.2034  0.3764 -0.0864
 6442W        W22703  11.129  15.666  15.830 -0.4455 -0.0296 -0.1524
 6443W        W22704  12.410   9.746  12.651  0.1272  0.0074  0.3998
 6444W        W22705   4.805  16.172  14.834  0.1469  0.2000  0.2764
 6445W        W22706  13.943   1.615  14.436  0.0215 -0.0685 -0.3298
 6446W        W22707   4.639  10.999   2.767 -0.2258  0.1053 -0.0439
 6447W        W22708   1.401   4.229   5.595 -0.1476  0.3488  0.0282
 6448W        W22709  14.777   7.380   1.009 -0.1204  0.1270 -0.2507
 6449W        W22710   9.976   1.013   3.227  0.2326 -0.0397  0.1462
 6450W        W22711  13.798  11.196   3.737 -0.3957 -0.3139  0.1689
 6451W        W22712   2.596   9.451   3.151  0.3674  0.1017 -0.0362
 6452W        W22713  16.330   5.025  14.452  0.1490 -0.1210  0.1378
 6453W        W22714   2.678   1.818   6.161  0.0251 -0.2603 -0.0720
 6454W        W22715   5.910   6.409   6.008 -0.0591 -0.2641  0.2042
 6455W        W22716   4.359  17.144   0.285 -0.0409 -0.3046  0.0139
 6456W        W22717  14.013  10.949  11.634 -0.0341  0.1216  0.0572
 6457W        W22718   1.324   9.566  15.539  0.2831 -0.0907 -0.2017
 6458W        W22719   2.684   5.617   0.715 -0.1853  0.0429  0.1947
 6459W        W22720  10.576  14.135   3.358  0.1090 -0.2522 -0.0995
 6460W        W22721   0.090  17.257  12.678 -0.1949  0.0157 -0.1818
 6461W        W22722   1.888  11.181   4.538  0.0420 -0.1632 -0.1258
 6462W        W22723  11.019   6.733   5.658 -0.2658 -0.0110  0.2151
 6463W        W22724  17.061   3.805   3.728  0.0512  0.1498  0.0419
 6464W        W22725  15.544   9.111   5.734  0.4540  0.1529 -0.1255
 6465W        W22726  17.420  15.827   2.351 -0.2349  0.1789 -0.3226
 6466W        W22727  12.385   4.222   3.113 -0.0517 -0.1855 -0.1529
 6467W        W22728   3.865   2.850  16.829 -0.1814 -0.0260 -0.2744
 6468W        W22729  16.840  13.909  10.507 -0.0870 -0.1161 -0.2594
 6469W        W22730   1.341   2.716   4.598 -0.1305  0.1521 -0.1293
 6470W        W22731   6.156   3.123   6.374  0.1788 -0.1088  0.0216
 6471W        W22732   6.878   4.840  11.728  0.0602  0.1033  0.2026
 6472W        W22733  13.735  13.948  16.163 -0.0416 -0.0919  0.1777
 6473W        W22734   2.069  16.963  16.739  0.0674  0.3882  0.1571
 6474W        W22735  16.223  16.686  14.620 -0.1059  0.0939  0.2787
 6475W        W22736  11.566   0.992   0.298  0.1159  0.0381 -0.0225
 6476W        W22737  16.303   5.062  13.629 -0.2785  0.3517 -0.3435
 6477W        W22738  16.764   0.108  12.514  0.2713 -0.0604  0.0980
 6478W        W22739   2.494   4.069  11.775 -0.2030 -0.2646  0.5023
 6479W        W22740  13.459  16.064  13.022 -0.2054  0.0696 -0.0011
 6480W        W22741  14.315   7.889   4.055 -0.0807  0.0895 -0.1140
 6481W        W22742   2.928  12.128  15.988  0.2785  0.0915  0.0082
 6482W        W22743   5.347  17.564   2.669  0.1360  0.2131 -0.1891
 6483W        W22744   7.542   2.689  14.375 -0.2263  0.1480 -0.2204
 6484W        W22745   2.322  11.230   3.590  0.3295 -0.1781  0.2660
 6485W        W22746   7.440   8.671   5.405  0.2584 -0.2329 -0.2400
 6486W        W22747   7.217   8.014  13.290 -0.1603  0.0706 -0.0511
 6487W        W22748   2.625  11.725   0.478  0.0303 -0.1132 -0.1062
 6488W        W22749   5.063  13.317  16.951  0.0578  0.0426  0.2447
 6489W        W22750  13.397  15.242   1.010  0.1980  0.2819 -0.3208
 6490W        W22751   7.230   4.768   1.862  0.1135  0.0593  0.1142
 6491W        W22752   0.382  10.045  16.885 -0.0691 -0.2086  0.0895
 6492W        W22753   9.705  13.276  13.641  0.1168  0.2643  0.0030
 6493W        W22754  14.944  17.709   1.044 -0.2037  0.2882 -0.1674
 6494W        W22755   0.025  13.008  15.490 -0.0076  0.3699 -0.0954
 6495W        W22756   0.717   7.534   0.228 -0.2826  0.2147  0.1545
 6496W        W22757   5.321  15.284  13.056  0.1318 -0.2904  0.0585
 6497W        W22758   9.312  15.291  10.768 -0.0307 -0.3100  0.3627
 6498W        W22759  16.932  10.923  12.577 -0.0838  0.1666 -0.0928
 6499W        W22760   0.054   8.143  14.232  0.4707 -0.0281 -0.0793
 6500W        W22761  13.721  14.681  12.893  0.0578  0.0164 -0.2667
 6501W        W22762  15.237  15.776  12.412  0.1429  0.0060 -0.1340
 6502W        W22763  15.819  13.799   1.835 -0.1144 -0.0347 -0.0692
 6503W        W22764  11.821   3.536   2.109  0.0959  0.1267 -0.1704
 6504W        W22765  16.576  15.789  13.951 -0.2023  0.1650 -0.0048
 6505W        W22766   1.692   3.513   2.761 -0.0331 -0.3371  0.2650
 6506W        W22767  15.683  16.490   2.243 -0.1264 -0.3729 -0.1312
 6507W        W22768  10.833  12.742  15.801  0.2350 -0.0680 -0.1053
 6508W        W22769   1.156   8.131   0.997  0.0415  0.0870 -0.0111
 6509W        W22770   6.765  12.549   5.561  0.0256  0.0322  0.0220
 6510W        W22771  11.248   8.068  14.566 -0.3581  0.1300  0.2022
 6511W        W22772   3.796  11.264  14.734  0.0251  0.2971  0.4404
 6512W        W22773  15.420   8.874   1.620  0.0346 -0.1379 -0.1835
 6513W        W22774  14.069   1.956  13.661 -0.4913 -0.1429 -0.3156
 6514W        W22775   9.315  10.088  16.262 -0.1912  0.0789  0.4148
 6515W        W22776  16.529  11.084   0.249 -0.0406  0.1863 -0.1064
 6516W        W22777   0.219  15.481   3.261 -0.0602 -0.3716  0.4129
 6517W        W22778  15.898  14.410   0.330  0.0863 -0.1145 -0.0175
 6518W        W22779   2.133   6.134   2.318 -0.1259  0.2179  0.0903
 6519W        W22780  12.359  12.743  16.259  0.0650 -0.1200  0.2792
 6520W        W22781  17.691  11.642   2.091  0.0012 -0.4075 -0.0679
 6521W        W22782  16.442   4.655   3.869  0.2088  0.0251  0.0800
 6522W        W22783   5.081  16.752   6.070  0.0270  0.0131 -0.1903
 6523W        W22784  15.856   0.772  15.503 -0.0988  0.1452 -0.0528
 6524W        W22785  16.175  13.077   0.621 -0.2159  0.1703  0.1933
 6525W        W22786   6.081  11.278  16.392 -0.1091  0.0912 -0.0435
 6526W        W22787  12.611  12.400  16.588 -0.0747  0.1034 -0.1630
 6527W        W22788  14.545   3.623  13.947 -0.0278  0.0453  0.0465
 6528W        W22789  12.910   8.049  13.468  0.3067 -0.1251  0.0408
 6529W        W22790  12.175  14.158  13.992 -0.0845 -0.1439 -0.2419
 6530W        W22791   7.881  12.710   2.459  0.2158 -0.3123  0.0114
 6531W        W22792   0.080   5.404   6.146  0.1656  0.2185  0.4333
 6532W        W22793   5.010  16.257  13.943  0.2143 -0.0208 -0.2598
 6533W        W22794  12.566   3.149  12.096 -0.1510  0.1480 -0.3000
 6534W        W22795   8.922   9.921  14.018  0.1820  0.2272 -0.0259
 6535W        W22796  13.986  10.341   3.207 -0.0750  0.2879  0.0279
 6536W        W22797   8.191  14.627   4.225  0.1218 -0.2872  0.0466
 6537W        W22798   8.009  11.365  16.111 -0.2078  0.1000 -0.1004
 6538W        W22799   5.303   2.657  12.768 -0.1100 -0.1819  0.3703
 6539W        W22800  11.161   0.625   1.868 -0.0980 -0.0309 -0.0277
 6540W        W22801  13.793  15.616  12.040 -0.0421 -0.1320 -0.1319
 6541W        W22802  10.540  14.720  14.248 -0.1265 -0.0255 -0.2272
 6542W        W22803   0.598  17.553   0.016 -0.0227 -0.3596  0.0649
 6543W        W22804   6.023  17.578  12.316  0.2084 -0.4725 -0.1312
 6544W        W22805   3.570  14.703  13.425  0.0538 -0.1119 -0.0102
 6545W        W22806   2.654   0.509   1.507  0.0366  0.2616  0.0569
 6546W        W22807   1.860   4.846  14.344 -0.1725 -0.1337  0.2634
 6547W        W22808   8.869   5.690   3.260  0.0722 -0.0262  0.1999
 6548W        W22809  11.788   7.090  13.690  0.1876  0.1590 -0.1081
 6549W        W22810  10.323  14.695   3.286  0.0736  0.1154  0.2968
 6550W        W22811   4.805   6.287   2.985  0.1742  0.4033  0.0185
 6551W        W22812   3.025   8.415   1.239 -0.3367  0.0444 -0.1855
 6552W        W22813  13.861   6.247   1.306 -0.0336 -0.3117  0.1000
 6553W        W22814   6.896   3.362  11.887  0.0558 -0.2321 -0.0433
 6554W        W22815  17.469   7.729  16.093 -0.0132 -0.3384 -0.1900
 6555W        W22816  15.219  13.097   1.014 -0.2002  0.2088 -0.2977
 6556W        W22817  12.118   2.732  15.324 -0.0553 -0.0610 -0.1218
 6557W        W22818   4.283   6.377   5.018 -0.1348 -0.0402  0.1801
 6558W        W22819   2.743  17.459  13.732 -0.3144  0.1736 -0.3493
 6559W        W22820   6.629   5.884   4.222  0.0919 -0.3613 -0.2685
 6560W        W22821   7.000   1.166   0.054 -0.0501 -0.0377  0.1824
 6561W        W22822   2.715   1.396  12.934  0.0720 -0.0441  0.2973
 6562W        W22823  13.577   1.425  15.878  0.0467  0.0924 -0.0599
 6563W        W22824  16.357   5.745   4.966 -0.2811 -0.1383  0.1232
 6564W        W22825  15.730  10.419  13.725 -0.2556 -0.1939  0.0239
 6565W        W22826   5.287  10.639   6.242  0.1536  0.0469 -0.3910
 6566W        W22827  15.389   7.494  11.849  0.2247 -0.3092  0.2320
 6567W        W22828   3.574   8.861   4.857  0.2830 -0.0211  0.2335
 6568W        W22829  17.827   6.583   2.833 -0.1323  0.3276  0.0129
 6569W        W22830  10.947  12.400  15.453 -0.1686 -0.0020 -0.0801
 6570W        W22831   4.542   1.854   4.495 -0.0537 -0.2158 -0.1125
 6571W        W22832   4.617  14.255   4.996  0.1236 -0.1403  0.1796
 6572W        W22833   8.554  10.678   5.225 -0.0812  0.2317 -0.1310
 6573W        W22834  11.654  12.263  13.411  0.1077 -0.0219 -0.0453
 6574W        W22835  13.509  15.235  14.026  0.1110 -0.0446  0.1473
 6575W        W22836  11.144  12.360   6.585 -0.3031  0.0980 -0.0672
 6576W        W22837  14.568   3.113   4.461 -0.0727  0.0651  0.2092
 6577W        W22838   8.255   4.915   0.202  0.1170  0.1132  0.0935
 6578W        W22839  13.121  11.303   2.599 -0.2023 -0.1492  0.0063
 6579W        W22840  16.159  11.919   4.324  0.4578 -0.1244  0.1394
 6580W        W22841  10.739   1.504  13.483  0.2207  0.0277  0.0023
 6581W        W22842  16.428   5.253   5.398 -0.1292  0.0137  0.2873
 6582W        W22843   6.495   5.576   3.227 -0.0013  0.2250  0.2222
 6583W        W22844  11.264   8.219  11.685 -0.1088 -0.3032 -0.0874
 6584W        W22845   4.239  10.991  14.738 -0.1695 -0.2196 -0.2238
 6585W        W22846  10.282   6.312   5.902 -0.3808  0.2426 -0.1172
 6586W        W22847   4.409  11.673   3.008 -0.1513 -0.0296  0.0423
 6587W        W22848  15.669   2.470   1.688 -0.1286 -0.0330 -0.1364
 6588W        W22849  10.366  15.711   3.148  0.0084 -0.0027  0.0710
 6589W        W22850   3.080  13.381   0.868  0.2362 -0.1332  0.2840
 6590W        W22851   1.745  13.051   3.745 -0.0013 -0.2380  0.0234
 6591W        W22852   8.511  16.929  12.804  0.1374 -0.0500 -0.2137
 6592W        W22853  14.090  11.664   2.903 -0.1687 -0.1047  0.1560
 6593W        W22854   7.155  13.970  14.665  0.3382 -0.4680 -0.3111
 6594W        W22855  13.297   4.625   3.554  0.3511  0.0890 -0.0642
 6595W        W22856   2.623   8.077   2.958  0.2942 -0.1072  0.2202
 6596W        W22857   5.608   0.714  13.415  0.0889 -0.2539 -0.0502
 6597W        W22858   7.983   2.032   5.968  0.1223  0.2326  0.0251
 6598W        W22859  17.637   7.349   0.251 -0.1770  0.3356 -0.0770
 6599W        W22860   4.954   2.597   4.425  0.1539  0.0011  0.0286
 6600W        W22861  11.562   2.810   3.831  0.2394 -0.2200  0.0882
 6601W        W22862   0.744  12.390  12.775 -0.0415  0.3049 -0.0303
 6602W        W22863  14.084   1.360  11.725  0.0002  0.0023 -0.0586
 6603W        W22864   4.060   0.280  13.729  0.1553 -0.2746 -0.0344
 6604W        W22865  16.113  13.334  15.261 -0.1492  0.1220  0.1098
 6605W        W22866  10.522   3.392   3.355 -0.1188 -0.1028 -0.2887
 6606W        W22867  15.155  10.893   6.104 -0.1496 -0.0183  0.0852
 6607W        W22868   7.202  11.380  14.581 -0.0887  0.0811  0.1754
 6608W        W22869   0.512   7.075   3.509  0.1174 -0.2689 -0.0241
 6609W        W22870  16.262  16.736   2.275 -0.2177  0.1072 -0.0215
 6610W        W22871  17.141  13.923  14.815  0.2374  0.0421 -0.1528
 6611W        W22872   9.876  16.472   3.136  0.3976 -0.0820 -0.2273
 6612W        W22873  15.496  12.185   1.975 -0.1844  0.0197 -0.1617
 6613W        W22874   7.871   0.726  13.955  0.3231  0.0758  0.0228
 6614W        W22875  13.603  10.099  16.882  0.1385  0.0423  0.1583
 6615W        W22876   0.858  13.478  14.368 -0.3461 -0.1177  0.3020
 6616W        W22877   4.449   8.119   0.822  0.2166  0.4469  0.0449
 6617W        W22878   8.795   3.799   2.113 -0.2151  0.0055 -0.1401
 6618W        W22879   7.877  16.168  13.911  0.1948 -0.0442  0.0427
 6619W        W22880   1.621  12.471  13.032  0.2103  0.1402 -0.2715
 6620W        W22881  12.481   1.033   1.573  0.0709  0.0860  0.2990
 6621W        W22882   3.459  10.608   0.904 -0.0150  0.0453 -0.1294
 6622W        W22883  10.948  12.734   1.432 -0.1052  0.0875 -0.0781
 6623W        W22884  17.598   3.888  13.528  0.3366  0.1036  0.2220
 6624W        W22885   1.703   3.995   0.638 -0.1406 -0.1394 -0.0916
 6625W        W22886  16.426  15.614  13.146  0.0335 -0.1001  0.0243
 6626W        W22887  14.461   4.099   4.894 -0.2320 -0.1755  0.0354
 6627W        W22888   1.707  12.655  16.284 -0.0231  0.0410  0.1825
 6628W        W22889   6.050  11.018   3.224 -0.0955 -0.0967  0.4088
 6629W        W22890   2.625   6.869  16.213  0.3424 -0.4246  0.1186
 6630W        W22891   1.923   8.254  12.169 -0.1969  0.4711 -0.1150
 6631W        W22892  11.851   8.941  16.577 -0.1224  0.2068 -0.0125
 6632W        W22893   9.271   0.226  12.270 -0.0732 -0.1349 -0.1006
 6633W        W22894  16.240  17.107   0.731  0.1135  0.0429  0.1430
 6634W        W22895  15.885   3.851   0.874 -0.0389 -0.1820 -0.1644
 6635W        W22896  16.430   2.818   2.251 -0.0828  0.0380  0.0142
 6636W        W22897  12.579  12.585   4.803  0.1777 -0.0165 -0.0880
 6637W        W22898  12.250   6.034  12.778 -0.3201  0.0543  0.0290
 6638W        W22899  14.638   1.880   1.786 -0.0633 -0.2473  0.0617
 6639W        W22900  14.003   9.682   3.695  0.3178  0.0312 -0.1992
 6640W        W22901  17.613  15.123   5.551  0.0683  0.3184 -0.0379
 6641W        W22902   6.456  15.043  11.662 -0.0823 -0.1084 -0.0327
 6642W        W22903   2.812  10.767   5.977 -0.0680 -0.0720 -0.0830
 6643W        W22904   9.942   8.577   6.443 -0.0618  0.2156  0.0121
 6644W        W22905  10.687   4.181   2.423  0.0918  0.1679  0.1633
 6645W        W22906   2.980  16.477  13.379 -0.1731  0.1361 -0.1386
 6646W        W22907   1.086  11.350  14.580  0.1374 -0.0095  0.3236
 6647W        W22908   4.308   8.804  14.446  0.1614 -0.0660  0.1824
 6648W        W22909  12.050   3.874   2.991 -0.0639 -0.0582  0.1137
 6649W        W22910  11.301  10.625   1.583 -0.3568 -0.3324 -0.1237
 6650W        W22911  11.175  11.903   2.943 -0.1696  0.2245 -0.0958
 6651W        W22912  14.916  17.520   4.677 -0.0989 -0.1112 -0.2950
 6652W        W22913   7.418  13.227   2.913 -0.3634  0.0208  0.0534
 6653W        W22914   8.540  10.182  15.440  0.4340  0.0732 -0.0823
 6654W        W22915  12.205  12.174  16.898  0.2663  0.0972  0.1628
 6655W        W22916  10.278   8.725  16.756 -0.2866 -0.1604 -0.1029
 6656W        W22917   3.499  12.432   2.340  0.0430 -0.0722 -0.1417
 6657W        W22918   0.016  10.131  12.172  0.2546  0.0073 -0.2001
 6658W        W22919  11.691   9.907  15.454 -0.0284  0.0728  0.4088
 6659W        W22920   4.431   2.419  12.213 -0.0227 -0.1333  0.1792
 6660W        W22921   8.684   2.485  12.422 -0.0059 -0.0920 -0.4066
 6661W        W22922   6.970   9.380   3.010 -0.1789  0.1256 -0.1200
 6662W        W22923  17.736   8.114   1.556  0.1386  0.0785 -0.3581
 6663W        W22924  15.888  14.251   5.480 -0.1582 -0.1671  0.2582
 6664W        W22925   3.740   8.538   6.139 -0.0628  0.1022 -0.0577
 6665W        W22926   6.027   0.565  12.564  0.1206 -0.2312 -0.0159
 6666W        W22927  17.054  17.327   4.051 -0.0440  0.0002  0.1623
 6667W        W22928   9.977   7.466   2.877 -0.1551 -0.2578  0.1443
 6668W        W22929  15.504  11.072   0.539  0.2070 -0.1719 -0.2074
 6669W        W22930   1.910   2.861  14.696  0.2362 -0.0227  0.0256
 6670W        W22931   7.113  11.898   0.483  0.1447 -0.0763 -0.0594
 6671W        W22932   6.810  11.867  16.386 -0.0246  0.0949 -0.0870
 6672W        W22933   1.660   0.635  15.702  0.0678  0.0049  0.1025
 6673W        W22934  17.464  12.516   2.482 -0.1166  0.0424  0.1960
 6674W        W22935   0.158   8.431   0.158 -0.1743 -0.1249  0.2446
 6675W        W22936   8.027  10.246  12.595 -0.2126 -0.0885 -0.2287
 6676W        W22937  14.647   7.005  12.638  0.1186  0.0059 -0.2547
 6677W        W22938  16.872   1.453  13.110  0.3078  0.0590  0.4200
 6678W        W22939  17.521  14.007  15.275  0.0853  0.0032  0.0363
 6679W        W22940   7.935   4.532   3.879  0.3352 -0.0858  0.2457
 6680W        W22941   7.314   0.803   5.698 -0.2896  0.0543  0.1051
 6681W        W22942   6.493  17.422   3.379 -0.2256 -0.0381  0.1700
 6682W        W22943  16.144  12.885   4.455  0.1091  0.0054  0.1396
 6683W        W22944  10.465   0.237  14.855 -0.2879 -0.2666  0.1199
 6684W        W22945   5.718  13.736   2.445  0.2421 -0.1222 -0.2526
 6685W        W22946   3.483   4.845  13.897  0.0772  0.3580 -0.2128
 6686W        W22947   1.130   5.330  16.616  0.1528 -0.0934  0.2994
 6687W        W22948  14.590  12.510   3.883 -0.0147 -0.0117  0.1808
 6688W        W22949  14.134  14.339  14.501 -0.2344  0.2346 -0.0790
 6689W        W22950   4.103   9.043  12.149  0.0170  0.1773 -0.1437
 6690W        W22951   8.042  11.394   2.124  0.0371 -0.1028  0.1217
 6691W        W22952   5.579   5.346  16.538  0.3236  0.2784 -0.0654
 6692W        W22953   7.616  11.660  12.092 -0.0630  0.0620  0.1233
 6693W        W22954   8.411   0.437   3.333 -0.2121 -0.0232 -0.2117
 6694W        W22955   6.112  14.158  13.570  0.0425 -0.0236 -0.0357
 6695W        W22956   9.194   5.778  14.996  0.3973 -0.3824 -0.1736
 6696W        W22957  13.409   5.907   1.322 -0.0166 -0.2411 -0.1596
 6697W        W22958  13.454  13.557   4.828  0.1219 -0.1323 -0.3070
 6698W        W22959   7.369  14.570   2.191 -0.2685 -0.0221 -0.0850
 6699W        W22960   3.607  12.441  12.737  0.1136  0.0719  0.2410
 6700W        W22961   5.093   5.955   6.127  0.0943 -0.2705  0.5865
 6701W        W22962  17.003  17.247  14.341 -0.1908 -0.1553 -0.0694
 6702W        W22963  10.350  13.535  16.223 -0.2496  0.0060 -0.0663
 6703W        W22964   4.878   5.296   5.339 -0.0587 -0.0246  0.1753
 6704W        W22965   0.302  13.915   1.604 -0.0389  0.0601 -0.1380
 6705W        W22966   6.284  16.515   5.053 -0.2363  0.0250  0.0628
 6706W        W22967   2.452   0.445  11.894  0.1623 -0.0578  0.1107
 6707W        W22968   0.658  14.906  12.689  0.2273  0.1734 -0.3125
 6708W        W22969   7.606   2.244  12.430  0.0798  0.1190  0.0785
 6709W        W22970   6.492  11.674   4.948  0.3108 -0.0840  0.0562
 6710W        W22971   2.651  15.971  13.324  0.0938  0.1155 -0.1086
 6711W        W22972  13.026  10.770  11.622  0.2396  0.1899 -0.2769
 6712W        W22973  10.707  14.294   4.175  0.1054 -0.2383  0.0430
 6713W        W22974  17.147   7.838  15.094  0.0166  0.0649  0.0374
 6714W        W22975   1.134  11.306   2.757 -0.1183 -0.0219 -0.1762
 6715W        W22976   1.885   6.663  15.067 -0.3151 -0.0873 -0.1113
 6716W        W22977  17.224   3.782   0.965 -0.0110 -0.1434  0.1689
 6717W        W22978   6.973  10.003  16.922 -0.1087  0.1050  0.2598
 6718W        W22979   7.328  14.480   3.197  0.3171  0.0991 -0.1216
 6719W        W22980   5.330  11.273  14.511  0.0984 -0.1351  0.0432
 6720W        W22981   5.438   9.730  13.860  0.1843  0.0721 -0.0943
 6721W        W22982  11.535  14.892  14.746  0.1062  0.0435 -0.0470
 6722W        W22983   5.037  12.945  12.469  0.3487  0.2461  0.2811
 6723W        W22984   1.900  16.208   1.177  0.0363  0.1895  0.0260
 6724W        W22985  11.167  16.094  16.127  0.3298  0.1979 -0.1402
 6725W        W22986  15.262   7.410   2.335 -0.1253  0.1698 -0.0293
 6726W        W22987  15.808  14.926  15.231  0.1163 -0.1680 -0.1692
 6727W        W22988  12.654   9.470   1.363  0.0619 -0.0566  0.0824
 6728W        W22989  11.130  11.076   2.356  0.0009 -0.1203  0.2673
 6729W        W22990  14.623   6.005   2.101 -0.1262  0.1129 -0.0334
 6730W        W22991  10.383  15.484  13.378  0.3067  0.0699 -0.3876
 6731W        W22992   0.602  15.950  11.642 -0.0790  0.2768  0.2525
 6732W        W22993   1.787   0.248   2.659  0.1939  0.2124 -0.4499
 6733W        W22994   4.950  11.604  14.742 -0.0754 -0.2539 -0.0961
 6734W        W22995  16.455  12.202   2.876 -0.1584  0.1906  0.0714
 6735W        W22996   2.463   9.109  12.602  0.0294  0.0684  0.0385
 6736W        W22997   9.502   1.377  14.107  0.0976  0.0950 -0.1597
 6737W        W22998   7.561  13.210   1.643  0.3202  0.0606  0.1590
 6738W        W22999  12.015  14.095   0.762  0.3350  0.1791 -0.1176
 6739W        W23000   7.578   2.499   3.625 -0.1088 -0.0394  0.0198
 6740W        W23001   6.609   0.067   0.074 -0.0134  0.3260 -0.0874
 6741W        W23002  16.069  11.830   3.112  0.1928 -0.0343  0.1799
 6742W        W23003   6.987  15.764   2.510 -0.1941 -0.1624  0.0805
 6743W        W23004  14.602  12.666   0.222 -0.2139  0.4835 -0.2388
 6744W        W23005   4.561   6.310  15.114  0.0314 -0.0501  0.1379
 6745W        W23006  14.911   9.630   4.465  0.0941  0.2211 -0.1054
 6746W        W23007   8.495   6.366  11.610 -0.2109  0.0162 -0.0451
 6747W        W23008  17.205  15.679   2.830  0.1190 -0.2563 -0.4189
 6748W        W23009  17.363   1.593   0.039  0.1205  0.0168 -0.1576
 6749W        W23010   9.888  10.258   1.514 -0.0706  0.3243  0.0347
 6750W        W23011   6.217  15.201   4.127 -0.2506 -0.1577  0.0734
 6751W        W23012   7.415  14.856  12.666  0.0917  0.3503  0.0559
 6752W        W23013  13.173  13.730  11.980  0.1115  0.2410  0.1550
 6753W        W23014   4.678  14.482  15.678  0.2102 -0.1812  0.2228
 6754W        W23015  15.653   4.670  14.035 -0.0752 -0.1082 -0.0798
 6755W        W23016   1.304   4.002   1.814 -0.2653 -0.2544 -0.1543
 6756W        W23017   1.284  16.479  15.329  0.1643 -0.0269 -0.0985
 6757W        W23018   4.999   5.453   2.183  0.2765 -0.2330 -0.3250
 6758W        W23019  11.405  16.880   4.336  0.3276 -0.0117  0.3333
 6759W        W23020   0.659  13.120  15.816 -0.2044  0.0354 -0.1602
 6760W        W23021   6.633   8.621   3.156 -0.1546  0.2545 -0.0488
 6761W        W23022   8.840  17.358   4.239  0.0495  0.2341 -0.1456
 6762W        W23023  14.364  16.363   4.870  0.1872  0.0007 -0.0968
 6763W        W23024   7.658   0.514   3.423 -0.2880 -0.2191 -0.3278
 6764W        W23025   2.646  16.016   0.682 -0.1813  0.2036 -0.0096
 6765W        W23026   3.188   8.193   5.519 -0.1727  0.0536  0.0545
 6766W        W23027   7.216  12.277   2.960  0.0184 -0.0393 -0.0402
 6767W        W23028  10.185   6.890   1.844  0.2286 -0.2302  0.2276
 6768W        W23029   8.226   8.747   4.637  0.0011  0.0340  0.2794
 6769W        W23030   5.914  14.333   3.022 -0.0609 -0.0565  0.0426
 6770W        W23031   2.418   8.453  13.234  0.0530 -0.0083 -0.0445
 6771W        W23032   2.230  10.651   1.263 -0.4086  0.1979 -0.0363
 6772W        W23033   7.691  12.975  12.408 -0.0285  0.3656 -0.0520
 6773W        W23034   4.347   8.521  12.981  0.2255 -0.0350 -0.0366
 6774W        W23035   1.002  11.556   1.086 -0.3299 -0.1660  0.1141
 6775W        W23036  13.215  16.335  16.159 -0.3524  0.0517  0.0594
 6776W        W23037  15.742   7.811   3.600 -0.1124  0.1248  0.1737
 6777W        W23038   2.083  14.094  12.974 -0.0079  0.0723  0.2272
 6778W        W23039   9.058  12.289  14.841  0.1371 -0.0971  0.1774
 6779W        W23040   1.343   5.542   0.153  0.1260  0.0222 -0.0156
 6780W        W23041   0.698   4.785   5.713 -0.1960  0.2331  0.1383
 6781W        W23042   6.856  15.661  15.728  0.2162  0.1991  0.0479
 6782W        W23043   4.220   3.860  14.869 -0.0927 -0.0883 -0.1013
 6783W        W23044   9.078  15.485   1.397  0.0999  0.2580  0.1315
 6784W        W23045   4.839  15.535  11.721  0.0057  0.0761 -0.1330
 6785W        W23046   8.362   4.221   0.399 -0.0197  0.0057  0.1756
 6786W        W23047   0.804  10.750   4.287  0.1824 -0.0914  0.0639
 6787W        W23048   0.125   5.662   1.850 -0.0799 -0.1485  0.1017
 6788W        W23049  14.547   1.066   3.291  0.0909 -0.0390 -0.1108
 6789W        W23050   7.930   3.133  16.373 -0.2753  0.0279  0.1742
 6790W        W23051   9.892  11.713   0.910 -0.0217  0.4764  0.1644
 6791W        W23052  16.401   5.551  14.570 -0.0555 -0.1410  0.0816
 6792W        W23053   8.216  13.957  14.080  0.2494 -0.0743  0.1852
 6793W        W23054   5.829  13.538  12.785  0.5634 -0.1888 -0.0268
 6794W        W23055  15.508   8.064   0.178  0.2180  0.2011 -0.1865
 6795W        W23056  11.913   9.950   4.850 -0.4824  0.2397  0.0592
 6796W        W23057   9.496  16.114   3.034 -0.0009 -0.0820 -0.1105
 6797W        W23058  16.640   3.568   2.757  0.0190  0.2110 -0.4144
 6798W        W23059   7.862  11.238  12.686 -0.2756  0.2578  0.2572
 6799W        W23060  17.660  10.830   0.915 -0.0256 -0.0853  0.1455
 6800W        W23061   5.694  11.205  12.944 -0.0613 -0.1463  0.0122
 6801W        W23062  10.785   9.250   1.554 -0.2453 -0.0206 -0.1414
 6802W        W23063  14.384   7.521  14.059 -0.0072  0.3627  0.0662
 6803W        W23064   7.231  10.113   5.537 -0.0434  0.0716 -0.0418
 6804W        W23065   7.648  10.684   4.203 -0.1548 -0.0239 -0.4265
 6805W        W23066   6.664  10.630   1.192  0.2203 -0.1259  0.4336
 6806W        W23067  15.649   9.310  13.181  0.0777  0.1690  0.1314
 6807W        W23068  12.112   2.368   3.250 -0.3523  0.0105  0.1936
 6808W        W23069   7.104   2.224   2.727 -0.0921 -0.1551 -0.3391
 6809W        W23070   8.688   7.724   0.028  0.1417 -0.2422 -0.0904
 6810W        W23071  12.735   8.760  16.586 -0.1144 -0.1077 -0.1393
 6811W        W23072  16.036  13.428  14.270  0.1328 -0.3449 -0.0626
 6812W        W23073  11.811   5.365  12.549  0.3351  0.0450  0.2063
 6813W        W23074   1.222   2.171   2.330 -0.0754  0.0775  0.0062
 6814W        W23075   3.793   8.704  12.309  0.0135 -0.1249 -0.1376
 6815W        W23076  11.506   5.890   0.373  0.0936  0.1629 -0.1723
 6816W        W23077   2.769  11.261  14.412  0.3639 -0.2749  0.0595
 6817W        W23078   2.256  15.416   1.215 -0.1688 -0.1475 -0.1282
 6818W        W23079  12.626   1.410  16.290 -0.0943  0.2198 -0.0694
 6819W        W23080   5.193  10.992  13.272 -0.0386  0.0040  0.0699
 6820W        W23081  16.864  11.700  16.145  0.0912 -0.1375  0.1989
 6821W        W23082   0.276   0.678   0.563 -0.0808  0.0766  0.0874
 6822W        W23083  16.315   2.769   0.064  0.0745  0.0027  0.1472
 6823W        W23084   0.711   8.805  16.421 -0.0732 -0.1373  0.2968
 6824W        W23085   6.677  15.927  15.301 -0.0280 -0.0426  0.0352
 6825W        W23086  10.688   4.042  14.770  0.1943  0.0284  0.0249
 6826W        W23087   9.099   0.997  16.519 -0.4869  0.2872  0.1488
 6827W        W23088   3.743   2.859   2.540  0.2102 -0.0107 -0.0032
 6828W        W23089   4.820   9.296   3.666  0.2565 -0.1765  0.1669
 6829W        W23090   6.156   7.665   1.006  0.0367  0.3775  0.2195
 6830W        W23091   2.768   2.335  15.542 -0.0089  0.0192 -0.1842
 6831W        W23092   1.109  16.795   2.291  0.0541  0.3243  0.1721
 6832W        W23093   9.231  13.825   2.064  0.0821  0.0931 -0.0586
 6833W        W23094   7.801   3.183   4.027  0.0763  0.0391 -0.1791
 6834W        W23095  10.294   0.078   3.475  0.0279  0.0982  0.0711
 6835W        W23096   9.140   3.935  14.635  0.0635  0.0318  0.0117
 6836W        W23097  11.914   3.046  15.655  0.1853 -0.0772  0.3281
 6837W        W23098  14.324   6.442   3.565 -0.0095 -0.0397  0.0149
 6838W        W23099  10.715  16.415  15.936  0.1779  0.1686 -0.0251
 6839W        W23100  16.483  12.192  14.213  0.2739  0.3046  0.0600
 6840W        W23101   8.418  11.890  12.647 -0.1579  0.1007  0.1027
 6841W        W23102   3.800  16.670   2.490  0.0762 -0.2397  0.1701
 6842W        W23103   4.539  13.953  14.800  0.0231  0.0517  0.3057
 6843W        W23104  15.219  10.015   0.054 -0.1562 -0.0728  0.0965
 6844W        W23105  15.596   9.311   2.919 -0.0326  0.1417  0.1252
 6845W        W23106   7.113   2.716   0.322  0.2866  0.1345 -0.1216
 6846W        W23107  17.724   9.308  11.862  0.2265 -0.2820  0.0764
 6847W        W23108  14.513   6.226   5.136 -0.2402  0.0774  0.0396
 6848W        W23109  10.350   7.985   4.410 -0.0377  0.0010 -0.0912
 6849W        W23110   7.219   0.945  13.037 -0.4961  0.0128 -0.1139
 6850W        W23111   6.154   6.430   3.042  0.2471  0.1175  0.0315
 6851W        W23112   4.200  10.277   5.362  0.2017  0.1474 -0.0419
 6852W        W23113   1.643  11.195   1.670 -0.1045  0.1129  0.1160
 6853W        W23114   4.320   9.213   2.824  0.0817 -0.1164 -0.0112
 6854W        W23115  10.276   7.832  14.107 -0.1303  0.0211 -0.0892
 6855W        W23116  12.575   0.551  12.608 -0.3629 -0.0139  0.3981
 6856W        W23117  13.882  11.001  16.890 -0.2367  0.2048 -0.2306
 6857W        W23118   7.585   2.814  15.430  0.2645  0.1294  0.1428
 6858W        W23119   2.209  10.065  16.749  0.2471 -0.2879  0.1980
 6859W        W23120   8.139   1.075  12.152 -0.2261  0.2133 -0.1597
 6860W        W23121  11.539   0.904  15.472 -0.0373 -0.1380 -0.0353
 6861W        W23122  12.174   2.549   1.272 -0.2116 -0.1036  0.1394
 6862W        W23123   4.583  10.852   4.133  0.3276 -0.0737  0.2862
 6863W        W23124  11.076  16.582   1.570 -0.0593 -0.2551 -0.1471
 6864W        W23125   9.501   9.816  11.062 -0.0084  0.1111 -0.0305
 6865W        W23126   7.422   1.841   5.290  0.3133  0.0325  0.0211
 6866W        W23127   7.811   2.738  12.341 -0.3044  0.1128  0.2549
 6867W        W23128   5.166  12.118  12.207  0.0286 -0.2460  0.1807
 6868W        W23129   2.686   7.674  15.598 -0.1899 -0.1619 -0.2231
 6869W        W23130  11.055   7.345  11.268 -0.0471 -0.1243  0.0653
 6870W        W23131  15.408  15.757   5.639  0.1461  0.1485 -0.2536
 6871W        W23132  13.084   1.297  12.897 -0.0460 -0.0007 -0.1630
 6872W        W23133  17.320  11.426  13.431 -0.1232  0.0348 -0.1924
 6873W        W23134   0.484  13.605  16.360 -0.0492  0.0299  0.5910
 6874W        W23135  14.459   8.592   4.048  0.0918  0.2170 -0.1642
 6875W        W23136  13.073  14.770   0.269  0.1739 -0.0202 -0.4068
 6876W        W23137   0.598   4.770   1.108  0.0518  0.0730  0.2657
 6877W        W23138   6.598   9.454   2.381  0.0828  0.0827  0.3924
 6878W        W23139   7.879  12.603  15.174  0.0313  0.1782 -0.0938
 6879W        W23140  16.592   2.322   4.483  0.2217  0.0313 -0.4173
 6880W        W23141  10.134   9.317  11.790 -0.1645 -0.2225 -0.0561
 6881W        W23142  11.340   9.906  11.436  0.2004 -0.1080 -0.0486
 6882W        W23143   7.703  17.090   1.030 -0.4520  0.1041  0.0992
 6883W        W23144   1.030   8.141   0.292 -0.5043 -0.1988 -0.2298
 6884W        W23145   1.822   3.999   1.712  0.1993 -0.2000 -0.2400
 6885W        W23146  13.995  17.788   1.253  0.0354 -0.0507 -0.1618
 6886W        W23147  14.385   2.652   4.698  0.1011 -0.1731  0.1695
 6887W        W23148  11.950  10.191   3.946 -0.3842  0.2130 -0.2774
 6888W        W23149  16.034  11.308  15.939 -0.0382 -0.3053 -0.2992
 6889W        W23150  17.510   9.830   0.476  0.0594 -0.1605 -0.0486
 6890W        W23151  13.803   5.169   3.350 -0.0262 -0.1859  0.1538
 6891W        W23152   3.457   1.966   0.230 -0.0819 -0.2452 -0.1389
 6892W        W23153   6.963  14.512   0.600  0.2645 -0.0241  0.1075
 6893W        W23154  13.124   8.315   5.691  0.1491 -0.1300 -0.1195
 6894W        W23155   4.949  11.582  16.013  0.0068 -0.0190 -0.0737
 6895W        W23156   0.846   2.499  14.823  0.1842 -0.0388 -0.2063
 6896W        W23157   1.180   2.883  14.677 -0.3098 -0.0418 -0.0445
 6897W        W23158  10.580   2.220   0.419 -0.3357  0.0143  0.2069
 6898W        W23159   1.401  14.008  14.860 -0.1418 -0.1138 -0.0213
 6899W        W23160   9.801  11.854   3.181  0.0566  0.1438 -0.2634
 6900W        W23161  11.362  10.430   5.976  0.1469  0.1432 -0.2432
 6901W        W23162   6.053   7.993  12.323 -0.0544  0.1601 -0.1011
 6902W        W23163   0.346   5.997   4.535 -0.0705  0.0656  0.0050
 6903W        W23164  15.531   0.136  12.646 -0.0380 -0.3296 -0.0322
 6904W        W23165   0.736   4.326   3.997  0.3765  0.6064 -0.0280
 6905W        W23166  13.513   7.768   0.967  0.1062  0.0412 -0.2718
 6906W        W23167   4.311  16.867  16.107 -0.3588  0.1247  0.0777
 6907W        W23168   9.828  17.519  15.278 -0.0870 -0.3343  0.0489
 6908W        W23169   1.399  11.448  15.988 -0.2297 -0.0681  0.1436
 6909W        W23170   5.775   8.747  14.937 -0.0711 -0.1772 -0.0944
 6910W        W23171  11.574   7.901   0.638 -0.2967  0.0785 -0.0351
 6911W        W23172   6.933  12.868  15.367 -0.0849 -0.0417  0.1863
 6912W        W23173  13.275   9.149  12.816  0.1946  0.1223  0.0904
 6913W        W23174  16.608  11.622  16.593  0.2402 -0.1322 -0.0833
 6914W        W23175  13.648   0.390  15.530 -0.1481  0.1526 -0.2991
 6915W        W23176   2.668   4.172   2.038  0.1599 -0.3705  0.3330
 6916W        W23177   0.237   8.598  14.077 -0.1442 -0.1024 -0.0684
 6917W        W23178   6.478   8.625   3.927 -0.2535  0.0989 -0.1262
 6918W        W23179  12.109   1.651   3.774 -0.0818 -0.0196 -0.1878
 6919W        W23180  14.172   2.841   0.122 -0.0212 -0.0527  0.0259
 6920W        W23181   7.714  16.992   3.710 -0.2020 -0.0182 -0.1707
 6921W        W23182   4.055   3.333  16.615 -0.1248  0.0448  0.0761
 6922W        W23183   1.058   0.617  14.423  0.2416  0.1959  0.1497
 6923W        W23184   8.661   3.781   5.192 -0.1759  0.0032 -0.0700
 6924W        W23185   2.824   3.266   3.061  0.3015  0.1888 -0.1459
 6925W        W23186   9.786   6.070  14.201  0.0262  0.1737 -0.2443
 6926W        W23187   0.054  10.700  11.817  0.4513 -0.2331 -0.1966
 6927W        W23188   7.012   4.677  14.424  0.0805 -0.0519  0.0859
 6928W        W23189   3.949   6.485  16.481  0.3918 -0.0071  0.0262
 6929W        W23190  13.165  15.827   5.051 -0.2189 -0.0329  0.2865
 6930W        W23191   6.282   5.927  12.635 -0.0336  0.0655  0.1133
 6931W        W23192   6.471  15.165  13.629 -0.1736  0.0159 -0.0501
 6932W        W23193  11.827   5.374  14.778  0.3629 -0.0186  0.3199
 6933W        W23194   1.014  11.319   4.077  0.0102  0.1154 -0.2095
 6934W        W23195   3.328  11.495  14.939  0.2326  0.0261 -0.1164
 6935W        W23196  15.433  13.390   4.657 -0.0176  0.1073  0.2996
 6936W        W23197   0.287  14.616  14.057  0.0017 -0.0527 -0.1305
 6937W        W23198   5.066  15.695  13.332  0.0873 -0.2555  0.1514
 6938W        W23199  14.281   9.321   3.244 -0.0549 -0.2747  0.0538
 6939W        W23200  17.289   1.146  13.010  0.1506  0.1444 -0.2896
 6940W        W23201   1.148  11.448  11.831  0.2089 -0.4569 -0.0895
 6941W        W23202  11.992  14.338   1.252 -0.0501 -0.1340 -0.1009
 6942W        W23203  13.981   2.323   0.034  0.1286 -0.1002  0.1220
 6943W        W23204  12.423   2.021   1.450  0.2097  0.1410 -0.1229
 6944W        W23205   0.204   0.573  12.997 -0.2065  0.0284  0.2799
 6945W        W23206  10.825  11.772  12.430 -0.0450 -0.0004  0.0121
 6946W        W23207   7.176  12.360   0.737 -0.2619  0.2174 -0.0900
 6947W        W23208   4.843  11.545  16.481 -0.0123  0.2111 -0.2407
 6948W        W23209   6.790  13.067   3.090  0.0374  0.1849 -0.0328
 6949W        W23210  15.509  12.979  12.903 -0.0447  0.3428 -0.0889
 6950W        W23211   1.211  11.926  16.151 -0.3994 -0.3530  0.2889
 6951W        W23212   0.606  12.791   4.808  0.5561 -0.2010  0.0246
 6952W        W23213   2.653  16.275  16.654 -0.1382 -0.0916  0.0352
 6953W        W23214   0.193   3.792  13.819 -0.3502  0.1122  0.0034
 6954W        W23215  17.089  10.338  15.877  0.3208  0.0192  0.3027
 6955W        W23216  12.369   4.170  13.920 -0.1334 -0.3152 -0.0276
 6956W        W23217  15.768  11.769   1.904 -0.1671  0.2149 -0.1936
 6957W        W23218   2.246  14.071   0.721 -0.1335 -0.2807 -0.0754
 6958W        W23219   1.223   8.782  16.645  0.0513  0.4200  0.2297
 6959W        W23220   7.251  15.389   1.132 -0.0090  0.1404 -0.2012
 6960W        W23221   9.864  15.907  16.785 -0.0301  0.0779 -0.0306
 6961W        W23222  17.847   0.322  16.610 -0.2411  0.0478 -0.1828
 6962W        W23223  15.475   9.787  16.517 -0.1128  0.0098 -0.1000
 6963W        W23224  12.719   9.795   3.801 -0.0500  0.0429 -0.1839
 6964W        W23225   2.025  15.747   3.082  0.0507 -0.1298  0.0652
 6965W        W23226   7.960   9.160   4.862 -0.0827  0.3435  0.1791
 6966W        W23227   4.019   5.373  14.308 -0.2155 -0.3254 -0.0667
 6967W        W23228  10.756  10.115  15.871  0.0365 -0.3373 -0.1896
 6968W        W23229   7.040   8.932   3.207 -0.3142  0.1244  0.0317
 6969W        W23230   4.531   8.729  15.829 -0.0905  0.0386 -0.1073
 6970W        W23231  15.485  17.518   2.246  0.0836 -0.1019 -0.0103
 6971W        W23232   5.535   8.890  14.074  0.3024  0.0087 -0.0594
 6972W        W23233   7.842  14.974  14.623  0.0022  0.2618 -0.1299
 6973W        W23234   0.934  12.788   3.404  0.0141 -0.0032  0.1089
 6974W        W23235   9.398   0.163   4.546 -0.2090  0.3461 -0.2485
 6975W        W23236  11.312   1.899   0.495 -0.0299 -0.2405  0.0979
 6976W        W23237   1.723  15.062   0.343 -0.2423 -0.1680 -0.2909
 6977W        W23238   9.991   8.170  13.134  0.4428  0.2273 -0.0115
 6978W        W23239  12.639   2.925  15.336  0.1806  0.1667  0.3187
 6979W        W23240   7.253   9.589   4.947  0.2334 -0.1985 -0.1363
 6980W        W23241  16.251  16.562  11.795 -0.0908 -0.2839  0.2444
 6981W        W23242  14.581  16.951   3.851  0.1022 -0.1475  0.0903
 6982W        W23243  16.917  17.769   3.012  0.1342  0.0800 -0.1043
 6983W        W23244   5.369  16.698   2.259  0.1880 -0.1729 -0.1705
 6984W        W23245   5.636   1.946   4.671  0.1828 -0.1354  0.0257
 6985W        W23246   1.490   8.975  14.781  0.0674 -0.2261 -0.0351
 6986W        W23247   1.449   0.082  13.127 -0.0356  0.1278  0.1050
 6987W        W23248  12.353   0.605  14.933  0.4261 -0.0552 -0.1184
 6988W        W23249  17.099   8.066   4.233 -0.0094 -0.0848  0.0256
 6989W        W23250   0.964  15.286  12.805  0.0962  0.1507 -0.1654
 6990W        W23251  16.384   8.877   1.419  0.1007  0.2919 -0.4189
 6991W        W23252   3.335   3.788  16.149 -0.0688  0.3194  0.1487
 6992W        W23253   8.677   9.780   1.015  0.1655  0.1570  0.0030
 6993W        W23254   9.889   9.544   3.030  0.1886 -0.1549 -0.0014
 6994W        W23255   6.168   2.050  15.727 -0.2161 -0.0849  0.1520
 6995W        W23256  15.217   6.023   1.297  0.1931 -0.1029  0.2457
 6996W        W23257  10.942   9.124   5.491  0.0924  0.0043 -0.1012
 6997W        W23258  12.147   8.606  12.652 -0.0856 -0.1021 -0.0338
 6998W        W23259  13.181   3.567   2.633 -0.1804 -0.0975  0.1258
 6999W        W23260  15.541  12.576   2.307  0.0341  0.0382  0.0054
 7000W        W23261   2.662  13.112  14.205 -0.2937  0.1063  0.0471
 7001W        W23262   4.791  17.851  12.872 -0.0704 -0.0565 -0.0343
 7002W        W23263   8.552   9.615   4.599  0.0874  0.1178 -0.0238
 7003W        W23264  16.536  16.364   0.133  0.0523 -0.1054 -0.0217
 7004W        W23265  14.619  10.036  12.219 -0.0617 -0.2904 -0.2927
 7005W        W23266  13.569  12.661  16.331 -0.2668  0.2706  0.3170
 7006W        W23267   8.461   2.469   0.745  0.0812 -0.0110 -0.0375
 7007W        W23268   6.721  16.970  14.247 -0.0321  0.1928 -0.1028
 7008W        W23269  10.383  17.571  12.379 -0.2761 -0.0905 -0.2940
 7009W        W23270   2.889  15.044   1.537 -0.0997  0.1729 -0.0253
 7010W        W23271   8.296  15.254  13.795  0.1362  0.0173  0.1396
 7011W        W23272  17.358  12.957   3.778  0.3000  0.0147  0.1706
 7012W        W23273  14.802  14.742  14.982  0.1395 -0.1439  0.1083
 7013W        W23274   9.198  13.163  13.780 -0.0714 -0.1097 -0.1480
 7014W        W23275   4.933   8.563  12.393  0.0485  0.0566 -0.0441
 7015W        W23276  15.138  14.261  14.367 -0.0376 -0.0432  0.1403
 7016W        W23277   9.849   5.837  15.740  0.0647 -0.0007  0.2096
 7017W        W23278   3.202   6.330  14.418 -0.4146 -0.1410  0.2955
 7018W        W23279   6.545   1.435   4.912  0.1115  0.0083  0.1617
 7019W        W23280  10.363   6.669  10.025  0.3578 -0.2241  0.0117
 7020W        W23281   4.481   7.221   4.565  0.1157 -0.1647  0.0238
 7021W        W23282  16.544   7.184  13.645 -0.1720 -0.0526  0.1796
 7022W        W23283   5.290   3.998   4.172  0.1867  0.1202  0.2168
 7023W        W23284   4.293   7.516  14.087 -0.2441  0.1307 -0.3025
 7024W        W23285  17.014  14.230   3.140 -0.1443 -0.2736  0.0464
 7025W        W23286   6.339   3.481  16.977  0.2469  0.1070  0.1638
 7026W        W23287   2.781   1.879  12.740 -0.0589  0.1204 -0.3159
 7027W        W23288   8.352   3.580   0.307 -0.0540  0.0890  0.2755
 7028W        W23289  12.810  10.988  13.864  0.1493 -0.0421 -0.0557
 7029W        W23290  10.110   1.647   1.092 -0.2442  0.0834  0.0803
 7030W        W23291   0.506   6.328  13.568 -0.0487  0.2304  0.1924
 7031W        W23292   2.493   9.011  13.099 -0.1573  0.0460  0.1602
 7032W        W23293  14.828   4.555   1.796 -0.1091  0.2537 -0.2342
 7033W        W23294  10.064  13.578   5.482 -0.1238 -0.0698  0.0681
 7034W        W23295  16.446   2.157  16.195  0.1749  0.0436  0.0029
 7035W        W23296   9.866   1.350   4.629  0.0772  0.0683 -0.0286
 7036W        W23297   2.260  12.005   3.016  0.2670 -0.1103  0.2615
 7037W        W23298  17.457   2.572  12.889  0.1074 -0.1200  0.1686
 7038W        W23299  11.380   4.494   0.374  0.1067 -0.2033  0.1857
 7039W        W23300  10.121  10.197   3.643  0.0215 -0.1880 -0.2387
 7040W        W23301   0.679   5.774  11.884 -0.2213  0.2638 -0.1542
 7041W        W23302   4.099  11.050   1.946 -0.2392 -0.1766  0.1500
 7042W        W23303  13.612  16.415  13.315 -0.0298 -0.2638  0.0356
 7043W        W23304   4.749  12.175   3.719  0.2405 -0.2859  0.0195
 7044W        W23305   3.900   9.159   5.096 -0.0235  0.0708 -0.1865
 7045W        W23306   1.697   4.886   4.487 -0.0078 -0.2113 -0.0990
 7046W        W23307  15.397  14.990   4.976 -0.0403 -0.1166  0.2792
 7047W        W23308  15.262  12.420   1.553  0.0606  0.0612  0.0066
 7048W        W23309   6.225   2.194  12.930  0.0216  0.1209  0.0408
 7049W        W23310  16.735   9.566  12.342  0.0651  0.2217  0.1534
 7050W        W23311   4.185   2.192   5.345  0.0071 -0.0198  0.0864
 7051W        W23312   2.443   8.734   3.609 -0.0405  0.1047  0.4901
 7052W        W23313  15.436  10.423  13.182 -0.0810 -0.0350 -0.0268
 7053W        W23314   0.710   3.409   1.461  0.2049 -0.1294  0.0943
 7054W        W23315  17.669  15.003   0.313  0.0108 -0.2165 -0.0747
 7055W        W23316  12.205  12.384   3.475  0.1921  0.0435 -0.0916
 7056W        W23317   3.455   9.977  16.692 -0.1182  0.0364 -0.0199
 7057W        W23318  15.583  17.302   1.804  0.0174 -0.2749  0.0472
 7058W        W23319   2.812  15.737   2.647 -0.0452 -0.1170 -0.1522
 7059W        W23320  12.346   5.958  13.639 -0.0965 -0.0477 -0.1319
 7060W        W23321   3.283   1.137  16.579  0.0527 -0.4789  0.2091
 7061W        W23322  11.056  11.234   4.228 -0.2635 -0.0207  0.0356
 7062W        W23323   2.327   5.924  15.438 -0.2914  0.1500 -0.3677
 7063W        W23324  11.715   2.794   0.011 -0.1509 -0.0084 -0.0980
 7064W        W23325   0.267  16.864  12.950  0.2483 -0.0666 -0.0625
 7065W        W23326  12.039  16.371   3.649  0.0929 -0.0706 -0.0533
 7066W        W23327   3.152  12.500  13.574  0.1806 -0.0438  0.1603
 7067W        W23328   6.415  14.016  15.011  0.0626  0.1682 -0.1064
 7068W        W23329   4.548   3.927   0.080 -0.3098  0.2130 -0.1072
 7069W        W23330  10.642  12.671  15.137 -0.4327  0.0345  0.3218
 7070W        W23331   7.551   6.661  15.915 -0.1699 -0.0764 -0.2206
 7071W        W23332  17.165  13.142  16.071  0.0041  0.1473  0.3141
 7072W        W23333   8.871   9.895  13.013  0.1449 -0.2644  0.0396
 7073W        W23334  11.516   5.767   3.237 -0.1231  0.0617 -0.2503
 7074W        W23335   1.619  17.153   1.474 -0.2384 -0.1826 -0.0753
 7075W        W23336   6.226  11.517  14.629 -0.0647  0.3936  0.3416
 7076W        W23337  10.860  13.502  12.364 -0.1171 -0.2248 -0.0342
 7077W        W23338   2.668   8.855   1.442  0.0681  0.0725  0.1026
 7078W        W23339   5.172  14.399   4.986 -0.0425 -0.0123  0.2333
 7079W        W23340  15.430   8.111   1.466  0.1568 -0.0736 -0.0579
 7080W        W23341  17.820  17.437   4.142  0.0555  0.2557 -0.0094
 7081W        W23342   7.032   6.619   5.302  0.1638 -0.0565 -0.1117
 7082W        W23343   8.143  16.960   5.123 -0.0864 -0.1820 -0.0313
 7083W        W23344   4.389   8.345   1.424  0.6042  0.0874  0.2115
 7084W        W23345  12.943   7.498   3.840 -0.0835 -0.1675 -0.0340
 7085W        W23346   6.502  11.071   5.843 -0.0224  0.0298 -0.4137
 7086W        W23347  17.367  16.151   4.475 -0.2523 -0.0909 -0.2015
 7087W        W23348  16.024   0.778  12.230 -0.0065 -0.1174 -0.0138
 7088W        W23349   3.369   0.776   3.564 -0.3572 -0.0191 -0.1380
 7089W        W23350   9.647   9.660   0.192 -0.2159 -0.0168  0.2053
 7090W        W23351  10.295   8.130   5.595  0.1757 -0.0947 -0.2933
 7091W        W23352   2.951   1.137  12.559  0.1792 -0.0859  0.0584
 7092W        W23353  11.270   3.344   2.329  0.0478  0.1494 -0.2110
 7093W        W23354  13.428  15.580  13.450 -0.0506 -0.1183  0.1382
 7094W        W23355  10.043  10.082  16.901  0.1689  0.1608  0.1122
 7095W        W23356  13.994  13.246   3.614 -0.3498  0.1547 -0.0572
 7096W        W23357   8.760   1.885   5.427  0.2836  0.0422  0.2037
 7097W        W23358   2.566   0.693  14.457  0.2881 -0.2509  0.0376
 7098W        W23359   7.107   5.900  15.803  0.1047 -0.1752  0.0989
 7099W        W23360  10.934   2.335   5.597 -0.1765 -0.1175 -0.0072
 7100W        W23361  16.666   6.767  12.622 -0.1539 -0.2637 -0.0069
 7101W        W23362  14.715   6.148   0.990  0.0409  0.0065 -0.4879
 7102W        W23363   0.643   6.466   3.392  0.0843  0.4244  0.3274
 7103W        W23364   0.222  11.011  13.361 -0.1511  0.2189  0.0679
 7104W        W23365   0.779  10.648   1.099 -0.0943  0.0831  0.0937
 7105W        W23366  13.486  16.242  12.512 -0.1491  0.0136  0.1163
 7106W        W23367  15.650   2.484   0.740  0.4136 -0.0808  0.1294
 7107W        W23368   5.081   0.541  14.176  0.1914  0.2382 -0.0907
 7108W        W23369   8.331   0.860  13.917 -0.0018 -0.0970  0.0001
 7109W        W23370   9.064  10.267  14.412  0.3624  0.0217 -0.0161
 7110W        W23371   2.239  16.718  12.508 -0.3337  0.0369 -0.1351
 7111W        W23372   3.691  17.362  16.269 -0.0684  0.1937  0.0641
 7112W        W23373   2.275  17.295  15.867 -0.0554  0.0427  0.1333
 7113W        W23374   9.261   5.625   4.215 -0.0105  0.1127  0.4585
 7114W        W23375   0.383  17.810  15.645  0.0605  0.1911 -0.1644
 7115W        W23376  11.769   2.062  14.799 -0.4106  0.0925  0.0246
 7116W        W23377   2.337   9.878   0.689 -0.0662  0.0576 -0.2858
 7117W        W23378   3.839  15.845   0.747  0.1404 -0.1868 -0.0178
 7118W        W23379  16.988  13.445  14.143  0.4517 -0.1066  0.1952
 7119W        W23380  16.846   6.528   4.303  0.2541 -0.0690  0.0316
 7120W        W23381  10.772   7.504  11.724  0.0009 -0.0965 -0.1865
 7121W        W23382   4.381   1.114   2.623 -0.1387 -0.1726 -0.0385
 7122W        W23383  17.752   5.845   5.636  0.1817  0.1845 -0.1912
 7123W        W23384  16.244  13.336  15.821 -0.0530 -0.3259  0.1576
 7124W        W23385  16.995  11.049   5.261  0.0397  0.4558  0.0484
 7125W        W23386   7.640  12.381   5.000 -0.1557 -0.0445 -0.0411
 7126W        W23387  15.078  17.408   1.483 -0.0001 -0.0383  0.3468
 7127W        W23388  13.934   3.435  16.515 -0.0759 -0.0330 -0.2844
 7128W        W23389  14.823   0.583   5.156 -0.1708 -0.1174  0.1015
 7129W        W23390   0.390   5.424   3.187  0.0294  0.1029 -0.2220
 7130W        W23391  14.382   4.040  14.209 -0.0903 -0.2043  0.1746
 7131W        W23392   7.177  13.649   0.991 -0.2562 -0.0970 -0.1982
 7132W        W23393   3.121  12.368  12.987 -0.1608  0.0834  0.2093
 7133W        W23394   6.421  16.194   2.608 -0.0483  0.0054  0.0259
 7134W        W23395   7.341  12.603  14.372  0.3194 -0.1328 -0.1108
 7135W        W23396   2.040   6.565   3.933 -0.1386  0.2255  0.1443
 7136W        W23397   1.551  10.605   2.149  0.2068  0.0617 -0.1306
 7137W        W23398   9.823   1.559   0.163 -0.1777  0.1264 -0.1685
 7138W        W23399   9.795   6.250   4.494  0.0650  0.2307  0.0599
 7139W        W23400   7.741   4.795  13.279  0.1264  0.2452  0.0649
 7140W        W23401   1.295   8.164  14.276 -0.1622 -0.1882  0.2176
 7141W        W23402  10.510   6.410  16.168 -0.1201 -0.0233 -0.1175
 7142W        W23403   6.124  17.207  15.397 -0.2102 -0.1937  0.0566
 7143W        W23404   4.148   9.935   5.766  0.1758  0.0108  0.1805
 7144W        W23405  16.869   1.473   2.091 -0.0903  0.4411 -0.4264
 7145W        W23406   7.192  12.418  15.522 -0.2826  0.1461 -0.0540
 7146W        W23407   5.158  13.147   3.243  0.0874 -0.0664  0.2033
 7147W        W23408  13.421  11.689   4.876  0.0244 -0.0479 -0.1056
 7148W        W23409   5.749   2.661  11.583 -0.3299 -0.0610  0.0984
 7149W        W23410   4.537  12.100  16.562  0.1202 -0.1208 -0.4345
 7150W        W23411   2.104  13.780  14.339 -0.2308 -0.1411  0.1593
 7151W        W23412  13.152   2.460   4.003 -0.0249  0.0705  0.0514
 7152W        W23413   0.122   6.367  13.887  0.2262 -0.1018  0.1433
 7153W        W23414   9.707  12.773  11.908 -0.0400 -0.4315  0.3645
 7154W        W23415   5.206   6.905  16.144 -0.0081  0.2975  0.1227
 7155W        W23416   5.653   1.736   3.120  0.3209 -0.1680 -0.2297
 7156W        W23417   8.864   4.146   2.545  0.1261  0.0313 -0.3739
 7157W        W23418   1.459   0.101  14.519  0.1642  0.2847 -0.2051
 7158W        W23419  12.744   7.508   0.529  0.3327 -0.0603 -0.1346
 7159W        W23420   2.389   6.168  13.953 -0.1496  0.0941 -0.0714
 7160W        W23421   7.438  16.654  13.994  0.1375  0.0955  0.0531
 7161W        W23422   2.367  11.631  14.240  0.0078  0.0657  0.0111
 7162W        W23423  16.519   1.081   3.513 -0.0379  0.1857  0.1071
 7163W        W23424  11.590   6.296  15.466  0.2832 -0.0941  0.0829
 7164W        W23425  10.438   7.807   0.796  0.0409  0.0255 -0.0380
 7165W        W23426   6.189   3.463   4.452 -0.3027  0.2472  0.0268
 7166W        W23427  14.913   3.750  16.646 -0.2246  0.0179 -0.3586
 7167W        W23428   6.998   6.700   3.713 -0.0458 -0.1543 -0.2243
 7168W        W23429  10.890   7.989   1.046  0.0393 -0.5200 -0.3950
 7169W        W23430   1.794  13.100  16.193 -0.1656 -0.1142 -0.1855
 7170W        W23431  13.877  15.232   2.865  0.0275  0.1222  0.2684
 7171W        W23432  17.799  16.679   0.682 -0.0141  0.1389 -0.1371
 7172W        W23433   2.061  12.563   5.619 -0.0205  0.0436  0.0755
 7173W        W23434   9.189   0.931   6.134  0.2415  0.0014  0.0621
 7174W        W23435  11.945   3.716   4.498 -0.2317  0.0694  0.0048
 7175W        W23436  15.553   3.944   5.092  0.3100 -0.2404  0.0596
 7176W        W23437   3.073   1.816   0.552  0.4209  0.2452 -0.1213
 7177W        W23438   1.312   3.789   2.501  0.0246  0.0179  0.2348
 7178W        W23439   0.357  10.344  16.369  0.1922  0.0802 -0.2022
 7179W        W23440   2.505  11.589  12.441 -0.0137 -0.1185 -0.2847
 7180W        W23441   8.650  11.792  14.906 -0.1783 -0.1931 -0.1241
 7181W        W23442   0.304   7.545  16.976  0.0740  0.0897 -0.0495
 7182W        W23443  10.313   6.054   1.711  0.1983  0.2094 -0.0308
 7183W        W23444  11.387  16.146   2.552  0.3351  0.1958  0.1311
 7184W        W23445  14.709  12.886  15.148  0.3516 -0.0034 -0.0667
 7185W        W23446  13.555   2.699  15.042  0.5230 -0.1873 -0.2747
 7186W        W23447   2.873  14.388   0.831 -0.2409  0.0663  0.0934
 7187W        W23448   2.216   1.361  12.019 -0.1005  0.1162 -0.3423
 7188W        W23449  17.590   9.015   3.554 -0.0535  0.1801 -0.0760
 7189W        W23450   3.847   0.119   5.141  0.1222 -0.0159  0.1297
 7190W        W23451   2.249   6.547  16.073  0.1242  0.0091  0.2140
 7191W        W23452   9.036   6.758   0.871  0.0683 -0.0429  0.4376
 7192W        W23453   4.621   0.914  16.519  0.0633 -0.2351  0.0942
 7193W        W23454   8.197  15.817   6.534 -0.2017 -0.2151 -0.4980
 7194W        W23455   8.614  12.137   3.508  0.1907 -0.0399  0.1448
 7195W        W23456  14.880  17.287   4.157 -0.0314 -0.0632 -0.1534
 7196W        W23457  13.781  11.997  12.670  0.0335  0.0927  0.3001
 7197W        W23458   9.680   2.598   2.663 -0.0102  0.1865 -0.1464
 7198W        W23459   0.656  15.421   0.669 -0.1730 -0.0228 -0.0253
 7199W        W23460  10.848   1.603  10.739  0.1326 -0.1531 -0.0703
 7200W        W23461   3.721   5.338   3.323  0.0437  0.1791  0.0049
 7201W        W23462   6.366   6.511  15.409  0.0860 -0.0876 -0.0722
 7202W        W23463   3.276   7.351   2.752 -0.0511 -0.1770  0.3495
 7203W        W23464  16.585   4.343  11.765 -0.1597  0.2615  0.0450
 7204W        W23465   2.187   6.356  16.689 -0.0146  0.0506  0.0722
 7205W        W23466   1.100   8.274  15.359 -0.2246 -0.0788  0.2441
 7206W        W23467   4.535  12.658   1.561 -0.2839  0.3453 -0.2849
 7207W        W23468   8.226   1.590   0.651  0.0189  0.2368 -0.5160
 7208W        W23469   6.713   5.034   2.563  0.0518 -0.0159 -0.2216
 7209W        W23470   8.462   4.458   2.417  0.1128  0.2849 -0.2278
 7210W        W23471  15.660  12.731  12.387 -0.1165  0.0763  0.1512
 7211W        W23472  13.778   8.534   5.027 -0.4344  0.0141  0.0954
 7212W        W23473  14.590  12.309  15.224  0.1503 -0.0409 -0.1454
 7213W        W23474   0.067   3.069   4.350  0.1645 -0.1584  0.0163
 7214W        W23475   5.496   0.457   0.000  0.1164 -0.0118 -0.1467
 7215W        W23476  12.670   2.436   6.488  0.1374  0.0166 -0.2553
 7216W        W23477   8.581   8.106   6.315 -0.1026 -0.1739  0.0546
 7217W        W23478   5.833  11.769   2.699 -0.0014  0.1859  0.0794
 7218W        W23479  16.904   4.303   4.895 -0.1378 -0.3504  0.0632
 7219W        W23480  13.079   6.806  11.590 -0.1291 -0.1437 -0.2520
 7220W        W23481   4.862  14.347  12.216 -0.1706  0.0085  0.2471
 7221W        W23482   8.653   7.116  13.324 -0.1310  0.1219  0.0903
 7222W        W23483   6.387  16.966   3.149  0.0189  0.0194 -0.1093
 7223W        W23484  11.112   0.819   0.183 -0.1399  0.1345 -0.1491
 7224W        W23485   2.382   0.599   4.221 -0.3940  0.3790  0.0520
 7225W        W23486   4.079  11.969  14.491 -0.0003  0.0515 -0.4751
 7226W        W23487   3.627   7.206  15.798 -0.1221 -0.0515  0.1733
 7227W        W23488   8.081  14.986   2.823  0.0382 -0.0179  0.1376
 7228W        W23489  17.392   0.907   0.894  0.1165  0.0699 -0.1312
 7229W        W23490   9.497   5.318   5.827 -0.0943 -0.3314  0.4230
 7230W        W23491  11.641   9.019  12.627 -0.1487  0.1315  0.0045
 7231W        W23492   4.589   3.271   4.600 -0.0286  0.1776  0.0669
 7232W        W23493   9.103  14.258  12.831 -0.2185 -0.2796 -0.0748
 7233W        W23494  10.381   2.647   3.140 -0.1266  0.0578  0.1211
 7234W        W23495  12.980  15.338  12.572 -0.2520 -0.0719 -0.1039
 7235W        W23496   3.235  17.195  13.780  0.0108 -0.0653  0.3412
 7236W        W23497   4.253   3.711   4.461 -0.0571 -0.0940  0.1829
 7237W        W23498   4.553  15.117  12.734 -0.0279 -0.0155  0.1608
 7238W        W23499   5.746  11.247  11.974 -0.2946 -0.0998  0.0404
 7239W        W23500  14.118   5.796   1.285 -0.0023 -0.1568 -0.1367
 7240W        W23501  17.354  17.625  15.275 -0.2408 -0.0852  0.3863
 7241W        W23502   6.169   5.496   4.702 -0.0424  0.0140 -0.2305
 7242W        W23503  11.978  14.089   2.186 -0.0446  0.1242  0.0994
 7243W        W23504  15.500   0.504  15.253 -0.1982 -0.1982  0.0298
 7244W        W23505   4.304  12.192   2.960  0.0770 -0.0091  0.2283
 7245W        W23506  16.344   0.457  15.983 -0.1159 -0.0534 -0.3948
 7246W        W23507   5.807   0.684  15.152 -0.0029  0.3916 -0.0316
 7247W        W23508   6.160  12.412  15.685 -0.0124 -0.0383  0.1111
 7248W        W23509  16.542  17.023   3.615 -0.1967 -0.2446  0.0487
 7249W        W23510  13.247   1.271  15.007 -0.1588  0.2908  0.3214
 7250W        W23511  13.796   2.883  14.014 -0.0481 -0.0584 -0.0052
 7251W        W23512  17.640  13.266   4.508 -0.2580  0.1811  0.1655
 7252W        W23513  13.066  14.885   0.858  0.1966 -0.3008  0.0771
 7253W        W23514   0.363  16.706   3.489 -0.0450 -0.1901 -0.0753
 7254W        W23515  15.514   5.872   3.290  0.1722 -0.1096  0.0578
 7255W        W23516  14.513   6.013  12.103 -0.3023  0.2954 -0.1216
 7256W        W23517  17.036   7.556   4.400  0.0902  0.1924  0.0187
 7257W        W23518   9.444  11.837   0.194  0.2133 -0.0900 -0.1352
 7258W        W23519   2.524  15.286   2.736 -0.2081  0.1299 -0.5278
 7259W        W23520   8.650   1.733  13.106  0.1629  0.1929 -0.0434
 7260W        W23521   7.807  15.881  13.495  0.2994 -0.0235  0.0440
 7261W        W23522   3.454  16.477   6.074  0.0633  0.2227  0.1287
 7262W        W23523   6.039   8.531  11.961  0.3816 -0.1496 -0.0327
 7263W        W23524  13.662   3.155   1.876  0.1264 -0.2495  0.0102
 7264W        W23525   3.503   8.083  16.859  0.1741 -0.0084  0.0917
 7265W        W23526  11.580   5.516   4.843  0.0098  0.0443  0.1293
 7266W        W23527   3.036   1.059  13.729 -0.2584  0.0776  0.1691
 7267W        W23528   4.414  15.095   3.038 -0.1827  0.2850  0.2810
 7268W        W23529   5.196   2.165  12.943  0.3549  0.2622 -0.2150
 7269W        W23530   4.396   6.114   3.388  0.0546  0.0866  0.1422
 7270W        W23531  15.026  13.886  15.328 -0.1709  0.0158 -0.1923
 7271W        W23532  15.103   3.044   2.015 -0.0230  0.1304 -0.0307
 7272W        W23533  15.777  10.093   2.158  0.1531  0.0662  0.0674
 7273W        W23534   4.578   7.174  13.861  0.0006 -0.1053 -0.1863
 7274W        W23535   2.793  10.343   4.736 -0.0843 -0.0994 -0.1826
 7275W        W23536   1.716   0.953  12.892 -0.2926 -0.2255 -0.0429
 7276W        W23537  14.375   6.206   5.592 -0.0948  0.4865  0.1717
 7277W        W23538   5.587   1.408  14.479 -0.0497 -0.0872 -0.0782
 7278W        W23539   9.785   5.866   1.831 -0.0457 -0.2056  0.0602
 7279W        W23540  14.408  16.012  15.481 -0.3311 -0.2588 -0.1723
 7280W        W23541  15.897  10.528   0.164 -0.1500  0.1316 -0.1001
 7281W        W23542   1.990   0.986   0.891  0.0929  0.0865 -0.1427
 7282W        W23543   3.188  17.002  16.869  0.0316  0.2663 -0.0111
 7283W        W23544   6.782  16.577   2.390 -0.3376 -0.1804 -0.2539
 7284W        W23545   0.515   0.239  13.210 -0.3725  0.2650  0.1713
 7285W        W23546   9.591  11.323   2.891 -0.1473 -0.4716 -0.0170
 7286W        W23547  17.568   8.131   4.083  0.0209 -0.0488  0.1456
 7287W        W23548   2.749  11.896  12.100  0.3727  0.0428  0.0691
 7288W        W23549  12.431  13.615  15.047  0.1804 -0.0119 -0.1855
 7289W        W23550  11.099  13.582  14.219  0.1432  0.0485 -0.0392
 7290W        W23551  11.894   4.140  14.298 -0.1197 -0.2557  0.0365
 7291W        W23552  17.565  15.412  16.476  0.3837 -0.1212 -0.2892
 7292W        W23553   0.374   5.488  16.369  0.1120  0.0552  0.1283
 7293W        W23554   0.065  10.812   2.752  0.1755  0.6115 -0.0999
 7294W        W23555  17.831   2.422   3.845 -0.1228 -0.0882 -0.0775
 7295W        W23556   1.771  15.699  11.560  0.0946  0.0323 -0.2093
 7296W        W23557  10.733   0.828  10.744 -0.1767  0.2307 -0.1758
 7297W        W23558  11.324  10.515  16.590  0.1185  0.2553  0.0707
 7298W        W23559  10.401   3.129  12.044  0.0985 -0.1210  0.1585
 7299W        W23560  16.258   5.213   4.733 -0.3886 -0.3328 -0.0924
 7300W        W23561   9.234  11.712   0.772  0.3375 -0.2821  0.1787
 7301W        W23562   2.792   8.116   3.483  0.0871 -0.4463 -0.1599
 7302W        W23563  10.573   3.872   2.030 -0.1275  0.3380  0.1841
 7303W        W23564   3.958   0.801   0.578  0.1231 -0.0892  0.2026
 7304W        W23565   1.180  13.309  11.902  0.0273  0.4986 -0.1447
 7305W        W23566   5.644   0.584  16.539  0.1488 -0.5003 -0.0887
 7306W        W23567  14.729  11.558   1.950 -0.1663  0.0623 -0.0293
 7307W        W23568  15.272  11.360  16.238  0.1678  0.1580 -0.0570
 7308W        W23569   9.183   4.687  11.958  0.1723 -0.1055  0.0022
 7309W        W23570  17.499  14.758  14.803  0.2121 -0.0111 -0.1114
 7310W        W23571  14.616   3.795  13.054 -0.0315 -0.6176 -0.3313
 7311W        W23572   1.282   1.489  13.378 -0.2052  0.2043  0.0222
 7312W        W23573  13.966   5.360   1.667  0.0008 -0.4753 -0.2592
 7313W        W23574  11.134  12.510   4.129 -0.0581  0.1864  0.1008
 7314W        W23575  12.236   0.434  13.414 -0.0040  0.1317 -0.2088
 7315W        W23576   2.895   1.716   0.069  0.2573  0.1415  0.1630
 7316W        W23577  10.652   1.624   1.205 -0.0998  0.0143 -0.0903
 7317W        W23578  17.165   3.883  14.779 -0.1738  0.0703 -0.0891
 7318W        W23579   3.467  17.363  16.763  0.0281 -0.1826  0.0853
 7319W        W23580   2.797  16.334  12.932  0.1766 -0.1101 -0.0475
 7320W        W23581  11.223   6.948   3.880 -0.1330 -0.1029 -0.2556
 7321W        W23582   4.610   5.720  12.394 -0.1087 -0.3334 -0.0004
 7322W        W23583   7.534   9.161  11.491  0.0836  0.2862 -0.3381
 7323W        W23584  13.607   9.074  10.190 -0.1476  0.1258 -0.2116
 7324W        W23585   6.145  15.147  12.003  0.0845 -0.2144 -0.0775
 7325W        W23586  17.150  17.095  16.322  0.0817  0.1758  0.3858
 7326W        W23587   1.322   5.575  10.943  0.0944  0.0871  0.1244
 7327W        W23588   7.663  17.299  16.108  0.2388 -0.0608  0.0126
 7328W        W23589   8.467  10.520  12.524 -0.1347 -0.1816  0.1324
 7329W        W23590  13.714  14.967   0.677  0.1073  0.1775  0.2729
 7330W        W23591   2.222  12.214  16.857 -0.0089 -0.2069  0.0380
 7331W        W23592   2.305   3.236   3.793 -0.1158 -0.0066 -0.1309
 7332W        W23593  11.663  11.938   0.511  0.0356 -0.0420 -0.0306
 7333W        W23594   3.403   2.658  11.501 -0.1858 -0.0664  0.4712
 7334W        W23595  11.963  10.071   0.450 -0.0416 -0.3637 -0.1603
 7335W        W23596   8.112  11.524   1.410 -0.0789  0.1044  0.1349
 7336W        W23597  10.224  11.111  15.588  0.2299 -0.0528  0.1084
 7337W        W23598   3.205   9.420   1.628 -0.1125 -0.2624  0.0429
 7338W        W23599  14.669   8.471  14.582  0.0814 -0.1622  0.2483
 7339W        W23600   0.031  11.853   3.869  0.1072 -0.0534  0.0425
 7340W        W23601   2.949  10.326   3.297 -0.1528  0.0727  0.2897
 7341W        W23602  14.916  16.841   5.056 -0.4212 -0.0840 -0.1518
 7342W        W23603   0.380   4.988  13.917  0.3403 -0.2178 -0.2467
 7343W        W23604   1.343   6.379  16.702  0.1439 -0.1520  0.0570
 7344W        W23605   8.227  12.838   5.460  0.3123  0.0660  0.0244
 7345W        W23606  10.870  12.223  12.613  0.0615 -0.1291  0.2030
 7346W        W23607   5.012   1.824   4.886  0.0768  0.0198 -0.1151
 7347W        W23608  14.006  14.575   2.168  0.2573  0.0188 -0.0031
 7348W        W23609  12.930   8.875  12.498  0.1111  0.1848 -0.1189
 7349W        W23610  10.184   4.672   4.006 -0.2109  0.1300  0.0327
 7350W        W23611  13.453  10.075  12.546  0.0851 -0.1977  0.1847
 7351W        W23612   0.502   4.912  13.057 -0.1009  0.2709 -0.2296
 7352W        W23613  15.013  14.495  12.360 -0.0261 -0.3026  0.3970
 7353W        W23614  15.040   3.350  15.357 -0.1760 -0.0829  0.1756
 7354W        W23615  14.081  12.640  16.497 -0.0487  0.2043 -0.0856
 7355W        W23616  10.968   3.214   1.486  0.2806  0.0399 -0.0747
 7356W        W23617  12.236  11.130   3.622  0.0474 -0.0526  0.2114
 7357W        W23618   5.817   5.599  15.986 -0.2361  0.0121 -0.0406
 7358W        W23619  16.324  12.214  12.665 -0.0293 -0.0468 -0.2265
 7359W        W23620  14.624   8.450   0.987  0.2519 -0.2608 -0.1213
 7360W        W23621   1.336  12.890  12.405  0.2165 -0.0344  0.0165
 7361W        W23622  14.540  17.431  15.606 -0.1530  0.2442  0.1073
 7362W        W23623   3.723  16.555  14.584 -0.1107  0.0889  0.0498
 7363W        W23624  17.358   9.637   4.064 -0.0809 -0.1112 -0.1155
 7364W        W23625  15.796  16.853  10.881  0.0992 -0.1974  0.1316
 7365W        W23626  11.504  14.480   4.147  0.0471  0.2183 -0.2111
 7366W        W23627   8.348   5.068   3.576  0.0700  0.1148 -0.0525
 7367W        W23628  11.504   4.398  16.337 -0.4953 -0.1745  0.0098
 7368W        W23629   0.186   8.813   3.066 -0.0596  0.1291 -0.0224
 7369W        W23630  15.179  15.754  11.917  0.1161  0.2187  0.0582
 7370W        W23631  14.161  11.728   1.385 -0.1032 -0.2383 -0.0405
 7371W        W23632  17.086   4.215   5.365 -0.1150  0.0110 -0.1026
 7372W        W23633   4.425   4.840  15.016 -0.3019  0.2447 -0.1219
 7373W        W23634   4.420   4.576   6.348 -0.2568  0.0976 -0.4125
 7374W        W23635   9.817   2.790  16.172 -0.0361 -0.0608  0.2616
 7375W        W23636   0.781  16.067  13.109  0.1181 -0.0961 -0.1647
 7376W        W23637  13.825   5.419   5.253 -0.0351  0.1243 -0.0254
 7377W        W23638  14.228   6.081   0.846 -0.0661 -0.3037  0.0858
 7378W        W23639  12.674  12.669   3.452  0.0901 -0.0592 -0.0289
 7379W        W23640   0.888   0.104  15.368  0.0375 -0.2040  0.0637
 7380W        W23641   0.975   6.951   6.004 -0.1241 -0.1715  0.0547
 7381W        W23642  14.209  13.729   5.245 -0.0045  0.0329  0.3117
 7382W        W23643   2.774   9.043   0.120  0.0040  0.0109 -0.0769
 7383W        W23644   2.292   5.576   1.458  0.1900 -0.1243 -0.0782
 7384W        W23645   1.506   4.055  13.057  0.0084 -0.0378 -0.0037
 7385W        W23646  11.028   6.511   4.144  0.1347 -0.3021  0.1250
 7386W        W23647  12.095   0.099   0.910 -0.1559 -0.0317 -0.1455
 7387W        W23648  13.443  11.332   0.144 -0.1315 -0.1063 -0.1008
 7388W        W23649   9.993  10.459  13.820  0.0554 -0.1161 -0.1895
 7389W        W23650  14.426   5.160  16.175 -0.0940  0.2816 -0.2148
 7390W        W23651   2.471  11.304   0.173 -0.2380 -0.0205  0.0597
 7391W        W23652  17.012   4.778   0.903 -0.1927  0.0630 -0.3040
 7392W        W23653  11.788  15.412   6.041 -0.1673  0.3383  0.0832
 7393W        W23654  10.674   2.639  16.673  0.0906 -0.3545 -0.1087
 7394W        W23655   2.458  14.289   5.027 -0.2559  0.2219  0.0740
 7395W        W23656   4.246  11.839   1.277 -0.1226  0.1574 -0.3630
 7396W        W23657   9.382  11.807  15.872  0.0086 -0.1089  0.0412
 7397W        W23658   5.648   9.609   3.547 -0.1620 -0.2763 -0.0676
 7398W        W23659  15.289   4.825  12.159  0.3563  0.0872  0.1957
 7399W        W23660  14.432   9.886   2.372 -0.0086 -0.3691  0.2296
 7400W        W23661   8.850   8.206  15.773 -0.0086  0.0328  0.2257
 7401W        W23662   3.007  15.364   1.915 -0.0132  0.3145 -0.0479
 7402W        W23663  16.805   7.449  14.568 -0.0267  0.1550  0.3319
 7403W        W23664   7.749   4.064  14.520 -0.2781  0.3701  0.0041
 7404W        W23665   0.182  14.699  11.725 -0.0841 -0.1143 -0.1911
 7405W        W23666   3.831   3.018  13.921  0.1969  0.1430 -0.2096
 7406W        W23667   7.716   6.203   0.317 -0.1948  0.0584  0.3197
 7407W        W23668  12.847   4.748  14.457 -0.1021  0.0571 -0.0133
 7408W        W23669  11.651   8.254   5.360 -0.0096 -0.0789  0.2395
 7409W        W23670   7.996  16.018   0.239  0.1574  0.2177  0.0929
 7410W        W23671  10.082   4.190   0.748 -0.0130  0.1838  0.3875
 7411W        W23672   5.473   1.130  13.637  0.0737 -0.1341  0.0780
 7412W        W23673   8.680  16.657   2.558  0.1746 -0.0059 -0.0805
 7413W        W23674   3.649  13.963   4.446  0.2478  0.0088  0.1264
 7414W        W23675  12.651   0.973  15.737  0.2185  0.0191  0.0016
 7415W        W23676  15.409   5.608   4.508  0.2516 -0.2523 -0.3318
 7416W        W23677   4.141  13.260   5.457  0.1689  0.0304  0.1102
 7417W        W23678   9.044   0.310   4.981 -0.1845 -0.0099  0.0907
 7418W        W23679  14.870  10.458   4.634 -0.0381  0.0095  0.2535
 7419W        W23680   8.679  11.834   3.945 -0.0677 -0.3305 -0.0975
 7420W        W23681   2.201  17.072   4.535 -0.0298 -0.0761 -0.0266
 7421W        W23682   5.631   4.022   3.251 -0.0322 -0.0627 -0.1104
 7422W        W23683   7.865   0.573  14.475  0.0540 -0.2161  0.1754
 7423W        W23684   0.519  17.710   0.904 -0.2884 -0.3027 -0.1453
 7424W        W23685  10.508   5.715   5.027  0.1149  0.0986 -0.0506
 7425W        W23686  16.217   7.846   1.352 -0.2928  0.3895 -0.1162
 7426W        W23687  14.768   8.349   4.919  0.0387 -0.2202  0.1511
 7427W        W23688  14.963  12.746   0.774  0.0073  0.0479 -0.0070
 7428W        W23689  12.687  13.139  14.810 -0.2891  0.2523 -0.2456
 7429W        W23690  13.603   9.429   4.300  0.0204 -0.1664  0.0008
 7430W        W23691   7.994   6.003   3.560  0.1318  0.0276 -0.0073
 7431W        W23692   8.184  11.848   1.026  0.1588  0.1274 -0.1934
 7432W        W23693  15.502  17.573   1.044  0.0128 -0.3455  0.1582
 7433W        W23694   5.915  12.347   0.233 -0.1819 -0.1182 -0.1237
 7434W        W23695  16.175   8.072  12.462 -0.1694  0.1050 -0.0687
 7435W        W23696   3.945   9.315   3.127  0.1330 -0.0781  0.1688
 7436W        W23697   8.976  10.081  14.970 -0.0108  0.1299  0.2980
 7437W        W23698  10.658  16.680   3.250  0.0349 -0.1227 -0.2498
 7438W        W23699   2.453  12.708   1.360  0.0996  0.2657  0.0772
 7439W        W23700   1.940   2.778   5.734  0.0453 -0.0153  0.0236
 7440W        W23701   3.271   3.487   4.918 -0.0779 -0.1199 -0.0740
 7441W        W23702   1.753  13.834   6.286  0.1217 -0.0995  0.0583
 7442W        W23703  13.061   2.409  16.734  0.2790 -0.0367  0.1609
 7443W        W23704  17.421   1.807   1.253  0.1243 -0.1266  0.1179
 7444W        W23705   3.431   6.163  13.206  0.2127  0.1896  0.4702
 7445W        W23706   2.819  13.858  14.634 -0.2813  0.0360  0.1870
 7446W        W23707  11.547   3.000  13.527 -0.0596 -0.0325  0.0512
 7447W        W23708   0.962  12.959   2.402 -0.2076 -0.0867  0.2270
 7448W        W23709   6.141   0.798   1.297  0.0629  0.0281 -0.1980
 7449W        W23710   6.509   6.016  12.178  0.2240  0.3251  0.1055
 7450W        W23711   9.774  11.950   4.290 -0.0017  0.1785  0.3178
 7451W        W23712   4.773   6.097  16.410  0.3580  0.1695  0.1350
 7452W        W23713  16.858   4.108  12.217 -0.2273 -0.5270 -0.0959
 7453W        W23714   7.362  14.971  12.132 -0.3006  0.0903  0.1795
 7454W        W23715  10.660  16.403  13.033 -0.0280  0.2569 -0.1392
 7455W        W23716  15.351   1.350   5.068 -0.2811 -0.1281 -0.0378
 7456W        W23717   3.817  15.295  14.053 -0.1899 -0.2627  0.1307
 7457W        W23718  10.341  14.029  13.958  0.0714 -0.0722  0.0678
 7458W        W23719   8.604  10.850  12.924 -0.1785 -0.0737  0.1773
 7459W        W23720  15.478   9.575   0.952 -0.2697  0.0867 -0.2897
 7460W        W23721  16.427   4.234   0.540 -0.2871  0.2590  0.1356
 7461W        W23722  11.160  16.501   4.060 -0.0660 -0.1864 -0.3107
 7462W        W23723   9.720  12.422   3.059 -0.2383  0.0593 -0.0733
 7463W        W23724  17.634   3.542  15.363 -0.1424  0.2197  0.0532
 7464W        W23725  17.826   8.696  13.233  0.0381  0.1355 -0.2391
 7465W        W23726   5.361  10.677  15.829 -0.2466 -0.3023 -0.1435
 7466W        W23727   6.721  15.326   2.532 -0.0034  0.3510 -0.2975
 7467W        W23728  14.351  14.604   5.291  0.1283  0.0006 -0.1767
 7468W        W23729  10.082  12.790   2.471  0.2262  0.0267  0.0664
 7469W        W23730  13.830  16.119  12.145  0.2627 -0.2680 -0.1525
 7470W        W23731   8.229  16.680   1.670 -0.0452 -0.1538  0.0313
 7471W        W23732   2.520   9.681   2.632  0.0214  0.1396 -0.1942
 7472W        W23733   8.430   7.620  14.144  0.0538  0.0221  0.2518
 7473W        W23734   1.724   9.942  16.684  0.0940 -0.2700 -0.1949
 7474W        W23735  10.804  11.241   3.316 -0.0650 -0.0147  0.2699
 7475W        W23736  12.330  10.649  13.873  0.0101 -0.0252  0.1983
 7476W        W23737   4.579  15.186   5.990  0.2568 -0.0402 -0.1125
 7477W        W23738  10.827   7.462  13.168  0.0732 -0.0240 -0.2641
 7478W        W23739  14.549  11.043  15.736  0.2582  0.2450  0.0150
 7479W        W23740  14.231   3.823  11.284 -0.1455  0.1927  0.2305
 7480W        W23741   0.147  15.462   4.030 -0.2508 -0.0886 -0.2203
 7481W        W23742  12.330   0.580   1.448  0.0213  0.3154  0.1593
 7482W        W23743  14.638  14.789   0.684  0.1245 -0.1537 -0.0843
 7483W        W23744   4.065  12.783  11.192 -0.0598  0.2097 -0.1195
 7484W        W23745   7.052  16.627   1.150 -0.0575 -0.1869 -0.1514
 7485W        W23746  13.591   0.474  13.217  0.1480 -0.1445  0.2333
 7486W        W23747  17.512  12.711   5.200 -0.1114  0.0167  0.2456
 7487W        W23748   0.349  12.494   3.709  0.3060 -0.3501 -0.1236
 7488W        W23749   9.968  12.201  12.868  0.0157  0.1545  0.1345
 7489W        W23750  14.156   3.364   1.883 -0.1239  0.1079  0.0708
 7490W        W23751   7.206   4.533  11.982  0.3874  0.0627  0.2449
 7491W        W23752  16.851  10.633   5.477  0.0388 -0.0408 -0.1750
 7492W        W23753   3.905  14.263  14.166 -0.0999 -0.1223  0.1484
 7493W        W23754   5.285   3.060  13.856  0.0916 -0.4412 -0.0992
 7494W        W23755   2.131   0.530  14.253 -0.2685 -0.0246 -0.1553
 7495W        W23756  13.596  12.291  16.033 -0.2457 -0.3121  0.1718
 7496W        W23757  13.554   3.298   4.270  0.1939  0.0851 -0.0311
 7497W        W23758   6.537   9.016   6.438 -0.0178  0.1245 -0.1674
 7498W        W23759   0.955  16.718   3.175  0.0664  0.1079 -0.0714
 7499W        W23760   2.533  17.506   2.535  0.0159 -0.0090 -0.3413
 7500W        W23761   7.886   5.794   0.664 -0.2981  0.1416 -0.1505
 7501W        W23762  16.413   5.730   3.267  0.0918  0.1924 -0.0568
 7502W        W23763  15.977   0.259  12.863  0.0638  0.4744 -0.1261
 7503W        W23764  11.222  15.169  16.243  0.2196 -0.0509  0.0181
 7504W        W23765   1.835   0.767   2.484  0.0907  0.1533  0.1899
 7505W        W23766   0.812  15.378   3.305  0.1365  0.1164  0.0755
 7506W        W23767  16.314   1.515  12.246  0.1087  0.0545 -0.3785
 7507W        W23768  12.098   3.148  13.047  0.0918 -0.2477 -0.0482
 7508W        W23769   0.158   0.625  14.465  0.4049 -0.1704  0.3550
 7509W        W23770   9.933   6.795  12.800 -0.2126 -0.0298  0.0082
 7510W        W23771  10.494  16.769  14.499  0.0744 -0.1751  0.0321
 7511W        W23772   7.929   4.148   1.306  0.0417 -0.2382 -0.2357
 7512W        W23773  11.579  15.533  14.096  0.0442  0.1292 -0.1947
 7513W        W23774  16.610  11.608   6.593 -0.0979 -0.0449 -0.2123
 7514W        W23775   3.553   1.456   1.759  0.3352  0.0670 -0.1266
 7515W        W23776  13.390   0.120   2.826 -0.1483 -0.0887  0.2888
 7516W        W23777   3.618  12.275   5.378 -0.0991 -0.0947 -0.2732
 7517W        W23778   5.073  17.054  13.761  0.0442  0.0898 -0.0485
 7518W        W23779   8.032  15.594   4.283  0.0561  0.0022 -0.0983
 7519W        W23780   4.170  16.811   3.127  0.1059  0.0854  0.1831
 7520W        W23781   5.592  12.712  12.942  0.0132 -0.1417  0.5745
 7521W        W23782  15.901  15.122   4.990  0.0889 -0.1518  0.0114
 7522W        W23783  17.288   0.396  13.367 -0.0040  0.1402  0.0502
 7523W        W23784   5.784   9.936   2.638  0.1782 -0.0785  0.0404
 7524W        W23785   5.194   9.029   6.073 -0.0109  0.3464 -0.1893
 7525W        W23786   8.784   9.192  11.514 -0.1838  0.0486  0.1714
 7526W        W23787   2.791   0.669  13.575 -0.1922 -0.2479  0.1498
 7527W        W23788   0.030   4.541   5.258 -0.2413 -0.3398 -0.0582
 7528W        W23789   9.067   6.486  16.943  0.0273 -0.2905  0.2350
 7529W        W23790  16.892   4.378  16.211 -0.3067 -0.1719  0.0309
 7530W        W23791  15.941   9.511   2.100  0.1278  0.0526 -0.1698
 7531W        W23792  12.995  17.207   2.416  0.0694  0.4470  0.0532
 7532W        W23793   5.818   8.979   2.107  0.3421 -0.0207 -0.2388
 7533W        W23794  13.002   9.375   3.711  0.0354  0.1309 -0.0014
 7534W        W23795  12.990   0.310   2.062 -0.0221  0.1031  0.2342
 7535W        W23796  16.784  16.691   5.130  0.0779  0.0390 -0.0718
 7536W        W23797  12.464  16.625   2.057 -0.4023 -0.0277 -0.0102
 7537W        W23798   0.976  14.650   4.773 -0.0232  0.2161  0.1526
 7538W        W23799  11.970   4.877   2.709 -0.0591 -0.3718  0.0640
 7539W        W23800   7.997   2.103   0.407  0.2302  0.0930 -0.4053
 7540W        W23801  11.159   1.518  13.212 -0.1301 -0.0627 -0.1421
 7541W        W23802  10.137   4.636  16.053  0.1039 -0.2152 -0.0124
 7542W        W23803   1.356  12.789  13.934  0.0051 -0.4378 -0.2133
 7543W        W23804  11.796  13.596   2.763  0.0287  0.0158  0.0835
 7544W        W23805   9.191   7.053  16.536  0.0262  0.0786 -0.1884
 7545W        W23806   9.827   4.195  16.721  0.3736  0.0811 -0.0639
 7546W        W23807  17.456   5.654  11.969 -0.0844  0.4120 -0.0840
 7547W        W23808   8.266   8.228  14.982  0.0028  0.2172  0.0613
 7548W        W23809   9.138   2.168  13.157 -0.3150 -0.2259  0.2427
 7549W        W23810   5.478  10.188  14.962 -0.1109 -0.0634  0.0183
 7550W        W23811   7.902   5.150   1.308  0.2888  0.4736 -0.0780
 7551W        W23812   1.826  13.064   0.056 -0.2011 -0.0303  0.0110
 7552W        W23813   6.134   1.155   6.474 -0.0110 -0.1221  0.0759
 7553W        W23814  14.914   9.951   2.141 -0.1544 -0.0222  0.2893
 7554W        W23815   1.993   1.032  13.492 -0.0809 -0.1501  0.1929
 7555W        W23816   5.023  16.674  12.136 -0.2900  0.1891 -0.2041
 7556W        W23817  11.340  16.385  15.722 -0.0255 -0.0053  0.2601
 7557W        W23818   1.462  17.112   4.207 -0.1100  0.1207  0.0732
 7558W        W23819   5.112   0.298  15.754 -0.0670 -0.0441 -0.0507
 7559W        W23820   8.601  15.651  13.375  0.0068 -0.0269 -0.2720
 7560W        W23821   5.935   1.997   3.411 -0.0505 -0.0459  0.3619
 7561W        W23822   8.240   5.467   3.929 -0.2567  0.2135 -0.1068
 7562W        W23823  11.168   8.279  11.180 -0.1271 -0.2434 -0.0346
 7563W        W23824  10.739  10.485   4.530  0.1087  0.0499  0.0625
 7564W        W23825  13.814   0.856  12.985  0.0076 -0.0923 -0.2454
 7565W        W23826   2.766  17.060  14.452  0.0122  0.1028 -0.2110
 7566W        W23827   9.783   8.625  16.641  0.0171 -0.0864  0.3025
 7567W        W23828   4.659   9.163   0.434 -0.1357  0.1309 -0.0097
 7568W        W23829  14.219  15.918   2.251 -0.0006 -0.0081 -0.0333
 7569W        W23830  15.312   9.288  16.709  0.0511  0.1148  0.1932
 7570W        W23831   5.311   4.056   0.777 -0.1028 -0.1380 -0.0333
 7571W        W23832   2.551   5.837   4.772 -0.1683 -0.1525 -0.2378
 7572W        W23833  10.736   3.711   4.614 -0.1058 -0.0158  0.1606
 7573W        W23834  10.037   8.381  14.719 -0.1949  0.0349  0.2500
 7574W        W23835  10.595  16.718  13.441 -0.0405 -0.0276  0.0754
 7575W        W23836  11.956  11.765  14.497  0.0512  0.2214  0.0644
 7576W        W23837   7.420   0.730  15.804 -0.0385 -0.1949  0.0675
 7577W        W23838  15.052  10.800   0.349  0.1537  0.0599  0.1470
 7578W        W23839   8.660  17.247   4.692 -0.0352 -0.0274  0.3603
 7579W        W23840  12.804   0.390  11.550  0.1098 -0.0205  0.0474
 7580W        W23841  15.377  14.001  16.525 -0.0666 -0.1599  0.0168
 7581W        W23842  11.057   7.157   1.416 -0.0086  0.2008 -0.1961
 7582W        W23843   9.383  12.990   4.628  0.1146 -0.1765 -0.0858
 7583W        W23844  12.568   6.011  16.287 -0.1486  0.3194  0.1594
 7584W        W23845  12.009   9.522  15.275 -0.0333 -0.1328 -0.0611
 7585W        W23846   6.011   0.656  14.222  0.2002 -0.1606 -0.0353
 7586W        W23847   8.056   1.840   4.246 -0.2229  0.1795  0.2352
 7587W        W23848   7.617   1.007   1.558 -0.1308  0.1479  0.1625
 7588W        W23849   9.053   6.887  12.134 -0.2079  0.1645  0.2192
 7589W        W23850  11.615   5.723   2.447 -0.0276  0.1565 -0.0234
 7590W        W23851   4.091   7.936  15.694 -0.3222  0.0233 -0.0787
 7591W        W23852   8.909   6.680  13.230 -0.2218 -0.0402 -0.1564
 7592W        W23853   3.113  10.064  13.399 -0.0537  0.0627  0.2027
 7593W        W23854  16.407  12.695   5.597  0.0398 -0.0620  0.2168
 7594W        W23855  11.079   9.417  12.966  0.0077  0.0830  0.1096
 7595W        W23856   4.847  17.444   2.939 -0.0771 -0.1320  0.3316
 7596W        W23857  16.084   5.699  14.954  0.1422  0.1445 -0.0045
 7597W        W23858   8.119   5.548   2.023 -0.2486 -0.0856  0.0573
 7598W        W23859  14.481   1.922  14.902 -0.1299  0.2265 -0.1004
 7599W        W23860   0.543   1.589  12.876  0.1426 -0.1091  0.2272
 7600W        W23861   0.223   1.446  16.757  0.2042  0.2115 -0.0211
 7601W        W23862   6.066  17.307   3.123 -0.1087 -0.0346  0.0152
 7602W        W23863  17.713  14.188   2.685 -0.1202 -0.3007  0.2192
 7603W        W23864   9.372  15.698   2.079 -0.0838 -0.0898 -0.0271
 7604W        W23865  14.500   7.345  15.513 -0.1040  0.1990  0.0472
 7605W        W23866   5.892  15.826   3.760  0.1083  0.2183  0.2246
 7606W        W23867   6.497   1.783  12.976 -0.1804  0.1006  0.1398
 7607W        W23868  10.777  11.981   0.633  0.4501  0.0058 -0.0854
 7608W        W23869  13.062   9.014   2.951 -0.1386 -0.0379  0.3003
 7609W        W23870   3.713  16.791   3.009  0.0138 -0.1517  0.2048
 7610W        W23871  14.927  14.541   4.661 -0.0213  0.2779 -0.1150
 7611W        W23872   0.544   3.377  14.931  0.0797 -0.1373 -0.2628
 7612W        W23873  10.030  10.103  12.535  0.2140 -0.1458 -0.0878
 7613W        W23874  14.074  14.373   2.599  0.1202 -0.0294 -0.1885
 7614W        W23875  11.314   6.039   5.521  0.2444  0.0985  0.0790
 7615W        W23876   9.358   2.817  11.990  0.0917  0.3097  0.0486
 7616W        W23877  17.429   6.949   0.884 -0.2070  0.0269  0.0817
 7617W        W23878  10.651  10.239   1.098  0.0294 -0.1022 -0.0599
 7618W        W23879  12.780   4.275   2.879 -0.0802  0.0113 -0.1892
 7619W        W23880   4.351  17.518   0.762  0.2932  0.0986  0.3076
 7620W        W23881  14.276   3.178   4.902  0.0442 -0.0061  0.1848
 7621W        W23882   4.854   9.003  15.181 -0.0773  0.0393  0.1548
 7622W        W23883  11.014   4.697  15.620  0.0180 -0.1396 -0.1671
 7623W        W23884   1.044  16.847  15.140 -0.0657 -0.0831 -0.1222
 7624W        W23885   7.207   1.542  15.162 -0.2883 -0.2631 -0.0779
 7625W        W23886  15.640   7.604  15.809  0.1365 -0.0372  0.1724
 7626W        W23887  16.208   4.938  13.111 -0.0272 -0.2025 -0.3180
 7627W        W23888   5.839  10.430   2.673 -0.1479  0.1792  0.1038
 7628W        W23889   8.602   0.347  13.458 -0.2033 -0.1424  0.0303
 7629W        W23890   8.753   8.804   3.225 -0.2514 -0.1698 -0.1164
 7630W        W23891  16.941  17.197   6.601  0.3029 -0.2058 -0.3856
 7631W        W23892   7.586  16.054   3.983  0.1884  0.0509 -0.0682
 7632W        W23893   7.834  15.624   4.854  0.0311 -0.1921  0.0873
 7633W        W23894  17.619   8.473   5.180  0.0118 -0.0174 -0.1825
 7634W        W23895  16.611   9.422   4.770 -0.2473 -0.1389  0.0429
 7635W        W23896   0.521   7.314  15.902 -0.0652  0.1814  0.3121
 7636W        W23897  13.675   9.669   1.592 -0.0454 -0.3651 -0.2356
 7637W        W23898   0.224  14.785   1.199 -0.1858  0.0632 -0.1834
 7638W        W23899  15.975   6.707  15.481  0.0138 -0.0976 -0.1580
 7639W        W23900  16.934  12.659  13.061 -0.1386  0.1812 -0.0115
 7640W        W23901   0.081  13.002  14.198 -0.0951 -0.1192 -0.5294
 7641W        W23902   2.135  14.398   2.621 -0.0095 -0.2979  0.0729
 7642W        W23903   1.605  10.850  12.317  0.1595  0.0819  0.0504
 7643W        W23904   3.604  17.443  14.798  0.1614 -0.4301  0.1997
 7644W        W23905   2.038  11.485  15.128 -0.1364  0.0516  0.3377
 7645W        W23906   1.900   4.710   3.328 -0.3885 -0.2283 -0.2096
 7646W        W23907  16.899  10.896   2.999  0.1130 -0.2199  0.1969
 7647W        W23908   1.906   2.940   3.452  0.0397  0.0955  0.0565
 7648W        W23909   2.277  15.697   5.208 -0.0842  0.0293  0.3369
 7649W        W23910  11.252   9.418   3.344  0.2839  0.0995 -0.1087
 7650W        W23911  13.500   3.951   5.466  0.0468 -0.0260  0.0247
 7651W        W23912   3.272  17.308  15.248 -0.1933  0.0949  0.0077
 7652W        W23913   1.794  13.115  13.885 -0.1115  0.2016  0.0188
 7653W        W23914   0.605   4.490  16.550 -0.1774 -0.3002 -0.0153
 7654W        W23915  16.950  17.648   5.194 -0.2144 -0.1802  0.0085
 7655W        W23916   9.320   3.973   2.264 -0.1160  0.2577  0.0199
 7656W        W23917  14.014  15.378   4.134  0.0242  0.0876  0.0186
 7657W        W23918  15.709  14.923  16.497 -0.3125 -0.2465  0.1803
 7658W        W23919  17.613   8.361  12.400 -0.1791 -0.1070  0.0983
 7659W        W23920   3.140  16.038  13.630 -0.0483 -0.1325 -0.0496
 7660W        W23921  11.258  10.250  12.968  0.1015 -0.1281 -0.1238
 7661W        W23922   9.044  14.241   4.745  0.0843  0.0647  0.1929
 7662W        W23923   9.114  15.730  13.494  0.0836 -0.2004 -0.1688
 7663W        W23924   0.176  17.618   1.259 -0.2367  0.1254  0.2222
 7664W        W23925   1.891   0.649  11.853  0.0111 -0.0972 -0.0171
 7665W        W23926  16.482  12.050  13.133 -0.0208  0.1459 -0.0523
 7666W        W23927  16.091   3.699  14.667 -0.0828 -0.1925 -0.0970
 7667W        W23928   2.139  11.542   2.898  0.0672  0.2132 -0.1591
 7668W        W23929  13.660   4.269  13.775 -0.2805 -0.1120  0.2275
 7669W        W23930   6.815   1.031  13.278  0.0134 -0.1787  0.2859
 7670W        W23931  14.322   2.285  16.459 -0.1202 -0.0735 -0.0899
 7671W        W23932   4.512   1.691  12.284  0.1688  0.0922  0.1332
 7672W        W23933   7.845   8.864  11.954 -0.0211 -0.1387 -0.1271
 7673W        W23934   8.808  12.273   4.250 -0.0692  0.2259 -0.3256
 7674W        W23935   4.591  15.235   4.114  0.0080 -0.1590 -0.2065
 7675W        W23936   4.017   1.296   6.375 -0.0833  0.2849  0.0807
 7676W        W23937   4.324  17.230  15.733 -0.1329  0.0408 -0.1358
 7677W        W23938  16.399   6.850   1.817 -0.0264  0.2403 -0.0726
 7678W        W23939   4.015  12.423   0.662 -0.0674 -0.0788  0.1072
 7679W        W23940   5.860  10.098   3.616  0.0683  0.3587 -0.1780
 7680W        W23941   3.108   4.596  15.265  0.1412  0.4069 -0.3883
 7681W        W23942   6.631  11.979  16.824 -0.0912 -0.0637  0.1780
 7682W        W23943   5.089   4.249   2.404  0.1342 -0.0429  0.0246
 7683W        W23944   9.648   8.581   5.084 -0.2148  0.1921  0.0656
 7684W        W23945   0.235   5.829   0.187  0.0809  0.1260  0.2440
 7685W        W23946  13.885  15.926   0.785  0.2595 -0.0945 -0.3183
 7686W        W23947   5.252  14.403  13.356 -0.2522 -0.2325  0.0795
 7687W        W23948   6.868   8.972  15.835  0.1482 -0.0074 -0.0777
 7688W        W23949   9.599  13.068   0.319 -0.3641 -0.1140 -0.0182
 7689W        W23950   5.865  15.125  12.941 -0.1678 -0.0612  0.0499
 7690W        W23951   4.922   2.630  14.698  0.0642  0.0431 -0.3525
 7691W        W23952   3.911   5.473   4.921  0.2562 -0.1019  0.0674
 7692W        W23953   8.643   8.132   1.626 -0.0554 -0.0015 -0.1546
 7693W        W23954  12.841   5.175   3.488 -0.0039  0.1484  0.1812
 7694W        W23955   2.374   5.291   3.876 -0.0012 -0.3434  0.1618
 7695W        W23956   5.378  13.087   5.485 -0.0165  0.3453  0.0700
 7696W        W23957   0.552   3.127  15.454 -0.1723  0.3187  0.3319
 7697W        W23958  13.617  11.926   4.501  0.1522  0.0316  0.1350
 7698W        W23959   7.846  14.968   5.858 -0.3170 -0.0433 -0.2663
 7699W        W23960   0.100  12.345   4.093  0.0590 -0.1768 -0.4962
 7700W        W23961   9.041  14.785  13.157 -0.0290 -0.0756 -0.0387
 7701W        W23962   5.279   5.142   2.469 -0.1514 -0.2427 -0.0464
 7702W        W23963  10.518   2.623  12.237 -0.3042  0.0141  0.3129
 7703W        W23964   5.538  10.155  15.818  0.0997 -0.2952  0.0882
 7704W        W23965  11.985   0.968   2.015  0.0787  0.2181  0.1508
 7705W        W23966   6.444   3.322  12.078 -0.0923  0.2252  0.0297
 7706W        W23967   1.823   6.293   4.431 -0.2216 -0.1988  0.1219
 7707W        W23968   0.624  10.292   4.457 -0.1168 -0.3231 -0.0725
 7708W        W23969  13.197  14.713  14.204 -0.3701 -0.2374 -0.1235
 7709W        W23970  16.202   0.268   2.938 -0.2176 -0.3063 -0.1504
 7710W        W23971   6.983   0.767  12.593  0.1623  0.0938  0.0863
 7711W        W23972  15.643   5.896  15.301  0.1601 -0.3211 -0.5220
 7712W        W23973   7.305  17.069   4.379  0.0501 -0.1712 -0.2258
 7713W        W23974  16.695   4.485  14.942 -0.1380  0.0582  0.1828
 7714W        W23975   3.870   9.185  13.195  0.0785  0.3009 -0.3617
 7715W        W23976   3.886   1.304   5.596 -0.0842 -0.1362  0.4069
 7716W        W23977   9.997   8.770   2.034 -0.1413 -0.0451  0.2299
 7717W        W23978   6.037  11.078   1.418  0.3581  0.0814  0.1489
 7718W        W23979   8.620  15.171  14.196  0.0085 -0.0475  0.1587
 7719W        W23980  16.682  14.423   1.175 -0.1496  0.0153  0.0392
 7720W        W23981  13.536   5.379  14.513  0.1821  0.2791 -0.2540
 7721W        W23982  11.039  13.084   3.677  0.0332 -0.0899 -0.0100
 7722W        W23983  11.525   3.869   2.390 -0.1285 -0.1221  0.0924
 7723W        W23984  17.822  15.270   4.834 -0.0633 -0.3132  0.0575
 7724W        W23985  11.915  12.021   4.454 -0.0778 -0.1018 -0.2518
 7725W        W23986  12.665   1.753   0.220 -0.2046  0.0523  0.2435
 7726W        W23987   8.081  10.441  15.319 -0.0210 -0.0880  0.1160
 7727W        W23988  10.999   9.763   1.566 -0.2718 -0.2511  0.0209
 7728W        W23989   4.035  14.517   4.191 -0.2851  0.0361  0.2560
 7729W        W23990   4.277   6.641   5.431  0.3065 -0.5048 -0.2123
 7730W        W23991   7.567   3.855  12.549  0.1165  0.0558  0.1125
 7731W        W23992   2.824  14.523   2.369 -0.0793 -0.0529  0.1739
 7732W        W23993   8.589   8.660   1.481 -0.2797 -0.0457 -0.0577
 7733W        W23994   5.450  13.311   1.703  0.2164  0.0255  0.2681
 7734W        W23995   2.251   9.414  14.969 -0.3196  0.0216  0.2189
 7735W        W23996  11.482   3.977   2.865 -0.1426 -0.0624 -0.0430
 7736W        W23997  15.191   3.508   0.019  0.0049 -0.2480  0.2601
 7737W        W23998  10.001  16.979   0.785 -0.0223 -0.4089 -0.0636
 7738W        W23999   0.551  10.453   2.964  0.1517 -0.0459  0.1511
 7739W        W24000   7.280   4.790  12.999  0.2158  0.1179  0.0176
 7740W        W24001  16.261   6.701  14.124 -0.1224  0.1952  0.1050
 7741W        W24002   7.395   4.997   0.519 -0.0979 -0.1837 -0.0134
 7742W        W24003   5.204   6.780   1.741 -0.2355 -0.1039 -0.2850
 7743W        W24004   3.315   7.643   1.247 -0.0816  0.0622  0.1057
 7744W        W24005  11.272  13.672  15.202  0.1439 -0.0017  0.0427
 7745W        W24006   5.770  16.858   2.725 -0.0726 -0.0789 -0.0596
 7746W        W24007   2.124  11.518   5.619 -0.1415 -0.1163 -0.1457
 7747W        W24008   0.487   5.037   3.618 -0.0937  0.4620 -0.1147
 7748W        W24009  14.908   4.808   4.222  0.0155 -0.1047  0.2057
 7749W        W24010   4.155   7.331  15.688 -0.3756 -0.2288  0.1498
 7750W        W24011   7.498  12.739   3.804 -0.1261  0.1832  0.0008
 7751W        W24012  17.014   9.208  15.302  0.2159  0.1863  0.1512
 7752W        W24013   9.881   5.228   2.096 -0.3833  0.1274 -0.1378
 7753W        W24014   8.539   3.115  12.205 -0.1498  0.2799 -0.2636
 7754W        W24015   7.828  13.707  15.803  0.0906 -0.1355 -0.2743
 7755W        W24016  16.100   3.042  16.024  0.2055 -0.1572  0.0765
 7756W        W24017  10.778   3.977  13.933  0.0180  0.1204  0.0055
 7757W        W24018  12.569  13.449  15.795 -0.0050  0.0121  0.0700
 7758W        W24019  14.034  15.346   6.033  0.2838 -0.2120 -0.0911
 7759W        W24020   8.265   9.949  14.359 -0.3568  0.1054 -0.3379
 7760W        W24021   9.866  11.529   4.682 -0.1834  0.2712 -0.2265
 7761W        W24022   6.133   8.672   0.759  0.1412 -0.1335 -0.0648
 7762W        W24023   5.653   3.016  12.004 -0.3106  0.2037  0.0272
 7763W        W24024  12.613  11.106  11.852  0.1249 -0.0494 -0.0892
 7764W        W24025  16.587  15.872   1.181  0.0225 -0.1118  0.2938
 7765W        W24026  16.019   3.112   3.201  0.0587 -0.1040 -0.2034
 7766W        W24027   0.298   5.492  13.272 -0.1768  0.2804  0.1807
 7767W        W24028  15.492   2.538  11.859 -0.1832  0.1531 -0.0436
 7768W        W24029   2.257   3.383  12.441 -0.1518  0.0459  0.1395
 7769W        W24030   3.009   8.189   4.868  0.0854  0.4542  0.2408
 7770W        W24031  15.339   0.600  13.859 -0.0507 -0.0210 -0.2696
 7771W        W24032   2.609  15.280  15.684 -0.2140  0.2149  0.0017
 7772W        W24033  10.812   0.087  13.045  0.0778 -0.0632  0.0840
 7773W        W24034  10.270   2.861   5.784  0.2151 -0.0821  0.1580
 7774W        W24035  16.997  16.772   5.704 -0.0449 -0.1722 -0.0499
 7775W        W24036  14.926  16.607  14.998 -0.1287 -0.0210 -0.2316
 7776W        W24037   9.745   9.870  16.123  0.2079 -0.0440  0.0018
 7777W        W24038   1.623  11.741   4.606  0.2801 -0.3783 -0.0811
 7778W        W24039  15.304  12.958  16.393 -0.1128 -0.0178  0.1560
 7779W        W24040  12.679  11.199  12.999  0.0064  0.3721  0.2353
 7780W        W24041  13.072   1.731   1.933  0.1613  0.2416 -0.0820
 7781W        W24042  10.151  13.444  13.998  0.1847  0.1148 -0.0229
 7782W        W24043  13.437  11.895   2.079  0.1178  0.0051  0.2016
 7783W        W24044  14.638  13.350  12.962 -0.2050  0.0933  0.0758
 7784W        W24045   3.593  16.250  13.411  0.0793 -0.0539  0.0982
 7785W        W24046   9.753   2.731   5.629 -0.1469  0.1116 -0.2145
 7786W        W24047   3.271   5.479   4.207  0.1300 -0.1780  0.0198
 7787W        W24048  12.446   0.561   4.758  0.1444  0.3045  0.0224
 7788W        W24049   6.211  10.794   4.318 -0.3224  0.2630  0.1705
 7789W        W24050   4.354  17.687  12.996  0.2585 -0.0744 -0.1817
 7790W        W24051   0.542   4.012  12.943  0.0187 -0.1457  0.1332
 7791W        W24052  17.018   3.005  15.255  0.2519 -0.0578  0.0117
 7792W        W24053  13.341  12.227  12.637  0.0341  0.0001  0.1521
 7793W        W24054   2.347   4.613   1.805 -0.2387 -0.1175  0.1301
 7794W        W24055  14.483  16.418   5.914  0.1519  0.2472 -0.0665
 7795W        W24056   3.670  12.676   1.258  0.2020  0.1541  0.2676
 7796W        W24057  14.587  13.932  15.098  0.0842  0.2773  0.2308
 7797W        W24058  10.737   9.095  10.721 -0.0533  0.1308  0.0038
 7798W        W24059   4.594   9.553  15.276  0.0234 -0.1164  0.2392
 7799W        W24060  15.696   8.305   2.406  0.2084  0.1288  0.1158
 7800W        W24061   5.978   1.254   4.604  0.3108  0.2035  0.1548
 7801W        W24062   1.338   2.445  14.856 -0.1147  0.1403  0.4744
 7802W        W24063   2.454   0.504  16.762  0.0441  0.0905 -0.4516
 7803W        W24064   4.007  14.919  13.259  0.2422 -0.0142 -0.1102
 7804W        W24065   2.928   6.499  15.976  0.1815  0.0616 -0.1277
 7805W        W24066  17.111   8.450  14.795  0.1501  0.0193  0.2776
 7806W        W24067   7.629  11.560  16.872 -0.0663  0.0634 -0.0172
 7807W        W24068  12.285   4.646   0.715 -0.1093 -0.0995  0.0930
 7808W        W24069  12.097  10.157  16.417 -0.0266 -0.0919 -0.1432
 7809W        W24070   0.926   1.660   4.687 -0.1054  0.1294  0.2473
 7810W        W24071   8.551  14.531   1.893  0.0507  0.0183 -0.0537
 7811W        W24072   9.529  10.043  15.733  0.1005  0.0289  0.3320
 7812W        W24073  11.859   9.007   2.200  0.2015 -0.2807 -0.1128
 7813W        W24074   4.258  10.281  12.418 -0.1522  0.0302 -0.0219
 7814W        W24075   8.856   9.370  13.788 -0.0856  0.1845 -0.1236
 7815W        W24076   2.744  13.580   1.223 -0.0772 -0.2449 -0.0148
 7816W        W24077   1.577  12.803  15.828  0.2118  0.3363  0.3671
 7817W        W24078   1.519   2.095   5.088 -0.0107 -0.0061  0.1298
 7818W        W24079  11.986  17.529   4.825 -0.0296  0.1050 -0.1494
 7819W        W24080  10.660   8.933  11.827  0.1184  0.5187 -0.1193
 7820W        W24081   6.024   3.692  14.125  0.0091  0.0772  0.2261
 7821W        W24082  14.989  15.239  15.234 -0.3922  0.2393 -0.0158
 7822W        W24083   8.064  17.090   1.373 -0.0115  0.1625  0.4817
 7823W        W24084  11.800   3.908  13.237  0.0194  0.1084 -0.3544
 7824W        W24085  15.521   9.513   1.489  0.1375  0.1458  0.1845
 7825W        W24086  12.009   4.340   4.971  0.1325  0.2001 -0.2105
 7826W        W24087   4.708  15.094   4.573 -0.1356 -0.0923  0.2619
 7827W        W24088   4.289   0.670  13.458  0.1531  0.1681 -0.1294
 7828W        W24089  17.559  13.356  15.841  0.2918  0.2321 -0.0165
 7829W        W24090   7.899   9.965   0.983  0.0917  0.0047 -0.2223
 7830W        W24091   0.595   6.542   5.711  0.1320  0.1131 -0.0058
 7831W        W24092   9.005   2.904   4.330 -0.2897 -0.0809 -0.0013
 7832W        W24093   8.787  17.058   0.292 -0.1242 -0.0984 -0.2668
 7833W        W24094  12.516  14.341  16.332 -0.1313  0.3242  0.0102
 7834W        W24095  13.139   8.253   4.525  0.2023 -0.2591 -0.0646
 7835W        W24096   5.886  17.433   2.696  0.0774  0.0462  0.1176
 7836W        W24097   7.754  16.181   1.090  0.0915  0.1949 -0.0860
 7837W        W24098   7.643   0.980  13.554 -0.3050  0.2588 -0.0285
 7838W        W24099   7.051   8.906  13.809 -0.1605  0.0868  0.0394
 7839W        W24100   2.456  13.142  13.286 -0.1223 -0.0474  0.1412
 7840W        W24101   2.380  14.796   2.919  0.2250  0.0404 -0.2205
 7841W        W24102   8.967   0.716  14.617  0.2405  0.3416  0.3605
 7842W        W24103  12.415   0.714   0.050  0.4517 -0.1422 -0.2148
 7843W        W24104  15.317  11.693  16.641 -0.0409  0.2147 -0.1371
 7844W        W24105  14.628   9.585  11.877 -0.1685  0.1958 -0.0100
 7845W        W24106  15.294   4.354  13.792  0.0806  0.3283 -0.2792
 7846W        W24107  17.236  11.298   1.281 -0.1426 -0.0738 -0.0609
 7847W        W24108   3.380   0.271  13.030  0.2989 -0.0739 -0.0361
 7848W        W24109  15.173  16.805   2.644  0.1005  0.0313  0.0312
 7849W        W24110  15.615   8.695  14.259  0.0266  0.1324  0.0232
 7850W        W24111  14.085  14.029  14.996  0.1326 -0.2888  0.0416
 7851W        W24112  11.125   7.940  12.569  0.2339  0.2909  0.3920
 7852W        W24113   5.446   8.692   5.745 -0.0255 -0.2782  0.0008
 7853W        W24114   9.061   0.199  14.484 -0.2625 -0.1644  0.2043
 7854W        W24115   5.715   2.476  15.146  0.1935 -0.0024 -0.2212
 7855W        W24116   1.857   4.354  13.249 -0.2932 -0.2575  0.0019
 7856W        W24117  10.325   6.507  12.991  0.0136  0.0835  0.1302
 7857W        W24118  13.320   4.485   0.701  0.0755 -0.1209 -0.0175
 7858W        W24119   2.686   2.582  15.104  0.1963 -0.0672 -0.2602
 7859W        W24120   8.140   2.776  15.046  0.1769 -0.1412  0.0221
 7860W        W24121  16.573   9.465   0.259 -0.2035  0.2240 -0.0579
 7861W        W24122  11.022   1.425   1.474  0.1037 -0.0276 -0.0725
 7862W        W24123   5.156   8.815   3.862 -0.1869 -0.2705  0.2231
 7863W        W24124  17.702  16.689  16.435 -0.0202  0.0536  0.1474
 7864W        W24125   3.032  17.232   1.087 -0.1284  0.0244  0.1579
 7865W        W24126   8.513   4.255   4.629  0.0648 -0.2304  0.1374
 7866W        W24127   8.348   3.258   3.559 -0.0972  0.1020 -0.3838
 7867W        W24128   9.233  12.569  13.937  0.1721  0.4970 -0.1747
 7868W        W24129  13.366  12.880  13.258  0.2182 -0.1439 -0.0329
 7869W        W24130   8.991  12.655   4.823  0.1016 -0.0776  0.0608
 7870W        W24131  12.061  12.702  13.790  0.1266  0.0521 -0.0163
 7871W        W24132   6.306  14.319  15.622  0.1134  0.0306 -0.0875
 7872W        W24133   3.269   4.070   3.956 -0.2595  0.0687 -0.0212
 7873W        W24134  11.732  15.572   1.958 -0.2138  0.1430  0.1654
 7874W        W24135   8.492   8.560  13.269 -0.0048  0.1889  0.1227
 7875W        W24136  11.175  16.371   2.061 -0.2682  0.1313  0.0635
 7876W        W24137   9.338  15.205  15.787 -0.0472  0.0271  0.1528
 7877W        W24138   8.048   7.478   3.431 -0.0313 -0.4347  0.2329
 7878W        W24139  17.366   6.766   2.742 -0.0525  0.1194 -0.0330
 7879W        W24140  10.934   7.461   0.246  0.0143 -0.2656  0.1521
 7880W        W24141   3.758  11.724   1.966  0.1182  0.0787 -0.1206
 7881W        W24142   1.647   6.873   4.880  0.3546  0.0413 -0.0995
 7882W        W24143   7.985  17.235   2.330  0.4287  0.0795  0.1407
 7883W        W24144  12.345   8.870  14.895 -0.0575  0.3602 -0.1204
 7884W        W24145   4.371   5.661   3.613  0.2101  0.1646  0.0677
 7885W        W24146   8.928   2.012   4.607  0.0318  0.2363 -0.0627
 7886W        W24147   8.791   8.629  16.290 -0.0036 -0.1039  0.2252
 7887W        W24148  16.247   2.155  12.209  0.0131  0.0862 -0.1818
 7888W        W24149   0.692   2.507   5.413  0.4702 -0.1959  0.2477
 7889W        W24150   8.777  12.364  13.336 -0.0939 -0.2985  0.1779
 7890W        W24151   8.032   6.290   1.597  0.2443  0.3462 -0.2022
 7891W        W24152   8.144  17.478  15.336 -0.1192 -0.1919  0.2214
 7892W        W24153  15.903   3.181  13.532  0.0153 -0.0598 -0.2660
 7893W        W24154  15.409  15.624   1.772  0.3827 -0.1993 -0.1308
 7894W        W24155   5.680  15.269   4.908 -0.1340 -0.2925  0.1175
 7895W        W24156  10.827   4.795  13.301  0.2528  0.2484  0.3233
 7896W        W24157   7.878   5.615   4.390  0.1841  0.3048  0.3632
 7897W        W24158   8.159   3.052   4.922  0.1381  0.1876  0.0452
 7898W        W24159   6.772  10.275  14.846 -0.0325 -0.1445  0.0396
 7899W        W24160  12.555  10.040  13.735  0.0629 -0.0652  0.1112
 7900W        W24161  16.867  17.077  12.780 -0.0957 -0.1817 -0.3195
 7901W        W24162  17.583  11.461   4.088  0.2032  0.1594 -0.0297
 7902W        W24163   9.890  13.709   2.314 -0.1425  0.0810 -0.0106
 7903W        W24164   3.248  14.840   0.662  0.0182  0.0791  0.0852
 7904W        W24165  16.493   8.708   5.958  0.1050  0.0012  0.1482
 7905W        W24166  12.659   1.516  13.079 -0.0114  0.2210  0.0532
 7906W        W24167   8.359  16.768   3.794  0.1207 -0.1041  0.2149
 7907W        W24168   6.075  14.897   3.230 -0.3801  0.2692  0.1560
 7908W        W24169   7.302   8.592   2.935 -0.1395  0.1335  0.2501
 7909W        W24170   9.401   1.247  16.880  0.0948  0.0762  0.0864
 7910W        W24171   2.814   3.637  13.801 -0.0204  0.1928 -0.1162
 7911W        W24172   1.995   6.034   4.028 -0.0703  0.0868  0.0890
 7912W        W24173   6.710   9.203  14.003  0.2488 -0.1086  0.1880
 7913W        W24174   4.285  14.539   5.251  0.0639  0.2045  0.0339
 7914W        W24175   4.343   3.232   1.830 -0.3343  0.0579 -0.0320
 7915W        W24176  16.290   8.603  10.680  0.6946  0.1855 -0.0239
 7916W        W24177   2.761   6.493   0.271  0.1006  0.1400 -0.0134
 7917W        W24178   0.043  12.830   2.572  0.2134 -0.2322 -0.1318
 7918W        W24179  13.602   4.599   2.213 -0.2792 -0.0156 -0.2007
 7919W        W24180  13.895   1.624  16.204 -0.1639  0.0839  0.1113
 7920W        W24181  17.079   6.123   4.627  0.3891  0.1248 -0.0022
 7921W        W24182  14.670   1.258   5.365 -0.0614 -0.2186  0.2932
 7922W        W24183   0.411  10.925   3.060  0.1757  0.0099 -0.1079
 7923W        W24184   1.228   7.210   1.453  0.2263  0.2166  0.1413
 7924W        W24185  10.567   5.124  13.073 -0.3212  0.1002 -0.0106
 7925W        W24186  10.674  10.956   4.359  0.2569  0.0855  0.0070
 7926W        W24187  16.139   0.731   1.668  0.2917  0.0447 -0.0282
 7927W        W24188  15.250   4.048   5.531 -0.3032  0.0848 -0.2047
 7928W        W24189   0.960   1.648  13.819 -0.0880 -0.0455 -0.2241
 7929W        W24190  17.156   5.233   1.866  0.0694  0.1907  0.1151
 7930W        W24191   8.538   9.967   5.511  0.0695  0.0325 -0.1511
 7931W        W24192  10.251  16.523  15.884 -0.1571 -0.1185 -0.1093
 7932W        W24193   6.126   8.273   3.149 -0.0983 -0.3179  0.1158
 7933W        W24194   8.054  12.683   4.962 -0.1731 -0.1098  0.0905
 7934W        W24195  13.768  12.204   2.221 -0.0343 -0.0601  0.1660
 7935W        W24196   2.640   4.518   0.027 -0.1102  0.0394 -0.1879
 7936W        W24197   4.137   4.954   1.238  0.0481  0.1690  0.0266
 7937W        W24198   4.720  14.081  11.755 -0.0528 -0.0078 -0.0081
 7938W        W24199   6.030   2.443   2.546 -0.3387  0.1977  0.0293
 7939W        W24200  14.581  12.579  14.739 -0.0381 -0.0633  0.0320
 7940W        W24201   5.991  12.937  15.662 -0.1947 -0.0236  0.0920
 7941W        W24202  14.777  11.889   5.223 -0.2291  0.2405 -0.2810
 7942W        W24203  10.450  10.394  16.135 -0.1319 -0.2076 -0.0434
 7943W        W24204   8.710  17.471  12.336  0.1729  0.1050 -0.1181
 7944W        W24205   7.564   6.254   3.425  0.0757 -0.0789 -0.2908
 7945W        W24206   5.315   4.258  12.954  0.0181  0.2606  0.0082
 7946W        W24207   1.212   1.808  12.643  0.2611 -0.0415 -0.0454
 7947W        W24208   4.958   3.122  14.880 -0.1678  0.2898  0.0880
 7948W        W24209  17.633   0.272  14.399 -0.0519  0.2286  0.0897
 7949W        W24210   7.956  15.603  15.843  0.3188 -0.1149 -0.1471
 7950W        W24211   5.736   3.625   0.874 -0.1558 -0.1407 -0.0471
 7951W        W24212   0.374   3.192   4.966  0.2677  0.1626 -0.1174
 7952W        W24213  15.720   3.604  16.911  0.2433 -0.0557  0.1440
 7953W        W24214   7.353   5.528   5.458  0.3851  0.1762 -0.0268
 7954W        W24215  11.219   0.739  12.489 -0.3672 -0.1317 -0.1167
 7955W        W24216   0.336   4.514   3.356 -0.0723 -0.2301 -0.0360
 7956W        W24217  15.193   1.013   2.495  0.3378 -0.3001  0.3993
 7957W        W24218   6.884  17.615   1.582 -0.0912  0.1885 -0.2603
 7958W        W24219   8.635   6.657   2.092 -0.4038  0.0542  0.2141
 7959W        W24220   3.457   9.661  16.050  0.3692 -0.1125  0.1397
 7960W        W24221   7.975  12.014   0.609 -0.0690 -0.0623  0.1416
 7961W        W24222  14.682   2.651  13.680  0.2918  0.2210  0.1245
 7962W        W24223   3.417   4.467   5.403 -0.1191  0.2016 -0.1144
 7963W        W24224   5.786  13.137  13.112 -0.0503 -0.2877  0.0497
 7964W        W24225  10.150  16.509   4.092  0.1589 -0.1712  0.0487
 7965W        W24226  17.257   8.517  16.701 -0.2421  0.1639  0.0272
 7966W        W24227   9.061  15.262   2.778  0.3841 -0.0783 -0.1671
 7967W        W24228   1.437   0.504  14.885 -0.0569 -0.1249 -0.0338
 7968W        W24229  13.087   1.416   3.409  0.3502 -0.3723  0.0300
 7969W        W24230  12.997   8.022  11.988  0.0669 -0.1887  0.2409
 7970W        W24231   1.769  13.785  11.302 -0.0563 -0.0161  0.1858
 7971W        W24232   1.298  16.947  12.021  0.0166 -0.0132  0.4101
 7972W        W24233   1.812   6.459   1.415  0.0070  0.1129  0.1210
 7973W        W24234   2.236  14.702   1.866 -0.1509  0.0173 -0.3973
 7974W        W24235  12.764   1.852   3.347  0.0973  0.1821 -0.0296
 7975W        W24236   3.262   9.983   4.550 -0.1362 -0.3435  0.3727
 7976W        W24237  15.202  10.565  16.921 -0.0086 -0.0049  0.1222
 7977W        W24238   6.896   6.019  14.371 -0.0786  0.1193 -0.2271
 7978W        W24239  12.761  11.956   4.103 -0.1071 -0.0051  0.0790
 7979W        W24240   0.343   2.696   4.984  0.0024  0.1696 -0.1254
 7980W        W24241  16.968   2.140  11.793 -0.1166 -0.1809  0.0359
 7981W        W24242   2.296  17.110   0.733  0.0747  0.1595 -0.1755
 7982W        W24243  11.000  13.893  15.789 -0.1394  0.2207  0.0072
 7983W        W24244   5.341  10.815  13.784 -0.1768 -0.0229 -0.0626
 7984W        W24245  12.258   0.217   0.065 -0.0319 -0.0523  0.0339
 7985W        W24246  13.268  14.661   5.726  0.1139 -0.0545  0.3313
 7986W        W24247   7.791  11.984   4.140 -0.0043  0.0925  0.0287
 7987W        W24248   6.194  17.403  10.988  0.2086  0.4424  0.0775
 7988W        W24249  15.189   1.095  16.502  0.0903  0.2012  0.1328
 7989W        W24250  13.649   6.802  15.534  0.4740  0.1363  0.0187
 7990W        W24251   5.679  17.718   2.290  0.0733  0.2660 -0.0245
 7991W        W24252   4.972   3.457  16.007  0.1260  0.3694 -0.2658
 7992W        W24253   3.330   5.648   0.957  0.2934 -0.3097 -0.3316
 7993W        W24254  14.580   4.987   3.789 -0.2137  0.2111  0.2682
 7994W        W24255   3.990   3.892   5.760 -0.0095  0.0012 -0.1164
 7995W        W24256   9.332  12.242   0.981 -0.0828 -0.0224 -0.0050
 7996W        W24257  15.393  15.603   0.106  0.1296 -0.0857 -0.1504
 7997W        W24258   0.594   3.637   3.843 -0.2236 -0.2418  0.0997
 7998W        W24259   3.555   5.299   1.950  0.3079 -0.0502 -0.1390
 7999W        W24260   2.732   4.096  12.842 -0.1951 -0.2153  0.1404
 8000W        W24261  10.011  12.707   3.421 -0.0225  0.0051  0.0236
 8001W        W24262   4.548   9.417   1.438 -0.0702 -0.2017  0.2346
 8002W        W24263  11.656   8.584   4.578  0.0010  0.1658  0.0750
 8003W        W24264  11.237  11.919   0.254  0.0957 -0.0269 -0.1802
 8004W        W24265   0.430  11.033  15.073  0.1907 -0.0239  0.2675
 8005W        W24266   0.865  10.073  16.076 -0.0430  0.1901 -0.4180
 8006W        W24267  16.398  17.044   5.051 -0.1201  0.1366 -0.0982
 8007W        W24268  11.550   9.371   4.337  0.1597  0.2169 -0.0966
 8008W        W24269  14.532   3.129   5.495 -0.2527 -0.1675 -0.3096
 8009W        W24270   0.641   0.966  13.837 -0.0664 -0.0820 -0.1848
 8010W        W24271   1.729   1.404  11.435  0.3732  0.0518  0.2853
 8011W        W24272   6.538   7.943   0.272 -0.2300 -0.1222 -0.2086
 8012W        W24273   7.190   7.232   5.377 -0.0246  0.0003 -0.0376
 8013W        W24274  14.535   7.111  13.165 -0.1328 -0.0798  0.0018
 8014W        W24275  10.249   4.575   5.871 -0.0357  0.0843  0.0977
 8015W        W24276   9.872  11.057   4.931  0.1649  0.2207 -0.0808
 8016W        W24277  10.842   3.109  16.978 -0.0511  0.2409 -0.3873
 8017W        W24278  16.424   0.221  14.871  0.1479  0.0034  0.1074
 8018W        W24279   9.645   0.652  15.542  0.0420  0.3747 -0.0384
 8019W        W24280  16.488  16.359  15.677 -0.0485  0.1018 -0.0643
 8020W        W24281  12.554  14.127   0.469 -0.0295  0.0476  0.0371
 8021W        W24282   7.449   1.288   0.167  0.1729  0.2063  0.1960
 8022W        W24283   5.843   4.951   3.117 -0.0741 -0.0482 -0.0350
 8023W        W24284   6.443   1.215   3.964  0.1258  0.2741 -0.0271
 8024W        W24285   4.993  11.304   4.748  0.1784  0.4251 -0.2389
 8025W        W24286   3.003   8.241  14.284  0.1876 -0.1475  0.0409
 8026W        W24287   8.965   0.922   2.619 -0.0319 -0.0834  0.1076
 8027W        W24288   7.080  15.533  15.269 -0.3427 -0.0090  0.1885
 8028W        W24289   4.152   3.263   2.700  0.0459  0.2649  0.1161
 8029W        W24290   1.304   0.070   5.137 -0.2946 -0.0240 -0.1107
 8030W        W24291   1.240   9.827   3.333  0.0626  0.0949  0.1703
 8031W        W24292   6.393  11.179   3.647 -0.1448  0.2220  0.0588
 8032W        W24293   3.956   4.236   3.765 -0.0270  0.0138 -0.2020
 8033W        W24294  14.868  13.040  13.763  0.2684 -0.0620 -0.2523
 8034W        W24295   1.340   9.535   5.503 -0.2429  0.3363 -0.0871
 8035W        W24296  17.438  10.197   4.176 -0.3404  0.0745 -0.0401
 8036W        W24297   2.314  14.833   2.386  0.0459 -0.1547  0.1234
 8037W        W24298   7.544   2.288   2.000 -0.3992  0.4797 -0.3176
 8038W        W24299  15.750   1.808  12.575 -0.2092  0.0019  0.3414
 8039W        W24300  13.096  10.543  16.887  0.2570 -0.1271  0.0078
 8040W        W24301  15.786   0.566   3.754 -0.5684  0.0469  0.1544
 8041W        W24302  17.080   9.722  11.981  0.3790  0.3884 -0.0416
 8042W        W24303   5.344  12.137   4.466 -0.1947  0.2379  0.2350
 8043W        W24304  11.103   6.031   3.274 -0.0849 -0.2813 -0.2116
 8044W        W24305  10.998   8.415   1.450  0.4502  0.0838 -0.0819
 8045W        W24306   3.244   1.774   2.092  0.0439  0.2671  0.1001
 8046W        W24307  13.872  10.616  12.304 -0.1205 -0.1863 -0.0336
 8047W        W24308  10.911   1.804   1.838  0.0177 -0.1730  0.2073
 8048W        W24309   8.093   6.507   3.128  0.2000 -0.0324  0.2011
 8049W        W24310   1.871   9.656  13.225  0.0772  0.2254 -0.1313
 8050W        W24311  15.276   0.510   1.645  0.0852 -0.4259  0.1265
 8051W        W24312  12.964  12.584  12.674  0.0326  0.4064  0.0302
 8052W        W24313   0.840   5.625  16.225 -0.0277  0.0479 -0.1114
 8053W        W24314   7.790  12.684   3.359 -0.0904  0.2803 -0.0311
 8054W        W24315   2.826  12.811   2.267  0.2562 -0.3770 -0.0298
 8055W        W24316   1.682  11.525  15.534 -0.1807  0.0914 -0.1092
 8056W        W24317   1.828  13.441  16.677  0.1709  0.0879 -0.0660
 8057W        W24318   7.309   8.938   4.308  0.0814  0.0051  0.1694
 8058W        W24319  17.518  10.861   5.213  0.1473  0.0171 -0.2103
 8059W        W24320  15.218  14.736  14.706  0.1018 -0.0956  0.4076
 8060W        W24321   0.093  15.070   3.668  0.2048  0.2869  0.5639
 8061W        W24322  10.188   0.057   0.763  0.1236 -0.1670 -0.1269
 8062W        W24323   3.787  11.540  14.305 -0.2793  0.1144 -0.0616
 8063W        W24324  13.856   3.575  14.726  0.1846 -0.2343  0.3051
 8064W        W24325  16.751   2.413   2.312 -0.0946  0.0999 -0.1293
 8065W        W24326   5.000   9.769  15.171 -0.3059  0.0539  0.1390
 8066W        W24327  12.408   7.463   3.752 -0.1192  0.1420 -0.1124
 8067W        W24328  14.850  14.208   3.142  0.0441  0.2340  0.1631
 8068W        W24329   4.942  16.072  12.920  0.3631  0.0679 -0.2148
 8069W        W24330   0.471   6.606  14.401 -0.0417  0.0166  0.2016
 8070W        W24331  16.255  14.428   4.647  0.1248 -0.0691 -0.0945
 8071W        W24332   9.657   6.058  11.759 -0.0401 -0.2967  0.0208
 8072W        W24333   0.915   3.077   4.465 -0.1842  0.4274 -0.2812
 8073W        W24334   8.086  17.560   5.952 -0.0003  0.0516 -0.0478
 8074W        W24335  12.784  16.377   5.889  0.0012 -0.0908 -0.1527
 8075W        W24336   7.813   3.170   2.148  0.1065 -0.0001  0.0737
 8076W        W24337  14.048  13.412   4.156  0.0017  0.1029  0.0372
 8077W        W24338   0.216   6.207   5.605  0.1227 -0.0872 -0.1386
 8078W        W24339  11.389  12.986   3.303 -0.0846 -0.3240 -0.1475
 8079W        W24340  11.082   5.459  15.788  0.0328  0.2825 -0.0674
 8080W        W24341  16.209   4.506  12.091  0.0014  0.0761  0.2386
 8081W        W24342  11.983   4.719  12.808 -0.0551 -0.1035 -0.0448
 8082W        W24343   0.406  11.440   0.047 -0.3523  0.1629  0.1153
 8083W        W24344  10.650  16.663   4.804 -0.1082 -0.0357 -0.3592
 8084W        W24345   2.156  12.207  13.043  0.0907 -0.1643 -0.1535
 8085W        W24346  12.221   2.845   4.601  0.1397  0.0203  0.2586
 8086W        W24347   2.953  11.390  12.190 -0.1047 -0.0352  0.3111
 8087W        W24348   3.966  13.932  12.718  0.2904  0.0410  0.2214
 8088W        W24349   2.378  12.946   4.438  0.2145 -0.0739 -0.2608
 8089W        W24350   7.524   2.000   4.316  0.1625  0.1769 -0.3067
 8090W        W24351   8.876   3.950   3.203  0.0746  0.1415  0.1383
 8091W        W24352  15.524  14.055  15.202  0.0458  0.1746 -0.1271
 8092W        W24353  13.382  11.680  12.690  0.0676 -0.1251 -0.1192
 8093W        W24354   9.988  10.484  12.986 -0.1163  0.0710  0.3333
 8094W        W24355  12.421   5.985  14.271 -0.1272 -0.0659 -0.3188
 8095W        W24356   0.463  14.543  16.548 -0.1690  0.2035  0.1206
 8096W        W24357   9.954   1.516  15.771  0.0869  0.2338  0.0564
 8097W        W24358   2.543  13.738   2.097 -0.1208  0.1438  0.0024
 8098W        W24359  12.920   1.534  15.632 -0.0781  0.0087  0.2915
 8099W        W24360  11.655  11.896  10.720 -0.1027 -0.0856 -0.0874
 8100W        W24361   8.289   4.912  12.077  0.0568  0.0772  0.2908
 8101W        W24362   1.851   2.635  13.801  0.1081 -0.1140 -0.0717
 8102W        W24363   4.565   1.791  16.738 -0.0919  0.3722 -0.2752
 8103W        W24364   1.585  11.119   2.145 -0.2428 -0.0851  0.0993
 8104W        W24365  13.415   1.958   0.694 -0.1002 -0.0333 -0.0050
 8105W        W24366   8.732  14.846  11.692 -0.0041  0.0298  0.1307
 8106W        W24367  14.139  11.585  12.217 -0.0493 -0.2133 -0.0729
 8107W        W24368  10.409   2.305   6.449 -0.0435  0.3449  0.2728
 8108W        W24369   8.260   9.137   4.265 -0.1136 -0.3298 -0.1325
 8109W        W24370   1.055   4.839  16.655  0.0670  0.2538 -0.0307
 8110W        W24371   9.699   8.643   3.035  0.2181  0.4209 -0.1505
 8111W        W24372   9.554  12.788  13.651  0.3741  0.2345  0.0027
 8112W        W24373   4.148  17.513   2.393 -0.3092 -0.0138  0.1072
 8113W        W24374   5.707   8.878   1.022  0.0523  0.1181  0.0021
 8114W        W24375  14.352   1.067  14.128 -0.4307  0.1908 -0.2091
 8115W        W24376  17.682  15.448  15.576  0.0309 -0.1799 -0.0031
 8116W        W24377   5.267  14.804  12.447  0.1717  0.0730  0.0404
 8117W        W24378  10.085  15.644  14.203  0.0317  0.2703 -0.4186
 8118W        W24379  16.031  17.435   5.263  0.0198 -0.0662 -0.1931
 8119W        W24380   6.573  15.330   4.436  0.1924  0.0062 -0.0746
 8120W        W24381  16.695  13.302  13.474  0.0431  0.0675 -0.0909
 8121W        W24382   5.237   9.762   1.039 -0.0629 -0.2990 -0.1264
 8122W        W24383  16.242  13.061   0.019  0.0849  0.0069 -0.4077
 8123W        W24384   3.591  13.781   6.566 -0.2320  0.2209  0.0080
 8124W        W24385  13.041   6.300   1.471  0.1127 -0.2417 -0.1746
 8125W        W24386   1.979  15.881  11.990  0.0703 -0.2644  0.0425
 8126W        W24387   1.458   9.078  15.691 -0.0041  0.2374 -0.1033
 8127W        W24388   4.983  17.454  14.274  0.3019  0.0568 -0.1969
 8128W        W24389   4.480  16.976  14.324  0.0625 -0.1260  0.1922
 8129W        W24390   7.828   8.539  13.958 -0.2024 -0.2425 -0.2373
 8130W        W24391  11.919   7.830   0.168  0.0985 -0.2128  0.7391
 8131W        W24392   0.156   8.258  13.305 -0.1247  0.0821 -0.0364
 8132W        W24393   0.975   9.770   0.748 -0.2647  0.1597 -0.2081
 8133W        W24394  16.169   8.882   5.539  0.0680 -0.0587  0.0140
 8134W        W24395   0.550   3.586  14.488 -0.2550  0.1522 -0.2964
 8135W        W24396   2.306  14.759   6.288  0.0646  0.0256  0.2718
 8136W        W24397  12.146   6.742   1.414  0.0269 -0.0837 -0.1159
 8137W        W24398  17.825   6.679  12.731 -0.1130  0.0111 -0.0166
 8138W        W24399   9.699  16.346   5.125  0.1234  0.0846 -0.2437
 8139W        W24400  14.565   3.677   1.576  0.2355  0.2055  0.0638
 8140W        W24401  11.983   7.133   1.161 -0.2602  0.0931  0.0556
 8141W        W24402   3.356  14.888   1.808  0.0248 -0.2642  0.0853
 8142W        W24403  15.909   9.971   5.962 -0.1645 -0.2427  0.1755
 8143W        W24404   1.549  16.960  14.625 -0.1012  0.1999 -0.3689
 8144W        W24405  17.119  13.734   2.369  0.5434 -0.1149 -0.1233
 8145W        W24406  17.395   5.929   0.766 -0.2129  0.3658  0.2863
 8146W        W24407   2.791   5.413   2.875 -0.1147 -0.0948 -0.1255
 8147W        W24408  12.034   4.204   0.463 -0.1813  0.1692 -0.0957
 8148W        W24409   4.643   9.927   1.340 -0.3128 -0.0088  0.1092
 8149W        W24410   2.088   6.026   1.382  0.1647 -0.0115  0.2662
 8150W        W24411  13.783   2.270   1.700 -0.0311  0.3773  0.1015
 8151W        W24412   3.010  17.118   3.585 -0.0309  0.2419  0.1173
 8152W        W24413  12.834   2.031   4.937 -0.0533 -0.0760  0.0680
 8153W        W24414  13.102  10.083   0.898 -0.1453 -0.1596  0.3168
 8154W        W24415  17.082   3.741   0.094  0.0471  0.1778  0.1638
 8155W        W24416   8.912   9.417  12.225  0.0035 -0.1758 -0.1361
 8156W        W24417   1.262  11.757   4.118 -0.1236 -0.0549 -0.1911
 8157W        W24418   2.726  11.176  12.538 -0.1254 -0.0963  0.0253
 8158W        W24419  14.911  13.004  15.591  0.0644 -0.0257  0.2103
 8159W        W24420   3.668  15.061  14.974  0.2211  0.2925 -0.0194
 8160W        W24421   7.908  14.117  11.099 -0.1504  0.1019 -0.3695
 8161W        W24422   4.180   5.044  15.522 -0.0987  0.0467  0.0780
 8162W        W24423   3.618  17.363   5.715 -0.1600 -0.2237  0.2391
 8163W        W24424   4.000   5.695  13.215  0.1111 -0.0293  0.3118
 8164W        W24425  13.023   3.240   0.205 -0.2383 -0.0685 -0.1065
 8165W        W24426   0.697   7.340  16.756  0.0775 -0.0377 -0.1031
 8166W        W24427  17.660   7.353   2.091 -0.1028  0.1597 -0.0249
 8167W        W24428   3.981   2.334   3.941  0.0468  0.1022  0.2734
 8168W        W24429   6.325   2.457  16.146  0.0137 -0.0285 -0.4196
 8169W        W24430   7.753  16.566  15.508  0.0051 -0.0646  0.2134
 8170W        W24431  11.848   2.707   2.972 -0.0373 -0.0973 -0.0840
 8171W        W24432   6.267   8.332  14.199  0.0810 -0.2436  0.3013
 8172W        W24433  13.412   7.226  15.376 -0.0348  0.1338 -0.0055
 8173W        W24434   5.924  15.464  16.390  0.0502 -0.0377 -0.0778
 8174W        W24435   1.869   9.578   1.139 -0.2225 -0.3490 -0.1625
 8175W        W24436  17.095   1.232   3.608 -0.1919 -0.1283  0.1986
 8176W        W24437   2.233  16.370  12.030  0.0125 -0.1237  0.3034
 8177W        W24438   5.180   1.785   2.403 -0.0647  0.0077 -0.1139
 8178W        W24439   4.246   0.523  12.529  0.1115  0.0934 -0.2965
 8179W        W24440   3.277   3.728   0.063  0.0506  0.0768 -0.3205
 8180W        W24441   8.435   0.064  16.198  0.0610  0.1751  0.2360
 8181W        W24442   0.768  15.708   1.075 -0.2124  0.0565  0.1170
 8182W        W24443  13.020  11.776  16.082 -0.2732 -0.0758  0.0080
 8183W        W24444   1.920   9.060   1.291 -0.4456 -0.3662  0.2192
 8184W        W24445  14.193  12.329   1.925 -0.0273 -0.4447 -0.2041
 8185W        W24446  16.639  14.444  12.849  0.1574 -0.0162  0.1935
 8186W        W24447   1.852   0.418   5.852 -0.1144 -0.0514 -0.0083
 8187W        W24448  16.515   9.075   0.560 -0.4338 -0.2159  0.0734
 8188W        W24449  16.710  17.093  13.860 -0.0883 -0.0933  0.1313
 8189W        W24450   3.409  12.444  12.222  0.1798  0.1857  0.1043
 8190W        W24451   2.243  11.140  11.561 -0.0368 -0.0283 -0.0040
 8191W        W24452   9.384  17.775   4.974 -0.3443 -0.1098  0.1360
 8192W        W24453  16.884  15.101  13.463 -0.1096 -0.2336  0.0843
 8193W        W24454  16.693   1.922  13.996 -0.0631 -0.2258  0.2510
 8194W        W24455  10.429  16.986  15.729  0.1841 -0.2107  0.0130
 8195W        W24456   5.334  12.859  15.315  0.1353 -0.2216  0.1423
 8196W        W24457  12.495  14.218   5.642  0.1524  0.1547  0.0237
 8197W        W24458   1.263   9.817  12.444 -0.2301 -0.2209 -0.0455
 8198W        W24459   3.453   2.452  11.960 -0.2485  0.0665  0.2018
 8199W        W24460  10.914   5.805  15.452 -0.1631  0.0110  0.1970
 8200W        W24461   5.775  13.769  16.619  0.0852  0.1400  0.0567
 8201W        W24462   3.039  15.309   2.505 -0.2231  0.0277 -0.3801
 8202W        W24463  16.095   8.962  10.986 -0.2659 -0.0736  0.2098
 8203W        W24464  15.769   6.768   3.156  0.1089 -0.0981 -0.4308
 8204W        W24465   3.735   1.130   3.454  0.0573  0.1831 -0.1005
 8205W        W24466   0.265   5.126   4.288  0.1028  0.1437  0.2481
 8206W        W24467   6.605  14.318  12.493  0.2392  0.0940  0.1500
 8207W        W24468   6.821  16.459  16.370 -0.2545  0.2011  0.1790
 8208W        W24469  17.325   9.480   3.624  0.0274 -0.0365  0.1295
 8209W        W24470   9.613   2.946  13.288 -0.1097  0.2771  0.0215
 8210W        W24471   1.187   2.917   5.313  0.2956  0.2536  0.0775
 8211W        W24472  16.387  14.741  14.018  0.3390  0.1534 -0.0745
 8212W        W24473   2.626   8.227   5.483  0.2197  0.1375  0.0997
 8213W        W24474   9.622   5.824   3.472  0.0275 -0.2208 -0.1388
 8214W        W24475   3.664   7.590   2.576  0.0570  0.3025  0.1391
 8215W        W24476   6.920   8.138   4.506  0.1269  0.1958 -0.1602
 8216W        W24477   2.815  10.357   0.224 -0.2217 -0.0899  0.3091
 8217W        W24478  15.742   4.073  15.267  0.2445 -0.3597 -0.4385
 8218W        W24479   2.529   6.750  12.574  0.0259  0.0090 -0.1313
 8219W        W24480  12.937   4.793   3.173  0.1516  0.1389 -0.0631
 8220W        W24481  17.454   9.590  16.599 -0.1904  0.0164 -0.0728
 8221W        W24482   3.097   5.147   5.081 -0.0166 -0.3034 -0.2188
 8222W        W24483   1.854   6.428   2.723  0.0074  0.0429  0.3233
 8223W        W24484  15.802   7.398   5.463 -0.2674 -0.0479 -0.0933
 8224W        W24485   3.202  12.545   2.773 -0.0862  0.2496  0.0253
 8225W        W24486  11.064  14.653   5.072 -0.3650  0.2191  0.1603
 8226W        W24487   4.248   1.462   1.462 -0.3904 -0.0511 -0.0442
 8227W        W24488   6.498   4.583  11.977 -0.1168 -0.0107  0.3366
 8228W        W24489   3.525   5.372  14.124  0.0913  0.0229 -0.1941
 8229W        W24490   1.735   9.855   1.986  0.0495 -0.2524 -0.0197
 8230W        W24491   9.946  11.109  14.937 -0.1870  0.1102 -0.1592
 8231W        W24492   7.583   5.440  12.485 -0.1183 -0.0157 -0.1817
 8232W        W24493   7.181   3.736  15.472  0.3199  0.0485 -0.2984
 8233W        W24494  13.154   8.442   0.955  0.1818  0.0049 -0.3327
 8234W        W24495   7.859  14.572   0.866 -0.2201 -0.1145  0.1080
 8235W        W24496  11.743   2.948  16.513 -0.1519 -0.1167 -0.2184
 8236W        W24497   8.438  10.380  13.071  0.2022 -0.1483  0.0465
 8237W        W24498   0.795   4.650  15.386  0.1334 -0.2337  0.2017
 8238W        W24499   8.265  11.819  13.192  0.1382 -0.1300 -0.0849
 8239W        W24500  15.129   0.593   3.170 -0.2901  0.0319 -0.3115
 8240W        W24501  14.489  17.635   0.213 -0.1395  0.1899  0.1957
 8241W        W24502  17.225  12.251  16.083 -0.0767 -0.1573 -0.3808
 8242W        W24503  16.601  13.848   4.245 -0.0873  0.3994  0.4347
 8243W        W24504  10.227   5.552  12.954 -0.0434  0.1890 -0.2117
 8244W        W24505  13.145   9.258  15.956  0.0862  0.3034  0.3026
 8245W        W24506   6.660   2.181  15.607 -0.0725 -0.2243  0.3597
 8246W        W24507  14.537   0.199  16.915 -0.1378 -0.3289  0.0282
 8247W        W24508  14.138   0.208   0.847  0.0832  0.1010  0.1923
 8248W        W24509  13.969  11.796   4.854 -0.2285 -0.1662 -0.0464
 8249W        W24510   2.703   2.771   4.116 -0.0679  0.2301 -0.1005
 8250W        W24511   9.926  11.100   5.518 -0.2317 -0.3643 -0.0925
 8251W        W24512   1.987   5.278  14.597 -0.0600 -0.0608  0.0231
 8252W        W24513  16.800   4.561   0.340  0.0292  0.1041 -0.0572
 8253W        W24514  16.359   1.297  16.375 -0.3531 -0.2695  0.2737
 8254W        W24515  13.662  11.568   4.124 -0.0345 -0.0469 -0.2157
 8255W        W24516   2.722   9.236   1.142  0.3684  0.1033 -0.0349
 8256W        W24517  12.987  10.692   3.213 -0.1073 -0.0136 -0.0127
 8257W        W24518  16.597  13.077  12.949 -0.0523  0.1211  0.1724
 8258W        W24519  15.360   4.525   0.320  0.2185  0.0732 -0.0963
 8259W        W24520   4.294   2.169  11.765 -0.1534  0.0209 -0.0366
 8260W        W24521  11.454   0.703   5.656  0.0328 -0.1197  0.0922
 8261W        W24522  14.502   7.112   1.910  0.0253 -0.2214  0.1686
 8262W        W24523   8.203  11.837   2.244 -0.2321 -0.2208 -0.0116
 8263W        W24524   6.894   8.746   2.699 -0.0652  0.1481 -0.1300
 8264W        W24525  12.988  11.756   2.895 -0.1550 -0.0501  0.1122
 8265W        W24526  10.591  10.611   5.327  0.2990 -0.2042 -0.2136
 8266W        W24527  17.746   9.627  14.833  0.2476  0.2819 -0.1876
 8267W        W24528   8.731   7.782  11.991  0.3992 -0.0419  0.1229
 8268W        W24529  15.298   5.464  11.635 -0.0421  0.1168 -0.2124
 8269W        W24530  10.908   0.649   0.992 -0.0268 -0.3099  0.0543
 8270W        W24531   2.500   8.822  13.665 -0.2057  0.0060 -0.2376
 8271W        W24532   5.953  17.156  12.482 -0.0069  0.1970 -0.1993
 8272W        W24533  15.699  16.249   1.000  0.0510  0.0845 -0.1001
 8273W        W24534   9.093   7.032  14.781 -0.1114 -0.0352 -0.0805
 8274W        W24535   2.891   5.209  11.910  0.0071 -0.3688 -0.0843
 8275W        W24536   7.453  16.986  15.024 -0.0327 -0.0283 -0.1864
 8276W        W24537   3.654   3.772  16.661  0.0636 -0.0672  0.0404
 8277W        W24538   1.101  14.912  16.209  0.2395 -0.0841  0.2551
 8278W        W24539  13.072   3.938  13.314 -0.0141  0.0798  0.0147
 8279W        W24540   9.139  15.341  16.688  0.1014  0.0601 -0.0034
 8280W        W24541   2.692  12.202   4.247 -0.3686 -0.2246  0.1851
 8281W        W24542  17.245   0.100   2.549  0.0038 -0.0332 -0.0640
 8282W        W24543  14.274   1.820   5.302 -0.0348 -0.1779  0.2187
 8283W        W24544   5.022   0.112   2.757 -0.1196  0.0586  0.1748
 8284W        W24545  10.587  12.550   2.938 -0.2334 -0.2769  0.0480
 8285W        W24546   7.344   6.985   4.437  0.2044 -0.1832  0.1212
 8286W        W24547  10.554   0.130   2.605 -0.0975  0.3689 -0.1747
 8287W        W24548   2.962   9.465  13.296 -0.2816  0.0078  0.0363
 8288W        W24549   0.579   7.186   2.649  0.1006 -0.0287  0.0475
 8289W        W24550   8.613   5.768   1.202  0.2051 -0.0113 -0.0420
 8290W        W24551   1.771  15.654   4.321  0.0462  0.2659  0.1563
 8291W        W24552   9.228   8.455  13.645 -0.3288  0.0200  0.3572
 8292W        W24553  15.646   1.784  11.950  0.0064  0.1365 -0.1356
 8293W        W24554  10.349  16.024  15.992  0.1197 -0.0095  0.0542
 8294W        W24555   1.291   0.914  14.064 -0.2017  0.0627 -0.0125
 8295W        W24556   2.807  15.744  13.925  0.3110 -0.1198 -0.0471
 8296W        W24557   4.956  11.939  12.717  0.0784 -0.3423  0.0078
 8297W        W24558   8.054  13.528  14.983  0.2771  0.0492 -0.2460
 8298W        W24559  12.838  16.118  15.931 -0.1205  0.0194 -0.1694
 8299W        W24560   1.213  15.482   4.277  0.1049  0.0256  0.2285
 8300W        W24561   7.866   3.098   5.507 -0.1937  0.3045  0.1600
 8301W        W24562  14.284  17.408  11.782  0.3373  0.0028 -0.2148
 8302W        W24563   5.537   7.125  14.275 -0.1500 -0.0480  0.2878
 8303W        W24564  16.868   9.541   5.851  0.2232 -0.0138 -0.0207
 8304W        W24565  17.189  15.962   0.577 -0.1235  0.1893 -0.2149
 8305W        W24566   0.900  12.605   2.822 -0.1330 -0.1339 -0.1350
 8306W        W24567   1.482  16.540   3.112  0.1015 -0.0584 -0.1788
 8307W        W24568   5.472   5.437   0.474  0.1510  0.0102  0.0774
 8308W        W24569   9.361  15.449  14.632 -0.1364  0.0183 -0.1282
 8309W        W24570  11.257  16.953  16.331  0.0570  0.2939 -0.2696
 8310W        W24571   8.312   6.927   0.490 -0.1232  0.2110 -0.1812
 8311W        W24572  10.799   7.281   0.688  0.2154 -0.3931 -0.0587
 8312W        W24573   8.707  11.324  14.651 -0.0474  0.0917  0.0023
 8313W        W24574   0.926  12.545  14.213 -0.2765  0.1462 -0.2341
 8314W        W24575  15.598   3.424  12.197  0.0856  0.0940  0.4614
 8315W        W24576  13.106  17.621   4.258  0.1717  0.2593  0.1236
 8316W        W24577  17.411   2.074   1.650 -0.1409 -0.1742 -0.0875
 8317W        W24578   2.146   8.062   1.032  0.4035  0.1285 -0.0083
 8318W        W24579  17.237   2.189   5.217 -0.1993  0.3343  0.1376
 8319W        W24580   0.088   6.512  13.201  0.3246  0.0918 -0.0451
 8320W        W24581  11.712  15.091  12.809 -0.0044 -0.0039 -0.0133
 8321W        W24582  11.772  15.171   0.154 -0.0560  0.0299 -0.1471
 8322W        W24583  13.964   5.814  15.441 -0.2136 -0.1849 -0.0623
 8323W        W24584   4.228   9.139   0.163 -0.0910 -0.0318  0.0181
 8324W        W24585   1.909  17.652   4.448  0.0097  0.0498  0.2444
 8325W        W24586  14.466   5.377  12.153 -0.1773 -0.0222  0.2780
 8326W        W24587  14.768  10.820   2.602 -0.1971 -0.1190 -0.0566
 8327W        W24588   8.218  11.416  12.938  0.2582 -0.0421  0.0190
 8328W        W24589  15.237  15.817  16.068  0.2150  0.0485  0.3250
 8329W        W24590  13.272   7.398  13.355  0.1333  0.3108 -0.1335
 8330W        W24591   7.774   3.934  13.029 -0.1009  0.4711  0.1630
 8331W        W24592   8.295   2.596  16.759 -0.3127 -0.0654 -0.0145
 8332W        W24593   5.565  12.558   3.130 -0.0970  0.2137 -0.1022
 8333W        W24594   6.948   9.115   5.545 -0.1788 -0.1364 -0.0054
 8334W        W24595  13.814  14.906  13.699  0.1772 -0.0062 -0.0267
 8335W        W24596   4.160   0.178  15.869 -0.1352 -0.1517 -0.0082
 8336W        W24597   4.603   3.932   0.732 -0.1042 -0.0290  0.0908
 8337W        W24598   2.631   6.221  11.776 -0.2514 -0.0097 -0.0674
 8338W        W24599   6.833   0.541  14.452  0.0142 -0.0899  0.1521
 8339W        W24600   3.661  16.958  14.906 -0.1270 -0.0722 -0.0473
 8340W        W24601   5.582   3.046  12.484 -0.1635  0.2363  0.1378
 8341W        W24602   2.871   0.121   0.921 -0.3631 -0.1254  0.0374
 8342W        W24603  10.148  11.329  11.935  0.0583 -0.0363  0.0564
 8343W        W24604   2.050   3.474   1.845  0.1062  0.3142  0.3542
 8344W        W24605  17.153   1.036   1.619  0.1748  0.0200  0.1869
 8345W        W24606  14.137  14.936  15.042  0.0960  0.2281 -0.2634
 8346W        W24607   4.927   4.373   0.880 -0.2451  0.0128 -0.0048
 8347W        W24608   7.282   5.612   1.782  0.0498  0.4608 -0.2035
 8348W        W24609   6.582  15.476   0.324 -0.1085 -0.0490  0.1784
 8349W        W24610  12.395   0.847   2.304 -0.1795 -0.0328  0.2108
 8350W        W24611  10.869   8.231  14.833  0.1047  0.1701 -0.0433
 8351W        W24612  15.581  14.306  13.807  0.1362  0.1301  0.0891
 8352W        W24613   7.402   9.132  16.356 -0.2091 -0.2760  0.1101
 8353W        W24614  14.237   0.088  12.572  0.0640  0.0040  0.1154
 8354W        W24615   0.699   7.675   2.592 -0.1136  0.1349 -0.2057
 8355W        W24616   9.389   8.148  14.459  0.4057 -0.3600  0.2856
 8356W        W24617   4.979   6.165   4.163  0.0380 -0.1244 -0.0003
 8357W        W24618  17.383   9.945   5.432  0.2038 -0.2595 -0.0269
 8358W        W24619  14.872  17.114  14.342  0.1735 -0.0694 -0.3299
 8359W        W24620   1.377  14.117   1.540 -0.0911 -0.0974 -0.3108
 8360W        W24621   2.077  14.139   1.329  0.1982  0.0164 -0.0503
 8361W        W24622   6.778   1.068   3.131 -0.2252  0.0783  0.0454
 8362W        W24623   5.943   2.691   4.911 -0.0704  0.4105 -0.0070
 8363W        W24624   1.779  14.894   1.805  0.0071 -0.3641  0.2929
 8364W        W24625   8.262   0.822  16.405  0.0800  0.0457  0.3688
 8365W        W24626   6.928  12.643  14.719  0.0546  0.2576 -0.0447
 8366W        W24627   2.835  12.082  14.220  0.1636 -0.0611 -0.0549
 8367W        W24628  16.608   6.506   2.860 -0.0256  0.0895  0.4339
 8368W        W24629  12.561   1.934  12.858  0.2728  0.1157  0.0923
 8369W        W24630  10.667  14.133  13.456  0.2201 -0.1470  0.3668
 8370W        W24631   7.356  10.921  14.971  0.1988  0.2048  0.0610
 8371W        W24632   1.053   4.610  14.356  0.1512 -0.2009 -0.3085
 8372W        W24633   9.175   9.039  12.960 -0.1015  0.1937  0.0609
 8373W        W24634  13.690  14.635   4.202 -0.0041  0.0719 -0.3877
 8374W        W24635   1.769   9.299   0.318  0.1027  0.2859 -0.0137
 8375W        W24636  13.978   4.926   2.962  0.0260 -0.0904  0.5002
 8376W        W24637  12.277  12.291   5.860  0.1508  0.2749 -0.1954
 8377W        W24638  11.980  15.466  12.540  0.2618 -0.0431 -0.4069
 8378W        W24639   6.587   6.774  12.686 -0.2252  0.1779 -0.0742
 8379W        W24640  11.533   9.682  10.788 -0.1949 -0.2891 -0.2392
 8380W        W24641   7.121  13.989   4.189 -0.0623 -0.1713  0.3375
 8381W        W24642  16.891   8.195   3.698 -0.1373  0.1183 -0.5057
 8382W        W24643   8.357   7.956   3.207  0.0823 -0.1665  0.2848
 8383W        W24644   0.883  17.354  14.648 -0.0699  0.0777  0.1375
 8384W        W24645  10.292   8.370  12.414  0.1407  0.0857  0.2050
 8385W        W24646   7.273   8.126   1.312 -0.0471  0.1319 -0.0816
 8386W        W24647   2.419   6.357   3.599  0.2123  0.1757  0.2612
 8387W        W24648  15.274   6.784   2.925 -0.1175  0.0721  0.1804
 8388W        W24649   9.465  14.988  16.558  0.0356  0.0681 -0.0213
 8389W        W24650   6.816   2.852   2.035  0.0971 -0.0137 -0.1994
 8390W        W24651  14.539  15.369   4.812 -0.3646 -0.1435 -0.3056
 8391W        W24652  10.338  12.063  13.633  0.0573  0.2032 -0.0399
 8392W        W24653   3.026   2.332  13.073 -0.4249  0.1245 -0.1025
 8393W        W24654   1.345   7.286   3.454  0.0955 -0.0895 -0.0709
 8394W        W24655  15.843   8.026   1.072  0.0937  0.2773  0.2682
 8395W        W24656   6.547   8.610  15.531  0.2633 -0.3899  0.2453
 8396W        W24657  11.489   5.473   1.007  0.0197 -0.1028  0.3304
 8397W        W24658  10.668   9.852   3.645  0.0335  0.0464  0.2891
 8398W        W24659   6.275  17.153  13.927  0.0133  0.2731 -0.0962
 8399W        W24660   6.258   0.927  15.003  0.3123  0.0537  0.0457
 8400W        W24661   2.528   3.545  11.744 -0.1192 -0.1312 -0.0745
 8401W        W24662  11.308   1.070   5.133  0.3435 -0.2424 -0.0508
 8402W        W24663   6.884  11.572  13.122  0.1218 -0.0279 -0.0717
 8403W        W24664   4.886   2.740  16.526  0.2748  0.0272  0.1390
 8404W        W24665  10.266  10.863   6.381  0.0579  0.3098  0.1281
 8405W        W24666   7.291   3.156  11.635  0.0086 -0.2185  0.0478
 8406W        W24667   1.751   8.786   6.013 -0.2123  0.0945 -0.2719
 8407W        W24668  16.226   8.339   5.158  0.1734 -0.0792  0.0518
 8408W        W24669  15.885  17.736   1.849  0.0532 -0.0866 -0.1594
 8409W        W24670  16.652   4.413  16.688 -0.0829  0.0444 -0.3198
 8410W        W24671  12.800   6.137  12.736 -0.1143  0.1846  0.0755
 8411W        W24672   7.684   4.182  13.519  0.3178 -0.3329  0.1426
 8412W        W24673  12.849  16.214   0.409  0.0146  0.0435 -0.0781
 8413W        W24674   6.838  12.088   4.887 -0.1588 -0.1037  0.0093
 8414W        W24675   4.846   8.428   0.144 -0.2094 -0.2531  0.2421
 8415W        W24676   1.325  14.049  13.402 -0.1584 -0.4091 -0.0864
 8416W        W24677   2.951  15.625  13.143  0.0860  0.3088 -0.2963
 8417W        W24678  14.210  17.084   3.492  0.1283  0.0656 -0.3112
 8418W        W24679   6.005  10.945   3.851 -0.0075  0.0360 -0.0812
 8419W        W24680  11.743  12.301  15.972  0.5431 -0.0565  0.0767
 8420W        W24681   3.526   2.268  14.876 -0.1181  0.1321  0.0646
 8421W        W24682   5.880  16.926  14.079 -0.1600  0.4012 -0.1476
 8422W        W24683   7.412   3.042   4.299 -0.0740  0.2578 -0.1189
 8423W        W24684   2.139  15.534  16.597 -0.0460  0.2330 -0.2080
 8424W        W24685  10.309   6.551   0.931 -0.2312  0.4555 -0.0097
 8425W        W24686   8.678   0.764  16.773  0.0819  0.2158  0.0674
 8426W        W24687  11.879   5.788   0.074  0.1743  0.1243  0.1863
 8427W        W24688   9.011   9.542   2.803 -0.1250  0.0980 -0.2167
 8428W        W24689   6.008  14.494  16.057 -0.0208 -0.2446  0.2962
 8429W        W24690   4.188  14.356  14.591 -0.1539 -0.1482 -0.0991
 8430W        W24691  13.848  12.145  14.205  0.1731 -0.2587 -0.0347
 8431W        W24692  16.909   2.622   3.323 -0.2101 -0.0248  0.2965
 8432W        W24693  17.675   5.282  12.273  0.2942 -0.0796  0.2731
 8433W        W24694  12.197   1.365  12.930  0.0968  0.0806  0.2171
 8434W        W24695   7.936   6.153  12.362  0.1280  0.0047  0.0627
 8435W        W24696   7.749  12.257   3.072 -0.0247  0.0791  0.0297
 8436W        W24697  16.399  10.893  12.540  0.0846  0.3269  0.0879
 8437W        W24698  15.906  11.600  12.946  0.1006 -0.1447  0.5562
 8438W        W24699   5.737   5.020   2.626 -0.0723 -0.0004  0.0920
 8439W        W24700  15.103   9.292   2.116  0.1591 -0.0285  0.0060
 8440W        W24701   4.922  12.514   4.516 -0.1367 -0.0493 -0.0066
 8441W        W24702  16.601  11.951   4.649 -0.0167  0.1190  0.0007
 8442W        W24703   0.373  17.105   2.494  0.0055 -0.0084  0.0885
 8443W        W24704   8.072  17.102  13.764 -0.2671  0.4629 -0.0235
 8444W        W24705   7.482   3.677   3.752  0.1776 -0.1140  0.0102
 8445W        W24706   5.976  15.799  12.010 -0.0082  0.0487 -0.3356
 8446W        W24707   4.205  10.310   1.270  0.0655 -0.2671 -0.1150
 8447W        W24708   9.212  10.918   0.444  0.0153 -0.1331  0.2034
 8448W        W24709  11.703   4.494   5.545 -0.1972 -0.2254  0.2309
 8449W        W24710  15.174  11.341   5.777 -0.0100  0.0358 -0.0550
 8450W        W24711  10.235  17.096   0.190 -0.1176 -0.1265 -0.1428
 8451W        W24712   2.573  15.856   1.847 -0.3121 -0.2308  0.2258
 8452W        W24713  13.360   5.981   1.861 -0.0065  0.0809  0.0455
 8453W        W24714  13.350   0.356  13.705 -0.0213 -0.1962  0.0766
 8454W        W24715  13.302  10.859   2.183  0.0107  0.0572  0.2004
 8455W        W24716   2.144  11.887  14.708  0.1666 -0.0169 -0.0189
 8456W        W24717   7.879   9.417   0.868  0.0689 -0.0753 -0.0680
 8457W        W24718  16.985  17.840  15.671  0.0938 -0.1317  0.0679
 8458W        W24719   9.659   8.181   4.475 -0.4200 -0.0639  0.1268
 8459W        W24720   3.428  17.249  15.746 -0.0265 -0.1886 -0.3397
 8460W        W24721  15.438  10.914   5.693 -0.2366 -0.0021 -0.3648
 8461W        W24722   5.544   9.371  13.179 -0.0420  0.0983 -0.0667
 8462W        W24723   9.497   8.261  16.809  0.0845  0.1099  0.1184
 8463W        W24724   3.652  17.139   4.127  0.1733 -0.2832  0.0409
 8464W        W24725   5.579  12.632  14.093 -0.1052  0.1145  0.0755
 8465W        W24726  11.587   1.254  14.241 -0.0066  0.0153 -0.2591
 8466W        W24727  14.137  12.495  14.492  0.2537  0.2069 -0.0609
 8467W        W24728  13.977   3.930   0.462 -0.3153  0.0041 -0.0354
 8468W        W24729   4.557  15.127   3.518 -0.0278 -0.0087  0.0299
 8469W        W24730  14.433   3.791   1.035 -0.1422  0.5829  0.0956
 8470W        W24731  13.341  11.223  13.526 -0.3152 -0.1322  0.0741
 8471W        W24732   4.472  12.469   3.385  0.2253 -0.2834 -0.5409
 8472W        W24733   0.438  14.333  14.680  0.1387  0.2981  0.2728
 8473W        W24734   6.863   1.640  12.657  0.1675  0.3898 -0.0873
 8474W        W24735   2.268   6.823  14.748 -0.1371  0.2872  0.0576
 8475W        W24736   1.116  13.719  13.060  0.1449  0.0248 -0.1961
 8476W        W24737  16.237   0.415   5.456  0.1123  0.0880  0.2619
 8477W        W24738  15.902  10.687  13.352  0.1026 -0.3179 -0.2696
 8478W        W24739   2.530   6.156   4.010  0.1189 -0.3222 -0.0009
 8479W        W24740  14.247   8.478   0.434 -0.3299 -0.0608  0.1621
 8480W        W24741   5.602   7.111   5.497  0.0953 -0.0317  0.0599
 8481W        W24742   5.556  13.979  12.849 -0.2956 -0.0500  0.0791
 8482W        W24743   8.686   7.688  16.479 -0.4840  0.0531  0.0676
 8483W        W24744   0.917   9.297  13.988 -0.1460  0.2865 -0.0157
 8484W        W24745  13.187   8.954   3.422  0.0121  0.1185  0.0804
 8485W        W24746  15.668  13.864   5.349 -0.0128  0.1096  0.1044
 8486W        W24747   2.501  15.838  15.595 -0.1817  0.1906 -0.0738
 8487W        W24748  11.634  11.286   4.303  0.1442  0.0608  0.0339
 8488W        W24749  14.104  10.064   2.787  0.0999  0.3957 -0.0345
 8489W        W24750   5.314   5.494  15.131  0.1135 -0.3398  0.0304
 8490W        W24751  16.041   5.680  14.223 -0.0117 -0.1340  0.1786
 8491W        W24752   2.789   3.489   1.359  0.0162 -0.3226  0.1189
 8492W        W24753  12.068   8.262  15.046 -0.2729 -0.1787  0.1338
 8493W        W24754  16.015   1.636   6.084  0.0416 -0.1680 -0.0046
 8494W        W24755  10.692  14.343  15.757 -0.1180  0.0676 -0.0363
 8495W        W24756   4.341   8.879   5.360  0.4032 -0.0040  0.2351
 8496W        W24757  12.414   2.818  15.839  0.1226  0.0306 -0.0195
 8497W        W24758  10.890   9.217  14.284  0.4770  0.3481 -0.2104
 8498W        W24759  10.591  10.222   0.320  0.3957 -0.1895 -0.1179
 8499W        W24760   8.917   2.756   0.732 -0.1683  0.1179 -0.3458
 8500W        W24761  16.143   6.118  16.882 -0.1022 -0.4440 -0.0675
 8501W        W24762  15.957  14.109  14.847 -0.0341  0.0456  0.3645
 8502W        W24763  17.224   2.291   4.718  0.0339 -0.0539 -0.3844
 8503W        W24764  16.305   1.269   4.079 -0.2212 -0.0289  0.0339
 8504W        W24765  17.497   6.997  15.471  0.3649 -0.1057  0.0524
 8505W        W24766   9.738  17.566   0.923 -0.1902  0.0672  0.1615
 8506W        W24767   1.657  13.754  15.246 -0.0060  0.0189  0.0603
 8507W        W24768  16.222   2.037   0.124 -0.0285 -0.1887 -0.0649
 8508W        W24769   6.266   4.831  14.777 -0.1009 -0.1640 -0.0583
 8509W        W24770   0.954   9.943  13.412  0.3402  0.0179  0.4058
 8510W        W24771  16.137   3.188   5.003  0.1139 -0.0933 -0.0512
 8511W        W24772  15.016  12.813  14.693  0.1526  0.0999  0.0274
 8512W        W24773  16.809   1.523  16.229  0.2381  0.1728 -0.0073
 8513W        W24774   1.267   4.444  15.535 -0.0737 -0.0163 -0.3959
 8514W        W24775  12.599  12.425  11.687 -0.0330 -0.1381 -0.1498
 8515W        W24776   0.343  16.510  16.188  0.2728 -0.2344 -0.2378
 8516W        W24777  14.569  15.831   5.945  0.0025  0.1282 -0.1737
 8517W        W24778   4.554   3.119   0.396 -0.2586 -0.1459  0.0176
 8518W        W24779   9.679  10.292   4.631  0.2874  0.3338  0.1178
 8519W        W24780  12.217  13.458   4.519  0.0499 -0.2250  0.1637
 8520W        W24781   6.023  13.036   0.956  0.1350  0.0148 -0.0266
 8521W        W24782   0.091   3.332  11.889 -0.2284 -0.0400  0.3771
 8522W        W24783   4.773   5.879   1.973 -0.1379  0.0397  0.3424
 8523W        W24784  12.938  17.818  13.954  0.0076 -0.4074  0.0085
 8524W        W24785  16.303   2.887   4.523 -0.2671 -0.1592  0.1736
 8525W        W24786  16.156  11.105   3.790 -0.0176 -0.0391 -0.2005
 8526W        W24787  16.829  15.509  12.821  0.1058 -0.0784 -0.1644
 8527W        W24788  10.446   0.804   1.178  0.0869 -0.2939  0.2922
 8528W        W24789   4.094  16.720  15.043  0.2887 -0.2606  0.1585
 8529W        W24790   0.855  15.445  14.032  0.1267 -0.1581  0.2204
 8530W        W24791   7.227   0.224  14.552 -0.2423  0.0879  0.1684
 8531W        W24792  12.748   1.146  13.825 -0.0370 -0.1243  0.0351
 8532W        W24793   5.698  10.077   5.318 -0.0341  0.1527  0.0559
 8533W        W24794  16.482  15.144  11.578 -0.2698 -0.0544 -0.0355
 8534W        W24795   6.482  16.792  13.720 -0.0830 -0.0396 -0.2844
 8535W        W24796   9.078   5.851  12.643  0.1244  0.1806 -0.0997
 8536W        W24797  15.567  15.212  12.422  0.1506  0.2424 -0.1525
 8537W        W24798   7.851   3.701   6.066  0.1987 -0.1443  0.1514
 8538W        W24799  15.877   0.818  14.922  0.0034  0.0914  0.0669
 8539W        W24800   6.949   2.100   3.460 -0.0743  0.0388 -0.1823
 8540W        W24801   8.247   3.180   6.210 -0.2175 -0.2476 -0.2804
 8541W        W24802   3.704   7.383  16.446 -0.1824  0.1658  0.1187
 8542W        W24803  12.430  14.869   4.517  0.0909 -0.2469  0.1565
 8543W        W24804   6.894   7.775  14.641  0.0122  0.2849  0.2994
 8544W        W24805   5.788  10.572  13.720  0.2352  0.1446 -0.0382
 8545W        W24806   0.518   2.982  12.674 -0.3153  0.0923 -0.1903
 8546W        W24807   4.593  17.070   1.762 -0.1392  0.0155  0.1382
 8547W        W24808   4.716   0.103  11.849  0.0009  0.0804 -0.3676
 8548W        W24809  17.486   2.827   2.122 -0.0301  0.1887  0.3360
 8549W        W24810  12.037   0.025  16.427 -0.0705 -0.0845 -0.0550
 8550W        W24811  15.410  17.205   4.192  0.0463 -0.1104 -0.0503
 8551W        W24812  15.501  10.843   3.343  0.0032  0.0870  0.1687
 8552W        W24813   6.397  12.501  14.816  0.3767  0.0782  0.0746
 8553W        W24814  16.318  14.788   1.209 -0.1905 -0.0779 -0.0688
 8554W        W24815   5.354   0.852   6.505 -0.1402 -0.3999  0.1999
 8555W        W24816   9.349   0.191  16.743 -0.2896 -0.1677  0.1153
 8556W        W24817  12.144  13.305  15.438  0.0264 -0.1740  0.1353
 8557W        W24818   6.763   9.309   5.086 -0.2620  0.1437  0.0630
 8558W        W24819  17.664  17.688   0.394  0.0397 -0.1362 -0.1506
 8559W        W24820  10.511   9.042  13.202  0.2210 -0.4863  0.3816
 8560W        W24821  16.926   3.331  11.942  0.0539 -0.0460 -0.0153
 8561W        W24822   0.699   5.218   0.848 -0.1308  0.1532  0.1812
 8562W        W24823   6.417  16.465  16.612 -0.0295 -0.2567 -0.2664
 8563W        W24824   6.806  11.607   4.589 -0.0707 -0.2365 -0.1834
 8564W        W24825  11.280   0.274   1.068  0.3064 -0.3069 -0.0583
 8565W        W24826   3.576   7.262   5.074  0.1074 -0.1554 -0.0820
 8566W        W24827   3.866   9.827   4.004 -0.3820 -0.2344  0.1083
 8567W        W24828   1.945   3.260  11.013  0.3949 -0.1934  0.1752
 8568W        W24829  16.216   3.579  13.345 -0.1295 -0.2099  0.0309
 8569W        W24830  16.975  12.870   2.357 -0.0007 -0.1854 -0.0519
 8570W        W24831  17.019  16.421  15.704  0.1585  0.0147  0.2582
 8571W        W24832   2.276  15.355  11.650 -0.3655 -0.0310  0.1796
 8572W        W24833   7.040   2.442   5.480 -0.1855 -0.0003 -0.1837
 8573W        W24834  11.533   8.958  15.723  0.2452 -0.0420  0.0729
 8574W        W24835   1.649   3.773   3.194  0.1820  0.1021 -0.2833
 8575W        W24836   2.063   2.045   1.888  0.2097 -0.2227  0.0927
 8576W        W24837  14.433   3.276   0.064  0.0655  0.1586  0.1187
 8577W        W24838   4.230  11.365   4.133  0.2813  0.1693 -0.0176
 8578W        W24839  16.433   5.686  16.925  0.2160  0.2001 -0.0164
 8579W        W24840  16.735  16.530  12.839  0.2570  0.1586  0.0577
 8580W        W24841   6.977   6.488  14.609 -0.2788  0.1044  0.2076
 8581W        W24842   1.498   6.096  14.325 -0.4019 -0.0394  0.0657
 8582W        W24843   6.920  11.911  15.247 -0.0743  0.0236 -0.0350
 8583W        W24844   1.688  11.398  13.927 -0.1697  0.0575  0.1028
 8584W        W24845  12.672   2.766   1.075  0.3644  0.1809 -0.1715
 8585W        W24846   6.311  17.681   2.864  0.3308  0.2522  0.1586
 8586W        W24847   4.572   3.635  13.982  0.0514 -0.2145  0.3906
 8587W        W24848  15.376   1.036   4.022  0.1440  0.0972 -0.2685
 8588W        W24849   1.541   7.676   2.109  0.2454  0.0999 -0.2640
 8589W        W24850   5.906   2.677   1.574  0.0249 -0.2240  0.0454
 8590W        W24851   9.721  12.303   2.561 -0.4259  0.2446 -0.0873
 8591W        W24852   8.132   3.351  14.872 -0.1763  0.4628  0.1859
 8592W        W24853   2.118   8.730  12.804  0.0674  0.1100 -0.2524
 8593W        W24854  14.397   6.960   3.619  0.0969 -0.2452 -0.0002
 8594W        W24855  16.286  12.009  15.119 -0.0331 -0.1167  0.0502
 8595W        W24856   7.971  10.837  11.232  0.0258  0.0041 -0.1469
 8596W        W24857  16.982   1.981  16.153 -0.3126  0.1822  0.2245
 8597W        W24858   8.182   6.994   4.349  0.1403  0.0539 -0.0718
 8598W        W24859   7.399   8.040   0.344  0.3219  0.4304  0.1577
 8599W        W24860   2.710  10.083  12.654 -0.4021 -0.0294 -0.0227
 8600W        W24861   2.004   8.532   1.112  0.0629  0.1681 -0.0271
 8601W        W24862   8.349   3.538  12.081  0.1649  0.2893 -0.4552
 8602W        W24863   9.905   7.501   5.430  0.0748 -0.1849  0.1029
 8603W        W24864   8.928  17.535  15.483 -0.0217  0.2654 -0.0695
 8604W        W24865   8.402  17.347   0.108 -0.1475 -0.0124  0.0263
 8605W        W24866   7.746  10.460  12.933  0.2185 -0.0395  0.2785
 8606W        W24867  13.498  15.779   0.183 -0.0309  0.2993  0.0380
 8607W        W24868   2.052   5.195  13.687  0.0294 -0.1605 -0.2820
 8608W        W24869   2.448  10.906  14.587 -0.3238 -0.0607 -0.1086
 8609W        W24870   6.280   1.820  16.950  0.0350  0.2330 -0.0002
 8610W        W24871   2.609  15.156   3.258  0.0893 -0.0005 -0.0270
 8611W        W24872   8.846   6.850   2.612  0.1293 -0.0576 -0.2703
 8612W        W24873   8.103   2.897   1.353  0.1409  0.0534 -0.2738
 8613W        W24874  16.632   7.886   0.160  0.3332 -0.1324  0.0998
 8614W        W24875  15.398   8.872   4.505 -0.2675  0.1244  0.0779
 8615W        W24876   3.720   0.946   3.891 -0.1116  0.0468 -0.2157
 8616W        W24877  14.746   4.065  15.434 -0.3031 -0.1478 -0.1370
 8617W        W24878   0.768   7.573   4.171 -0.2384  0.1626  0.0104
 8618W        W24879  15.537   5.597   5.097 -0.0692 -0.1758  0.2099
 8619W        W24880   1.729   3.625  14.330 -0.1549  0.0091  0.1154
 8620W        W24881  14.099   6.060  11.772 -0.3491  0.2444  0.1214
 8621W        W24882  11.034  15.701   4.501 -0.3430  0.3440  0.1077
 8622W        W24883   1.851   6.961  16.213  0.0229 -0.2566  0.0080
 8623W        W24884   4.784   3.486  12.982  0.0851  0.1500  0.2191
 8624W        W24885   0.467   5.254  12.600 -0.0567  0.0863  0.0877
 8625W        W24886  11.658   2.290   3.956 -0.1604 -0.1008  0.1198
 8626W        W24887   1.558  13.151  10.638  0.0752 -0.0758 -0.1511
 8627W        W24888   6.489   5.483  16.451 -0.1236 -0.0518  0.0067
 8628W        W24889  12.998  17.691  13.031 -0.0644  0.1520 -0.2492
 8629W        W24890   6.477   6.016  14.651  0.3563  0.1616  0.1629
 8630W        W24891   9.751   3.924  13.856 -0.2137  0.1668 -0.0914
 8631W        W24892   6.468  12.107   1.103  0.0827 -0.0480  0.0924
 8632W        W24893   7.872  11.198  12.195 -0.0167  0.0613 -0.3190
 8633W        W24894  14.088   9.783  14.922 -0.1511  0.1068 -0.0489
 8634W        W24895   9.768   3.507  14.123 -0.0012  0.1378 -0.2856
 8635W        W24896   4.023  12.161  13.271 -0.2128 -0.1054  0.1461
 8636W        W24897  17.458  17.450   2.669  0.2949 -0.2151  0.1354
 8637W        W24898  14.144  14.991   5.030  0.1389  0.1764  0.0104
 8638W        W24899   7.751  16.619   5.066 -0.2873  0.1149 -0.0531
 8639W        W24900   6.693  17.363  12.928 -0.0538 -0.0761  0.1212
 8640W        W24901   1.900   3.384  13.703 -0.0775 -0.1675  0.0198
 8641W        W24902   8.716   6.768  13.683  0.2705  0.0110 -0.0487
 8642W        W24903   5.770   5.051   0.667 -0.0912  0.0539  0.0264
 8643W        W24904  10.803   3.269   2.659 -0.2284 -0.1334 -0.1129
 8644W        W24905   5.899  11.797   5.786 -0.2841  0.1165 -0.3223
 8645W        W24906  17.101  10.106  13.690  0.0331  0.4390 -0.2700
 8646W        W24907   3.740   3.318  16.103  0.1225 -0.1156  0.2297
 8647W        W24908  17.333   5.832   1.986  0.0243 -0.0065 -0.2252
 8648W        W24909  16.731  17.664  12.088 -0.1850  0.1448  0.1607
 8649W        W24910  12.001   0.049  12.030  0.0973  0.1310 -0.2295
 8650W        W24911  11.499   5.016   3.324 -0.1266  0.0893  0.2259
 8651W        W24912  15.351  14.832  12.161 -0.1298  0.0827 -0.0876
 8652W        W24913   8.800   4.834   2.195 -0.0721  0.2025  0.1892
 8653W        W24914   2.467  12.973  13.719  0.0288 -0.1371 -0.1798
 8654W        W24915  10.509  14.811   0.901 -0.1454  0.1228 -0.2673
 8655W        W24916   3.600   8.644  16.972  0.3638 -0.2601  0.0776
 8656W        W24917   7.394  10.869   3.292  0.2900  0.0299 -0.0724
 8657W        W24918   1.161  15.992  13.424  0.0681  0.0201  0.0135
 8658W        W24919   3.231   6.171   4.028  0.0145 -0.2646  0.1290
 8659W        W24920  15.741  10.349  15.590 -0.2700 -0.2952 -0.1219
 8660W        W24921   8.298   2.974   5.715 -0.3878  0.1296 -0.1749
 8661W        W24922  11.047  13.533   0.697 -0.0532 -0.2213 -0.0520
 8662W        W24923  15.610  11.355  14.779 -0.1088 -0.1746 -0.2022
 8663W        W24924  11.447   1.480   6.018 -0.0183  0.1333  0.2155
 8664W        W24925   6.843   9.612  11.617  0.2682 -0.1236  0.0084
 8665W        W24926   4.419   1.186   4.050  0.1679 -0.1894 -0.1898
 8666W        W24927   1.909   8.536   2.763  0.3460 -0.1655  0.1551
 8667W        W24928  16.256   1.276   4.645  0.1507  0.0801 -0.1818
 8668W        W24929   0.699  17.821   5.031  0.0794  0.0385 -0.1439
 8669W        W24930   6.569  14.859   2.388 -0.0331  0.0074  0.0027
 8670W        W24931   3.808  17.202   2.305  0.0281  0.2943  0.3086
 8671W        W24932  12.525   0.041   1.901 -0.0212  0.0752 -0.2820
 8672W        W24933   4.290  11.544  14.746  0.2557  0.1715 -0.2702
 8673W        W24934  17.583  10.111  14.740  0.0247  0.1425 -0.0548
 8674W        W24935   0.006   1.523   0.341  0.0413 -0.1617  0.0257
 8675W        W24936  10.624   0.025   5.978 -0.0873  0.0899  0.5385
 8676W        W24937  15.264   8.387  13.841 -0.1358 -0.0101 -0.0503
 8677W        W24938  13.997   2.821  15.272 -0.1795 -0.1989  0.3448
 8678W        W24939   4.909  10.343  14.464  0.0228  0.3936 -0.1864
 8679W        W24940   9.255   9.520  14.182 -0.1046 -0.0172 -0.4821
 8680W        W24941   4.786   4.669  16.612  0.2094  0.2557 -0.1821
 8681W        W24942   3.905  11.129   4.620  0.0990  0.0518  0.0650
 8682W        W24943   1.530  13.784  15.736  0.0258  0.0302  0.0360
 8683W        W24944  14.497   5.933   3.775 -0.1112 -0.2010  0.2009
 8684W        W24945   6.208  14.004  14.558 -0.0516  0.2180 -0.4143
 8685W        W24946  16.135  16.868   3.295 -0.2856  0.0007 -0.3734
 8686W        W24947   5.695  17.180   5.674 -0.0378  0.1510 -0.0068
 8687W        W24948   8.862   2.729  14.124  0.0079 -0.2748  0.1837
 8688W        W24949   9.495   6.632   0.777  0.1355 -0.2796  0.3923
 8689W        W24950  10.192  15.768   0.856  0.3406 -0.0523 -0.1082
 8690W        W24951   8.600  17.109  13.591  0.0145  0.0534 -0.1203
 8691W        W24952  12.195  15.869   3.438  0.0642  0.0069  0.4281
 8692W        W24953   1.121   2.099   3.704  0.0617  0.0090  0.1776
 8693W        W24954   5.405   2.659   0.596  0.1428  0.1758 -0.2535
 8694W        W24955   3.310   7.654   0.161  0.0046 -0.0850 -0.2243
 8695W        W24956  15.289  12.004   5.076 -0.0822 -0.0129 -0.1623
 8696W        W24957   7.971   7.028   0.822  0.0487  0.0180 -0.1210
 8697W        W24958  17.408  14.528  13.358 -0.2481 -0.1171 -0.0737
 8698W        W24959   7.498  13.940   1.590 -0.0196  0.0149 -0.0482
 8699W        W24960  15.920  15.734   5.407 -0.0799  0.1886  0.0262
 8700W        W24961  11.914   0.976   1.206 -0.0120 -0.0500 -0.0572
 8701W        W24962  16.698  10.141  11.776  0.0191 -0.0629  0.2675
 8702W        W24963   2.310   0.308   1.845 -0.0020  0.0037  0.2829
 8703W        W24964  10.187  15.939  15.172  0.0276  0.3487 -0.0213
 8704W        W24965   7.815  13.082  15.045  0.0050 -0.2878  0.1601
 8705W        W24966   1.408  11.994  15.185  0.0584 -0.1446  0.0061
 8706W        W24967   7.190   4.227   2.105 -0.0856 -0.2190 -0.1646
 8707W        W24968   8.536   3.352  13.089  0.1173  0.0772  0.0065
 8708W        W24969   2.661  10.316   1.996 -0.2487  0.0127 -0.0961
 8709W        W24970   4.743   9.744   0.797  0.2557  0.1387 -0.1584
 8710W        W24971  13.646  11.742  16.772 -0.1650 -0.0511 -0.2760
 8711W        W24972   0.342   9.030  11.913 -0.0912  0.2709 -0.0313
 8712W        W24973  11.135   8.447   4.163 -0.1818  0.1934 -0.0332
 8713W        W24974  16.813  15.629  15.827  0.3070  0.0708  0.1249
 8714W        W24975   0.878  17.303   0.899 -0.0048  0.1908 -0.1929
 8715W        W24976  12.504  15.287  15.850 -0.1334  0.2649  0.1328
 8716W        W24977  13.364  11.958   3.132  0.4687  0.1393 -0.0077
 8717W        W24978   0.581   1.149  11.403  0.1642  0.3398 -0.1045
 8718W        W24979  16.744  15.901   0.111  0.0293  0.1003  0.0730
 8719W        W24980   9.172  11.007  14.622 -0.0631 -0.1008  0.1632
 8720W        W24981   7.583   9.609  16.323  0.1667 -0.2778  0.3559
 8721W        W24982   7.324  15.390   2.565 -0.0803  0.0470  0.0077
 8722W        W24983   5.095   7.942   2.002  0.3786  0.2533 -0.0554
 8723W        W24984   7.414  14.744   3.622  0.0550  0.1007  0.0330
 8724W        W24985  17.315  13.299   6.081  0.1895  0.0150  0.0589
 8725W        W24986  16.110   3.198  15.314 -0.2241 -0.0306 -0.1249
 8726W        W24987  12.813   7.179  16.967  0.0248 -0.2616 -0.2358
 8727W        W24988   9.761   7.436  10.816  0.2399  0.2140  0.3183
 8728W        W24989   4.033  13.829  11.720 -0.0785  0.0919  0.0811
 8729W        W24990  12.961   5.044   4.902  0.1697 -0.0348  0.0543
 8730W        W24991  17.836  11.944   0.726  0.0037 -0.0724 -0.4100
 8731W        W24992   9.697   0.960   0.268 -0.0645  0.1405 -0.0344
 8732W        W24993  16.727   1.737  11.935  0.0289 -0.1662  0.2080
 8733W        W24994  11.561  12.673   2.988  0.1269 -0.0291  0.0200
 8734W        W24995  15.113   6.687   4.416  0.1992 -0.2104  0.1215
 8735W        W24996  13.073  17.267  13.363  0.0962 -0.2482  0.1364
 8736W        W24997   2.721   7.291  15.988 -0.1610  0.1278 -0.3026
 8737W        W24998  15.929   0.396  14.690 -0.2273  0.0496 -0.4823
 8738W        W24999   3.578   8.222   5.122 -0.1660 -0.0777 -0.1187
 8739W        W25000   1.628  12.519   3.608 -0.0559 -0.0529  0.0512
 8740W        W25001  10.138  17.841   5.511 -0.0493 -0.2686 -0.0726
 8741W        W25002  10.582  11.943   6.464 -0.1501  0.3987  0.2524
 8742W        W25003   1.433  12.091  12.256 -0.0938 -0.0311  0.1660
 8743W        W25004   5.505   1.349   4.755  0.1870  0.1128  0.1351
 8744W        W25005  16.384   6.604  15.037 -0.0590 -0.0985  0.0661
 8745W        W25006  14.552  13.517   4.306 -0.1768 -0.0458 -0.3114
 8746W        W25007  16.771   7.678   3.518 -0.1518 -0.2132  0.5593
 8747W        W25008   8.362   4.680   5.780  0.1870  0.0443 -0.1783
 8748W        W25009   1.069  12.186   2.996  0.0084  0.0997  0.0464
 8749W        W25010   7.544  12.240   0.396  0.0780 -0.1257  0.0007
 8750W        W25011  13.149   0.599   3.711  0.0998 -0.1384 -0.0117
 8751W        W25012   9.438  15.680   0.024  0.3105 -0.1291  0.0526
 8752W        W25013  13.520  16.757   5.951 -0.0804  0.0575  0.0112
 8753W        W25014  13.738   0.275   1.598 -0.1395 -0.1655 -0.0796
 8754W        W25015   6.336   9.195  13.517 -0.0199  0.3280  0.0547
 8755W        W25016   9.978   9.184   6.847  0.1310 -0.1106 -0.0614
 8756W        W25017  16.103   3.836  16.074 -0.2726  0.1898 -0.0432
 8757W        W25018   7.401  16.668   4.098 -0.0308 -0.0905  0.0877
 8758W        W25019   4.737  16.933   2.996  0.1937 -0.2131  0.3108
 8759W        W25020  11.382   9.507   6.510  0.1036 -0.0779  0.1296
 8760W        W25021  16.139   7.157   3.900 -0.0610 -0.5739  0.1663
 8761W        W25022  11.415   8.901   4.236  0.2793  0.2400  0.0182
 8762W        W25023   0.952  10.067   1.250  0.0165  0.0077  0.3121
 8763W        W25024  14.984  14.712   1.966  0.1267  0.0797 -0.0368
 8764W        W25025   6.780   9.188   4.111  0.0239  0.1134 -0.0103
 8765W        W25026  10.106   6.972   4.155  0.0998 -0.1408  0.0372
 8766W        W25027   7.543   4.397  16.077 -0.0119  0.0622 -0.3890
 8767W        W25028  14.306   2.077   3.389 -0.0003  0.0881  0.0431
 8768W        W25029   6.358   2.636  12.781  0.1268  0.0846  0.1188
 8769W        W25030  12.715   7.436   4.683  0.1333 -0.1878  0.0064
 8770W        W25031   9.793   1.727  15.278 -0.0617  0.1718  0.0158
 8771W        W25032  11.709   1.437  10.650 -0.1206 -0.1700  0.1734
 8772W        W25033  15.886  13.791  13.037 -0.0822  0.0342  0.0416
 8773W        W25034   7.624  15.899   4.473  0.0499 -0.0772  0.0125
 8774W        W25035   7.692  13.201   2.484  0.1309 -0.3801  0.0661
 8775W        W25036   7.854   1.887  11.539  0.0754 -0.0828  0.0285
 8776W        W25037  17.427  17.070   5.510  0.3674  0.2274 -0.2071
 8777W        W25038   2.299   6.450   1.540 -0.4275 -0.2289  0.1725
 8778W        W25039  13.650   6.916  14.558  0.0999  0.3280  0.0898
 8779W        W25040  12.361  14.749   5.652 -0.4369 -0.2725  0.1153
 8780W        W25041  13.700   9.853   2.438  0.1002 -0.1572 -0.0268
 8781W        W25042   6.358  15.078  12.970 -0.0045 -0.0780 -0.5891
 8782W        W25043  12.723   4.683   5.302  0.1108 -0.0465 -0.1153
 8783W        W25044   7.451   9.960  11.055 -0.1068  0.1273 -0.0671
 8784W        W25045  10.447   3.473   4.970  0.0491  0.0156  0.0222
 8785W        W25046  12.133  15.847  15.381 -0.0160 -0.0212  0.2644
 8786W        W25047  17.223   5.876  13.608  0.0135 -0.1278  0.2669
 8787W        W25048   9.787  14.887  15.692  0.3804  0.0629  0.1647
 8788W        W25049   9.921  15.048  13.794 -0.2150 -0.0552  0.0338
 8789W        W25050   6.712   4.771   5.213 -0.1676 -0.2011  0.2274
 8790W        W25051  11.852   0.716   2.451 -0.1973  0.0139  0.2077
 8791W        W25052  12.106   3.621  12.629  0.1141 -0.0026  0.0999
 8792W        W25053   1.220   8.787   6.052  0.0840  0.0525 -0.0396
 8793W        W25054   3.894   1.184  16.752 -0.0966  0.0443  0.2342
 8794W        W25055   2.731   4.975  14.902  0.0244 -0.1373  0.1997
 8795W        W25056   4.166   4.637   1.692 -0.4468  0.0407 -0.2215
 8796W        W25057   8.014   1.724  14.820 -0.0893  0.0495 -0.0698
 8797W        W25058   4.825   7.018   3.493  0.0286 -0.2516  0.1708
 8798W        W25059   0.493  10.443  15.886  0.1571  0.0203 -0.0444
 8799W        W25060  13.748  14.411  16.027 -0.1639  0.0004 -0.1618
 8800W        W25061   4.238   5.193  14.724  0.0579  0.2396 -0.2845
 8801W        W25062   1.573   8.018  14.658  0.0431  0.4205  0.2002
 8802W        W25063   2.840   9.913   5.006 -0.2811  0.2349 -0.0263
 8803W        W25064   7.670  16.048  15.570 -0.3829  0.0262 -0.0456
 8804W        W25065  15.784   6.827   0.172  0.0085 -0.2756 -0.0811
 8805W        W25066   9.279   4.976   4.842  0.0373 -0.0466  0.0412
 8806W        W25067  11.663  10.126  14.409  0.1174 -0.2039 -0.2059
 8807W        W25068   7.586  13.565   1.282  0.1704 -0.1439  0.1579
 8808W        W25069  10.075   0.963  15.835 -0.0375 -0.0217 -0.1513
 8809W        W25070  12.700   9.444  13.505  0.1178 -0.1115  0.1541
 8810W        W25071   4.718  17.697  16.461 -0.0746  0.0345 -0.1200
 8811W        W25072  13.445   5.599   5.724  0.1669 -0.1920 -0.2196
 8812W        W25073   7.137   1.006   2.661 -0.1228 -0.0545  0.3279
 8813W        W25074  11.742   4.456  13.231 -0.0134  0.0589 -0.0418
 8814W        W25075  14.998   7.247  13.403 -0.0337  0.0873 -0.0258
 8815W        W25076  12.867   3.261  15.760  0.0940  0.1428  0.1217
 8816W        W25077   6.137   0.572   0.300 -0.0137 -0.0397 -0.0757
 8817W        W25078   8.338   4.843   4.015  0.0235 -0.3062  0.0307
 8818W        W25079  13.534   6.985  13.474 -0.1386  0.0520  0.2375
 8819W        W25080   2.056   7.130  16.974 -0.0878 -0.4273 -0.0400
 8820W        W25081   0.957   3.106   3.181 -0.1883 -0.1173  0.1975
 8821W        W25082   9.708   2.953   3.458  0.1288 -0.0925  0.2519
 8822W        W25083   0.258  17.118  16.263  0.1215 -0.3323  0.0718
 8823W        W25084  17.802   7.964   3.379 -0.0168  0.5141 -0.2541
 8824W        W25085  15.347  10.212  12.670 -0.0903 -0.2529  0.0809
 8825W        W25086   4.767   6.733  13.248  0.1151 -0.1488  0.2348
 8826W        W25087  14.127   8.349   2.581 -0.1609  0.1091 -0.0993
 8827W        W25088  14.055   3.512  13.528 -0.2631  0.0513  0.0860
 8828W        W25089  11.408   1.367  13.633 -0.0551 -0.3915  0.2935
 8829W        W25090  12.646   9.217   2.754  0.0371 -0.3511 -0.0670
 8830W        W25091  15.961  16.761  16.350 -0.1530  0.2959 -0.1118
 8831W        W25092  13.298  16.607  12.971  0.0452 -0.0148  0.0213
 8832W        W25093  13.730   9.700  15.972  0.2024  0.0697  0.1173
 8833W        W25094   5.018   6.967   1.273 -0.1855  0.2347 -0.1380
 8834W        W25095  15.445  15.801  15.603 -0.1095  0.4802 -0.0619
 8835W        W25096  16.382  16.062   2.889 -0.1013  0.2660  0.0661
 8836W        W25097  11.760  15.022   1.190  0.0967  0.0292 -0.3206
 8837W        W25098  15.566  17.405  15.661  0.0075 -0.1092 -0.0724
 8838W        W25099   6.839   5.558   2.850  0.2230 -0.0713  0.0971
 8839W        W25100   2.975   0.558  15.897 -0.1753 -0.0373 -0.0465
 8840W        W25101  10.503  14.515   0.113  0.2532  0.1130 -0.1592
 8841W        W25102   4.602  11.294  15.007 -0.3387 -0.1481 -0.2569
 8842W        W25103   9.203   9.459  11.273  0.1210  0.1054 -0.0397
 8843W        W25104   1.591   5.981   5.385 -0.3703  0.0720 -0.2220
 8844W        W25105  11.414  15.823   3.072  0.1448 -0.3247 -0.2423
 8845W        W25106   8.388  13.995   0.517 -0.1960  0.2114 -0.3504
 8846W        W25107  11.310   3.325  16.370  0.1351  0.1614 -0.0957
 8847W        W25108  10.963   3.758   2.455  0.0926  0.1466 -0.2538
 8848W        W25109   6.839  17.126   1.254  0.1058 -0.2697 -0.5098
 8849W        W25110  14.885  12.357   5.445 -0.1843 -0.1119  0.0023
 8850W        W25111   8.229  13.199   0.373  0.0388 -0.0909  0.0384
 8851W        W25112   0.590   2.201  14.521  0.0656 -0.1716  0.1503
 8852W        W25113  10.781  13.710  15.000  0.3373  0.2449 -0.0981
 8853W        W25114  16.766   0.314   5.267 -0.2263  0.0043 -0.3256
 8854W        W25115   8.203   2.041  11.914  0.0208  0.0473 -0.1821
 8855W        W25116  17.144  16.202  13.297  0.2887  0.0679 -0.0524
 8856W        W25117  15.043   2.813  12.559 -0.1004  0.2446 -0.0301
 8857W        W25118  15.984   9.855  12.525  0.0666  0.0822 -0.0764
 8858W        W25119  17.766  12.997   3.546 -0.3118  0.0467 -0.0001
 8859W        W25120  14.183   4.572  14.948 -0.0138 -0.1348  0.2547
 8860W        W25121   1.222   6.830   5.188 -0.1616 -0.0685  0.4401
 8861W        W25122   0.872  10.273  15.620 -0.1798  0.0533  0.1320
 8862W        W25123   9.240  15.891   1.635 -0.1163  0.2487  0.0732
 8863W        W25124  17.779  16.389  14.433  0.0658 -0.2012 -0.0591
 8864W        W25125  15.592   9.631   0.027  0.1392  0.0728  0.1343
 8865W        W25126   6.572  10.796  13.584 -0.1440 -0.0668  0.1510
 8866W        W25127  13.431   0.085  12.816 -0.1488 -0.0563 -0.0226
 8867W        W25128   1.720   6.792   5.356 -0.3631  0.0241 -0.2700
 8868W        W25129   5.511   5.833   3.143 -0.3517 -0.0656  0.0573
 8869W        W25130   1.884  12.451  10.775 -0.3382  0.3653  0.1420
 8870W        W25131  17.747   2.246   4.932  0.0569  0.3016 -0.3863
 8871W        W25132  16.987  17.627   3.500 -0.0041 -0.0925  0.0584
 8872W        W25133   7.705   1.642   3.897  0.1449 -0.0915 -0.0188
 8873W        W25134  15.531   3.419   3.151 -0.1070  0.2818  0.1143
 8874W        W25135   8.606   4.861   5.378 -0.0100  0.2146 -0.0607
 8875W        W25136  12.522   6.389  11.744 -0.1508 -0.0414  0.1018
 8876W        W25137   3.425  11.179  12.052 -0.1124  0.0751 -0.2726
 8877W        W25138   1.499  16.647   4.548  0.2869 -0.4155  0.1051
 8878W        W25139  17.603  11.785  15.737  0.2835 -0.0078 -0.2528
 8879W        W25140  16.294   8.651   0.401  0.1688 -0.1079  0.1680
 8880W        W25141   1.113   6.024  14.654 -0.3417 -0.0382 -0.0010
 8881W        W25142   2.147  14.434  12.112 -0.0381  0.0887  0.0101
 8882W        W25143   6.985  17.569   2.145  0.1250  0.1014 -0.1756
 8883W        W25144   4.120  12.405   1.612  0.4489  0.0758  0.1079
 8884W        W25145   6.032   9.357   4.111  0.0437 -0.3063  0.0486
 8885W        W25146  16.378   1.592   2.196 -0.3072  0.0371  0.0187
 8886W        W25147   4.468  13.301   4.610  0.0758  0.3960 -0.0214
 8887W        W25148   4.735  12.198   4.825  0.0283 -0.0891  0.0149
 8888W        W25149  16.892  16.583   2.405 -0.2458  0.0931  0.3179
 8889W        W25150  12.037   1.040   0.388  0.1975  0.2387  0.0599
 8890W        W25151  10.386   5.057  16.340  0.0992  0.1261  0.1572
 8891W        W25152  15.220   8.185   2.689  0.0438  0.2217 -0.0401
 8892W        W25153  12.682   0.689   1.884  0.0818  0.0719  0.0212
 8893W        W25154   0.074  14.475  13.246  0.2302  0.0576 -0.0726
 8894W        W25155   1.922  10.314  14.894 -0.1633  0.1810 -0.2699
 8895W        W25156  12.147   5.011  12.337  0.1574 -0.0376  0.0819
 8896W        W25157  14.558  17.536  13.621 -0.1403  0.1626 -0.0992
 8897W        W25158  15.138   2.412  12.220 -0.0255  0.1207 -0.1284
 8898W        W25159   1.644   3.579   4.518 -0.4169 -0.0368  0.2425
 8899W        W25160   8.465   9.067  16.207 -0.1253  0.0025  0.4277
 8900W        W25161  17.486   2.702   3.478  0.1431  0.1844 -0.0796
 8901W        W25162  17.197  12.293  13.737 -0.2624  0.1172 -0.1282
 8902W        W25163  11.828  11.659   4.040 -0.2392 -0.0133  0.0394
 8903W        W25164  10.321   8.625   5.750  0.2140  0.0284 -0.0593
 8904W        W25165   3.518   6.091  15.824  0.1964  0.1522 -0.1822
 8905W        W25166   8.828   2.847  13.606 -0.2761  0.3129 -0.2969
 8906W        W25167   7.204  13.276  12.570 -0.0474  0.1307  0.1454
 8907W        W25168   2.380  14.290  15.514 -0.0889  0.2211 -0.3788
 8908W        W25169   0.580   4.363  13.773 -0.1344  0.2294  0.0651
 8909W        W25170  12.775  16.947   4.829 -0.2774 -0.1662  0.2100
 8910W        W25171  13.903  15.776   5.555  0.0404  0.1798  0.2454
 8911W        W25172  16.876   3.495   5.012  0.5075 -0.0369  0.4049
 8912W        W25173   8.413   2.705   3.762 -0.0876  0.0855  0.0514
 8913W        W25174  14.993   6.023  12.753 -0.1552 -0.0509  0.2202
 8914W        W25175  10.469   4.348   1.893 -0.1754 -0.0244  0.2195
 8915W        W25176   4.824  14.260   5.941 -0.0296  0.1042  0.0219
 8916W        W25177   6.535   9.187   2.819 -0.1749  0.0733 -0.4168
 8917W        W25178   2.183   6.833   3.525 -0.1119  0.0775 -0.0442
 8918W        W25179  10.939  16.559  16.379 -0.2281  0.2925 -0.1584
 8919W        W25180   2.368  14.155  14.606 -0.0524 -0.2671 -0.1298
 8920W        W25181  10.331  12.048   0.217 -0.0999  0.3841  0.1334
 8921W        W25182  15.946  11.814   3.613  0.0016  0.1661 -0.1361
 8922W        W25183  12.721   4.190  12.317 -0.1761 -0.2423 -0.0056
 8923W        W25184   6.045  12.145   1.467  0.0877  0.0663 -0.2822
 8924W        W25185  16.732   0.262   3.805 -0.1725 -0.2365  0.0307
 8925W        W25186   3.050   2.209  12.165  0.0484 -0.0604 -0.1850
 8926W        W25187   8.127   3.937  11.927 -0.2961  0.3130  0.0361
 8927W        W25188   8.884  14.398  13.801  0.0503 -0.0409  0.0356
 8928W        W25189  14.693   2.670  11.527 -0.0427 -0.2338 -0.3238
 8929W        W25190   9.866   3.557  12.980  0.0390 -0.0269 -0.2434
 8930W        W25191  10.593  16.572   1.287  0.6381  0.1721 -0.2837
 8931W        W25192   6.145   2.495   5.762 -0.3681  0.1177  0.2219
 8932W        W25193   3.285   4.903  13.382 -0.3845  0.0133 -0.2720
 8933W        W25194   1.373  11.006  12.918  0.1185 -0.0353  0.2733
 8934W        W25195   8.215  14.765  12.115 -0.0626 -0.1224  0.0251
 8935W        W25196   2.980  13.917   6.399 -0.1970  0.3406 -0.2890
 8936W        W25197  13.228   6.149   3.259 -0.1849  0.0472  0.4366
 8937W        W25198  16.602   8.727   0.956  0.1279  0.0460  0.0017
 8938W        W25199   1.620   0.645  13.735 -0.0734  0.2487 -0.1141
 8939W        W25200  17.456   2.240  12.060  0.1972  0.2602  0.2547
 8940W        W25201  15.833   5.503   3.469 -0.2605  0.1376  0.0011
 8941W        W25202   8.251   2.773   2.795  0.2738  0.1852 -0.3157
 8942W        W25203   4.051   5.755   3.151 -0.1530  0.0168 -0.2142
 8943W        W25204   6.015  13.804   3.273 -0.2223  0.0948 -0.1545
 8944W        W25205   8.478  17.037  15.928  0.0080  0.2991 -0.1584
 8945W        W25206  12.481   6.641  13.511 -0.2221 -0.3391 -0.4078
 8946W        W25207   7.971   7.743   2.434 -0.0260  0.1623 -0.2126
 8947W        W25208   8.932  15.164   5.293  0.0156 -0.0863 -0.3574
 8948W        W25209   1.770  15.606   5.412 -0.0680  0.0037 -0.4984
 8949W        W25210   9.543  17.640   3.303  0.0274  0.4471  0.1213
 8950W        W25211   7.888   1.933   1.267  0.1823  0.1492 -0.3103
 8951W        W25212  16.368  17.793  15.254  0.3203  0.1138  0.1377
 8952W        W25213   4.327   8.241  15.213 -0.2429  0.2099  0.0422
 8953W        W25214   5.817   3.004   4.179  0.1137 -0.3811 -0.3418
 8954W        W25215  11.089   2.777  15.062  0.2344 -0.0730  0.0412
 8955W        W25216   2.320   7.683   0.728 -0.3137 -0.0674  0.0344
 8956W        W25217   5.394  15.281  16.333  0.1074  0.0878 -0.1079
 8957W        W25218  13.387   3.377  16.823  0.0046 -0.1242 -0.1160
 8958W        W25219  11.187  15.057   4.800 -0.2072 -0.0931  0.3777
 8959W        W25220   4.650   7.407   1.315 -0.0939 -0.0811 -0.1243
 8960W        W25221   2.418   2.403   3.898 -0.1927  0.2824 -0.3197
 8961W        W25222   5.356   1.451   0.045  0.1736 -0.1364 -0.0290
 8962W        W25223   2.828   4.479  12.484  0.1152  0.1123 -0.1949
 8963W        W25224  13.361  10.152  15.926  0.1541  0.0718 -0.2497
 8964W        W25225   5.700   6.695   6.350  0.0245  0.1957 -0.0776
 8965W        W25226  11.656  11.693   4.801 -0.1819 -0.1464 -0.1451
 8966W        W25227  14.865  10.506  15.273  0.0183  0.2535 -0.0568
 8967W        W25228  15.436   7.791   1.096  0.0827  0.0937 -0.0987
 8968W        W25229   1.311   3.692  11.755  0.0759  0.0321 -0.1177
 8969W        W25230   5.963  13.331  12.142  0.0309 -0.0706  0.1677
 8970W        W25231   2.895   9.757   6.050  0.3331  0.0742  0.1201
 8971W        W25232  16.949  12.931   5.772  0.1220  0.1339  0.0155
 8972W        W25233   8.769  16.170   2.668  0.1054  0.1389 -0.0893
 8973W        W25234  14.554   2.784  16.719  0.0272  0.1148  0.1259
 8974W        W25235  11.281  11.384   1.994 -0.0580 -0.0324 -0.2232
 8975W        W25236  16.194  12.502   2.412 -0.3055 -0.1921  0.0371
 8976W        W25237   2.945  16.427   1.097 -0.1453  0.0077  0.1108
 8977W        W25238   9.586  12.008   2.173  0.0123 -0.2298  0.1512
 8978W        W25239  17.446  12.772   0.896  0.0904  0.0853  0.0176
 8979W        W25240   0.109   7.787   4.178  0.1617  0.1223  0.1242
 8980W        W25241   6.332  12.987   3.013  0.1948 -0.1773  0.1097
 8981W        W25242   8.580   8.760   4.276  0.0447  0.3352 -0.0645
 8982W        W25243   9.093  13.953   5.679 -0.2030 -0.2481 -0.1464
 8983W        W25244  15.563  16.092   5.289 -0.1860  0.0091  0.1797
 8984W        W25245  12.167   7.534  13.708  0.0950  0.2688 -0.2009
 8985W        W25246   8.889   0.905  11.623 -0.0368  0.0874  0.1386
 8986W        W25247   2.815  17.667   4.308  0.0159 -0.0711  0.0024
 8987W        W25248   8.488   2.473  14.926  0.0891 -0.2439  0.0230
 8988W        W25249   3.676  13.890  13.922  0.3171 -0.1455 -0.0351
 8989W        W25250   8.150  12.113  16.549 -0.0064 -0.1021  0.0305
 8990W        W25251  14.701   3.123   3.117  0.0562 -0.0059  0.1040
 8991W        W25252   2.269   3.847   5.589 -0.2943 -0.0093 -0.0916
 8992W        W25253  15.820  17.244   2.604  0.1587 -0.0206 -0.0896
 8993W        W25254   2.806   7.988  11.411  0.0055 -0.1504  0.1208
 8994W        W25255   0.289   2.373  15.050 -0.1169 -0.1522  0.0323
 8995W        W25256   5.484   3.182  16.089  0.1189 -0.1881 -0.3339
 8996W        W25257  12.249  11.600  15.501  0.1166  0.2611 -0.0979
 8997W        W25258   6.366   1.286   1.278  0.1770 -0.2439  0.1228
 8998W        W25259  16.030   2.438  16.282 -0.0490 -0.1791  0.0551
 8999W        W25260  12.047   2.265  14.080  0.1287  0.1151  0.1796
 9000W        W25261  11.625   8.138   2.085 -0.3196  0.1298  0.0708
 9001W        W25262  11.412  12.641   1.573 -0.0133 -0.1783 -0.1288
 9002W        W25263  14.999  16.216   3.675 -0.0977  0.1057  0.3927
 9003W        W25264  16.507   4.844   2.569  0.2592  0.0766 -0.1852
 9004W        W25265  10.298   5.877  15.976 -0.1240 -0.1357  0.1143
 9005W        W25266   0.477   3.358   2.930  0.2359  0.0326  0.2601
 9006W        W25267  11.391   7.672   3.270 -0.1446 -0.0640 -0.0170
 9007W        W25268   8.688  13.205   6.376  0.0445  0.0159  0.0538
 9008W        W25269   1.275  13.085   5.233 -0.2142 -0.0828 -0.3839
 9009W        W25270   6.972  14.417  14.633 -0.2309  0.2175 -0.1750
 9010W        W25271  11.417  17.824  13.760  0.0067  0.3146  0.1531
 9011W        W25272   1.266   1.570  14.401  0.1051  0.4281  0.1312
 9012W        W25273  11.428  13.763   2.425  0.1140 -0.2283  0.0112
 9013W        W25274   7.421   8.724  11.750  0.0961 -0.1784  0.1830
 9014W        W25275   9.820  10.832   2.381 -0.1005  0.1132 -0.0022
 9015W        W25276  14.601   8.650   5.662 -0.4133 -0.0942 -0.0591
 9016W        W25277  10.817   1.701   0.236 -0.2337 -0.0776  0.1191
 9017W        W25278   8.260   8.030   3.683  0.0123 -0.1491  0.0377
 9018W        W25279  17.447   7.741  13.700 -0.1187  0.2661  0.1236
 9019W        W25280  15.562  13.829  13.483 -0.1557  0.1405 -0.2078
 9020W        W25281   3.228   7.176  13.822 -0.2830 -0.0877  0.2149
 9021W        W25282   8.424  16.583  11.796 -0.0120  0.0236 -0.0401
 9022W        W25283  15.487   7.837   4.523  0.2144  0.0052  0.2481
 9023W        W25284  12.822  10.291  15.916  0.0106  0.1093  0.1510
 9024W        W25285  11.763   8.200   2.583  0.0632 -0.0263  0.1211
 9025W        W25286   6.120   6.421  13.319 -0.0512 -0.2579 -0.3869
 9026W        W25287   1.902   9.762  14.292  0.2629 -0.0329 -0.0506
 9027W        W25288   3.534  12.672  14.329  0.0730  0.1140 -0.2812
 9028W        W25289  11.683   5.234   3.751 -0.0700  0.1807 -0.1509
 9029W        W25290   5.494  14.616   4.466 -0.0641  0.3057 -0.0681
 9030W        W25291   2.107  13.254   6.292 -0.0963 -0.1285  0.0540
 9031W        W25292  10.366   3.876  16.439  0.1582  0.1522  0.0315
 9032W        W25293   3.602   6.335  16.789  0.3129 -0.2192  0.1364
 9033W        W25294  15.428   4.333   1.534 -0.0076  0.0786  0.0312
 9034W        W25295  13.773   7.943  11.949  0.1527 -0.1146  0.1735
 9035W        W25296  13.160  11.393  13.986 -0.2290  0.0672  0.2795
 9036W        W25297   4.646   4.533   1.582 -0.1521 -0.0019 -0.0808
 9037W        W25298   7.852   2.386   1.602  0.2362  0.0260  0.0851
 9038W        W25299   2.768  17.080  12.650 -0.0707 -0.1859  0.0652
 9039W        W25300  15.885   8.851   2.270  0.2243 -0.0819  0.2570
 9040W        W25301   5.260   7.872   0.125  0.0914 -0.0032  0.0479
 9041W        W25302  15.578   3.055  11.846 -0.2696 -0.0661 -0.2862
 9042W        W25303   3.293   8.785  15.236  0.0888  0.0167  0.2664
 9043W        W25304   4.724  17.414  15.439 -0.1504  0.2753  0.1081
 9044W        W25305   9.558   3.040  12.375  0.0009 -0.2904 -0.0794
 9045W        W25306   0.526  14.461   4.915 -0.2058  0.1897  0.0400
 9046W        W25307   1.905  13.288  15.097  0.0495  0.0210 -0.0407
 9047W        W25308  17.451  15.788   1.857  0.0717  0.0640 -0.0466
 9048W        W25309   8.152   3.930   0.012  0.0743  0.2064 -0.1315
 9049W        W25310   8.395  14.070   6.066  0.0843  0.1500  0.1762
 9050W        W25311  14.646  17.300   5.208  0.1195 -0.0514 -0.1279
 9051W        W25312  14.221   4.422   2.996 -0.1218 -0.0636  0.1794
 9052W        W25313  11.286  16.592  14.160  0.0223 -0.0105  0.0244
 9053W        W25314  11.333   7.490   0.532 -0.1732  0.1582  0.0022
 9054W        W25315  13.060  16.216  13.210 -0.2421 -0.1693 -0.1687
 9055W        W25316  14.201   9.271  12.012 -0.1321  0.1351 -0.1010
 9056W        W25317   7.983  12.170  13.711 -0.1117  0.1324 -0.0722
 9057W        W25318   1.724  10.552   3.800 -0.0754 -0.1113  0.1658
 9058W        W25319   4.057   8.222   1.090 -0.1778  0.1653  0.1238
 9059W        W25320   2.815  11.037   1.162  0.1027 -0.0668 -0.0432
 9060W        W25321   8.269  13.155  15.209  0.0333 -0.2275  0.1264
 9061W        W25322  10.877   4.364  13.634  0.2144 -0.0499 -0.1362
 9062W        W25323  12.375   4.326  16.433  0.0025  0.2443 -0.0666
 9063W        W25324   0.309  10.739   4.512 -0.0816 -0.1440  0.1856
 9064W        W25325   6.733   3.035   3.736 -0.1735  0.1156 -0.1002
 9065W        W25326   1.088   2.214   1.685  0.3047  0.1232  0.1370
 9066W        W25327  17.338   3.856   2.211  0.0036 -0.2106  0.0800
 9067W        W25328   7.973  17.663   2.003  0.0675 -0.2040  0.1149
 9068W        W25329  11.766  11.979  12.971 -0.1751 -0.0961  0.0345
 9069W        W25330  11.991  13.505  13.239 -0.0812 -0.0800 -0.2919
 9070W        W25331   6.493  12.119  15.976 -0.0737  0.1633  0.1358
 9071W        W25332  15.907   3.831   4.408  0.1833  0.0776  0.1763
 9072W        W25333   1.520   4.265  12.496 -0.1989 -0.1533 -0.2543
 9073W        W25334   3.595  17.458  14.151 -0.0026  0.0780  0.0043
 9074W        W25335  14.336  17.472  12.622  0.0049  0.1378 -0.0631
 9075W        W25336  14.634   6.548   3.092 -0.0534 -0.0075  0.1220
 9076W        W25337   8.886   4.352  15.187 -0.0458 -0.0901  0.0740
 9077W        W25338  17.645   5.944  15.948  0.1446  0.1009  0.1043
 9078W        W25339   9.268   9.886  11.539 -0.0375 -0.0955 -0.0785
 9079W        W25340   0.999   0.607  11.757 -0.1063 -0.3327 -0.0975
 9080W        W25341   9.069   4.326  12.707 -0.0116 -0.1782  0.0765
 9081W        W25342  16.857  17.818   2.233 -0.0590 -0.1004 -0.2409
 9082W        W25343  12.056   3.442   3.536  0.1080 -0.2822  0.1212
 9083W        W25344   6.196  12.933  16.892  0.0566  0.0220  0.0274
 9084W        W25345  10.467  16.326  14.940  0.3594  0.1029  0.1240
 9085W        W25346  13.474   3.566  15.060  0.1960 -0.0877 -0.3378
 9086W        W25347  15.222  15.184   1.963  0.1484 -0.0170  0.1007
 9087W        W25348  15.429   4.020   4.588 -0.0244  0.0215 -0.0330
 9088W        W25349   4.223   9.727   2.978 -0.0264  0.1454  0.1571
 9089W        W25350   9.592   8.054   4.996 -0.0597  0.1982 -0.1547
 9090W        W25351  12.426  12.436   1.402  0.0197 -0.0950  0.1521
 9091W        W25352   2.146  13.121  14.282 -0.0788 -0.0996  0.1657
 9092W        W25353  10.156   1.531  14.889 -0.2506  0.1230 -0.1210
 9093W        W25354  12.131   5.989   3.282 -0.1146  0.0083  0.3696
 9094W        W25355  17.425   6.306  12.747  0.0242 -0.2110 -0.2769
 9095W        W25356  12.866   8.191   3.503  0.0900  0.2673 -0.0904
 9096W        W25357   6.011  13.479  15.751 -0.1366 -0.0500 -0.1692
 9097W        W25358  12.489   6.425   5.497 -0.0772  0.1343  0.1554
 9098W        W25359  11.258   0.482   2.942 -0.3379 -0.0990  0.0557
 9099W        W25360  12.112  13.292   5.110 -0.4447  0.1172  0.0363
 9100W        W25361   1.687  11.263   2.607 -0.3809 -0.0238 -0.3615
 9101W        W25362  16.613  13.377  12.073 -0.2920  0.0138 -0.0994
 9102W        W25363  10.380   8.348  11.603 -0.4531  0.0525  0.1400
 9103W        W25364   0.703   7.203  12.542  0.1137  0.0552  0.2224
 9104W        W25365   2.213  15.976   5.625 -0.0922  0.0898  0.1108
 9105W        W25366   8.550  13.606  14.966  0.3554  0.1017 -0.1157
 9106W        W25367  13.215  16.429   5.682  0.0427  0.2583 -0.3575
 9107W        W25368   0.578   4.414  14.308 -0.2474 -0.0360  0.0538
 9108W        W25369   6.508  10.525  16.043  0.2259 -0.1882 -0.1137
 9109W        W25370   5.769   5.171  12.264 -0.1500  0.1134  0.3352
 9110W        W25371   3.081   4.962   6.026 -0.0348 -0.1110 -0.2306
 9111W        W25372   6.467   6.542  16.811 -0.0137  0.1186 -0.0578
 9112W        W25373  12.677   1.778  16.010 -0.0008 -0.2212  0.4293
 9113W        W25374  13.358   5.776  16.902 -0.0568  0.0378 -0.1470
 9114W        W25375  10.997  15.608   3.224  0.2180 -0.2495  0.1731
 9115W        W25376   7.316  17.265   1.429  0.1268  0.0825 -0.2524
 9116W        W25377  11.020  12.217  11.789 -0.0699  0.0637  0.1801
 9117W        W25378   2.105   2.795   4.024  0.0729 -0.0303  0.0790
 9118W        W25379   8.050   9.391   3.362  0.0479 -0.2444 -0.0142
 9119W        W25380   4.688  17.240   5.822  0.1069 -0.0739 -0.1026
 9120W        W25381   7.222   7.202  15.388 -0.0205 -0.1030  0.1254
 9121W        W25382  15.064  16.661  12.271  0.0157  0.3698 -0.1252
 9122W        W25383   1.414   6.543  12.388  0.0710  0.1045  0.0240
 9123W        W25384   3.150   5.035  14.386 -0.0752  0.2930 -0.1097
 9124W        W25385   3.433   5.562   0.091 -0.0767 -0.1517 -0.4041
 9125W        W25386  15.313  17.365   2.769 -0.0488  0.0596  0.0617
 9126W        W25387   1.895   4.816  13.052  0.2893  0.0075 -0.3629
 9127W        W25388  16.758   4.970  14.937  0.0509  0.0285 -0.0332
 9128W        W25389  15.478   3.187  12.824  0.2196 -0.0385  0.1314
 9129W        W25390  12.018   1.497  11.550  0.4415 -0.1308  0.2565
 9130W        W25391   6.707   8.561   4.714  0.0166  0.0030  0.1685
 9131W        W25392  17.212   8.710   4.982 -0.2150  0.3027 -0.0670
 9132W        W25393   6.549  15.491  14.061 -0.3656  0.2073 -0.2865
 9133W        W25394   3.155  11.147   1.660 -0.0834  0.5780  0.0310
 9134W        W25395   9.454   4.050   5.089 -0.2330 -0.1453  0.1736
 9135W        W25396   9.766   9.380  15.978 -0.0764  0.2821  0.1144
 9136W        W25397   9.615  16.537  15.620  0.1934  0.0739  0.0488
 9137W        W25398  16.141  10.137  15.829 -0.2146 -0.0194 -0.0125
 9138W        W25399  16.131   2.951  14.822  0.0812  0.0800  0.4399
 9139W        W25400   9.169  13.098  16.405  0.3878  0.2095 -0.1438
 9140W        W25401   0.018  12.007   1.730 -0.0988 -0.0368 -0.0161
 9141W        W25402   2.292   8.212  14.669 -0.0650 -0.0559 -0.1871
 9142W        W25403  16.997   7.065  12.288  0.0942 -0.0911  0.1949
 9143W        W25404  16.219   4.062   2.240  0.1076 -0.0699  0.4319
 9144W        W25405  16.737   9.694  15.153 -0.2150  0.2633  0.3755
 9145W        W25406  16.780  10.605   0.355 -0.2081 -0.0482 -0.0458
 9146W        W25407   5.827   3.263  11.583 -0.0516  0.4762 -0.2587
 9147W        W25408   7.997   5.236   0.601 -0.3755 -0.1023  0.1592
 9148W        W25409   2.437   3.229   2.194  0.1364 -0.1391 -0.2474
 9149W        W25410   7.208   7.442  15.842  0.3974 -0.0814 -0.1064
 9150W        W25411  16.972  11.452  12.058  0.0104  0.2797  0.0264
 9151W        W25412  15.721  17.569   5.766  0.1580  0.0912  0.1244
 9152W        W25413   1.785  10.307  15.367 -0.0096  0.0344 -0.1378
 9153W        W25414   7.860  15.088  12.875 -0.2623 -0.3417 -0.0445
 9154W        W25415  14.505  10.779  16.196 -0.1949  0.2634 -0.0147
 9155W        W25416  16.050  16.108   3.587  0.2799  0.3035  0.1491
 9156W        W25417   0.609  17.421   2.817  0.0157  0.2037 -0.2285
 9157W        W25418   9.803   3.547   2.801 -0.1401 -0.0397 -0.3692
 9158W        W25419  11.163  17.553   3.191 -0.0777  0.1231 -0.0254
 9159W        W25420   7.384   8.554   1.058  0.0013  0.0150  0.0884
 9160W        W25421  16.153   4.762   1.265 -0.0484  0.0884 -0.0013
 9161W        W25422  10.463  12.831  16.726  0.2885  0.1678  0.0268
 9162W        W25423  14.504   7.583   1.504  0.0303 -0.3835  0.0637
 9163W        W25424  10.908  17.147  13.522  0.2932 -0.2097  0.0030
 9164W        W25425  15.389   1.465  15.624  0.1058 -0.0643  0.4143
 9165W        W25426  12.325  10.069   3.639 -0.1048 -0.2181 -0.4538
 9166W        W25427   7.283  16.284  13.169 -0.0393 -0.0992 -0.0192
 9167W        W25428  14.223  13.266  14.464 -0.2218  0.1046  0.2048
 9168W        W25429   5.936   9.746  12.308 -0.0713  0.0464 -0.1829
 9169W        W25430   3.071  13.996   1.081  0.0486  0.1603  0.4200
 9170W        W25431   2.364   5.048  13.257 -0.1134  0.1466 -0.3426
 9171W        W25432   9.988   1.006   5.642  0.3124  0.0024 -0.1331
 9172W        W25433  17.256   3.323   2.276 -0.0130  0.2456  0.0274
 9173W        W25434  13.054   7.436  15.703 -0.4019 -0.1807 -0.0781
 9174W        W25435   2.278   1.316   1.797 -0.1394 -0.0365 -0.0748
 9175W        W25436   0.973   7.961   1.507  0.2652  0.0368 -0.2208
 9176W        W25437  16.808  17.036  12.316 -0.1460  0.0317  0.1335
 9177W        W25438   0.873  17.788  12.931  0.3234  0.2605 -0.1495
 9178W        W25439  13.706   2.887  15.797  0.0538 -0.0572 -0.0061
 9179W        W25440   8.844  12.620  15.215 -0.3929 -0.0758 -0.2507
 9180W        W25441   8.326  14.416  15.406 -0.0155  0.1760 -0.0772
 9181W        W25442   3.057  10.127   3.768 -0.0018 -0.1161 -0.2395
 9182W        W25443  11.744  12.824   1.196 -0.0313 -0.0301  0.1884
 9183W        W25444   2.177  11.047   1.551  0.0912 -0.3031  0.0383
 9184W        W25445  10.354   2.223   3.504 -0.2163 -0.1381  0.1315
 9185W        W25446   2.035   0.571  12.709  0.0564  0.1358 -0.2789
 9186W        W25447   0.358  11.988  13.027  0.0568 -0.0265 -0.0479
 9187W        W25448   9.943   7.336   4.495  0.0464  0.0979  0.1070
 9188W        W25449   6.591   3.468  16.214 -0.3313  0.0323  0.0221
 9189W        W25450   6.457   5.284   4.992 -0.0824  0.1810 -0.0155
 9190W        W25451  15.711  15.463  15.239 -0.0279 -0.0810  0.1044
 9191W        W25452  14.968   4.633  15.538  0.0296  0.0608  0.0391
 9192W        W25453   0.917  14.516  14.632  0.4917 -0.1060 -0.1609
 9193W        W25454   4.068   0.113  11.780  0.1462  0.4485 -0.2111
 9194W        W25455   6.056  16.816   3.777  0.0423  0.1052 -0.2668
 9195W        W25456  14.981   6.146   0.284 -0.4164  0.1804 -0.1489
 9196W        W25457  17.263  11.149   0.831 -0.3976  0.1433 -0.0154
 9197W        W25458  15.016  14.326  16.641 -0.0196  0.2298 -0.0720
 9198W        W25459   7.681  12.062  16.709  0.0996  0.0924 -0.0884
 9199W        W25460   5.830   1.185   1.298  0.3111  0.1816 -0.2751
 9200W        W25461   0.260  13.842   2.621 -0.2479  0.2094  0.2892
 9201W        W25462  10.874  16.162   2.438 -0.2436  0.0053  0.0319
 9202W        W25463   4.203  15.582  15.951  0.0580 -0.2618  0.2175
 9203W        W25464  10.711  11.344  15.525  0.0941 -0.0279 -0.1688
 9204W        W25465   0.519   8.017  16.033 -0.1891  0.2225  0.0034
 9205W        W25466  16.124   7.527  14.524 -0.0071  0.0913  0.4220
 9206W        W25467  14.925  10.599  13.900 -0.1184 -0.0347 -0.0585
 9207W        W25468   8.967   4.941  15.092 -0.1787  0.1195  0.0447
 9208W        W25469  16.185  11.913   2.538  0.1423 -0.0280 -0.0346
 9209W        W25470   7.071   2.477   4.471 -0.0020 -0.0793  0.2155
 9210W        W25471   5.687   2.422   4.520  0.1010  0.1348  0.1062
 9211W        W25472  14.017   2.042   2.922  0.0024  0.0967  0.1098
 9212W        W25473   8.433   2.571  15.439  0.1528 -0.0192 -0.1024
 9213W        W25474  10.972  15.589  12.846  0.3013  0.4097 -0.1916
 9214W        W25475  14.247   8.872  13.551 -0.2028 -0.1521 -0.0148
 9215W        W25476   4.873   8.193   5.304  0.1741  0.1757 -0.2742
 9216W        W25477   7.581  11.699   0.416 -0.1611 -0.0725  0.3355
 9217W        W25478   3.117   0.696   5.960  0.1146 -0.2096  0.0917
 9218W        W25479   5.815   4.989  13.463 -0.0029  0.4080 -0.0213
 9219W        W25480   0.420   1.818   0.860  0.0375  0.0208  0.3059
 9220W        W25481   5.345   7.634  15.780 -0.1586  0.2127 -0.1028
 9221W        W25482   3.042  12.048   1.871 -0.0586  0.3668  0.1164
 9222W        W25483   6.139  15.244   0.384  0.0895  0.0284 -0.0129
 9223W        W25484  17.023  10.216   1.306 -0.4006  0.0758 -0.0774
 9224W        W25485   9.863   4.344  13.507  0.0208 -0.0214  0.1523
 9225W        W25486  11.022  16.847   2.044  0.0981 -0.2582  0.1920
 9226W        W25487  17.771  14.132  12.882  0.4391 -0.0050  0.0448
 9227W        W25488  14.795   1.126   0.673  0.2694  0.0598  0.0973
 9228W        W25489   5.934  17.781  13.217 -0.1177 -0.4189 -0.2266
 9229W        W25490   9.758   6.717   1.540  0.2305 -0.1087 -0.3505
 9230W        W25491   7.519   0.284   0.144  0.1108 -0.3496 -0.3413
 9231W        W25492  15.798   1.362  13.562  0.0015  0.0469  0.1342
 9232W        W25493   3.373   8.195  13.296 -0.0531  0.1378 -0.2675
 9233W        W25494  15.055   3.535   1.765 -0.3543  0.1923 -0.1259
 9234W        W25495   1.735  15.347  11.950  0.1912  0.0463  0.2515
 9235W        W25496   6.490  13.062  15.677  0.1657 -0.0152  0.1545
 9236W        W25497  11.126  13.385  11.945  0.0138  0.1073  0.0370
 9237W        W25498  12.014  15.027   0.576  0.1053 -0.0395  0.2023
 9238W        W25499  15.988   1.960   2.487 -0.1742 -0.1496 -0.0785
 9239W        W25500  17.735   1.182  14.496  0.2316  0.0265  0.1583
 9240W        W25501  12.013   8.916  11.860  0.1964 -0.2009  0.2600
 9241W        W25502  10.410   9.769   4.665  0.0029  0.1166  0.0529
 9242W        W25503  14.913  16.090   4.610 -0.0875 -0.1225 -0.2090
 9243W        W25504   6.812   5.632   5.008 -0.2692  0.1681  0.0623
 9244W        W25505  14.117  16.606  16.213 -0.1325 -0.0137 -0.0770
 9245W        W25506  16.759  13.628   1.425 -0.1750  0.1707 -0.0828
 9246W        W25507   6.734  16.702   2.879 -0.1557 -0.1960 -0.0379
 9247W        W25508   0.417   1.152   0.266  0.0991 -0.0787  0.0482
 9248W        W25509   0.058   7.465  11.673 -0.1153  0.1783 -0.2251
 9249W        W25510  11.077  10.069  13.478 -0.0411  0.0295 -0.3339
 9250W        W25511  12.356  13.580  13.955 -0.0973  0.1524 -0.0798
 9251W        W25512   7.535  16.918   3.248  0.1537 -0.1532  0.1034
 9252W        W25513   3.934  16.675  12.057  0.0739  0.0123 -0.0519
 9253W        W25514  15.534   8.067   5.658  0.0450  0.2992 -0.1143
 9254W        W25515  17.509   8.171  16.943  0.2513 -0.0446 -0.2976
 9255W        W25516   8.159  15.322   1.944 -0.2622  0.1580  0.2013
 9256W        W25517   6.036   2.158  12.468  0.0073 -0.2839  0.1158
 9257W        W25518  16.805   2.068   4.988 -0.0851  0.0500 -0.0544
 9258W        W25519  15.425  16.548  14.896 -0.1881  0.1047 -0.3795
 9259W        W25520  12.342   5.521  13.896  0.2084 -0.3006 -0.1439
 9260W        W25521  12.795   6.802  16.545  0.0648 -0.2217  0.0210
 9261W        W25522   1.275   6.842  12.863 -0.1306 -0.1925 -0.0578
 9262W        W25523  11.899   2.239   5.356 -0.0411  0.3399 -0.3388
 9263W        W25524   8.845   3.969  13.770  0.0941  0.0451  0.2826
 9264W        W25525  10.574   9.651   5.511 -0.2268 -0.2291 -0.0633
 9265W        W25526   8.951   5.884  14.548 -0.1418 -0.1271 -0.2074
 9266W        W25527  17.397   2.913  13.670  0.1178  0.1292 -0.0659
 9267W        W25528   2.942   1.274   2.647 -0.1627 -0.1539 -0.3762
 9268W        W25529  17.272   0.005   1.964 -0.1619  0.0007  0.0974
 9269W        W25530  10.526   4.666   3.161  0.3175 -0.0578  0.1635
 9270W        W25531   4.098   7.189   6.037 -0.3690 -0.1571 -0.0749
 9271W        W25532   4.949   6.305   0.369 -0.0177  0.2682  0.1447
 9272W        W25533  15.537   7.533  14.432  0.2787 -0.0366  0.0545
 9273W        W25534   3.931   6.451   1.108 -0.3736 -0.0151 -0.0130
 9274W        W25535   7.174   5.577   2.329 -0.2019  0.0642 -0.0186
 9275W        W25536   7.041   3.514  14.482  0.0657  0.3187 -0.0058
 9276W        W25537   5.140   1.445  12.938  0.0973  0.0109 -0.3451
 9277W        W25538   0.649   0.423   2.535  0.2656  0.2698  0.1021
 9278W        W25539  12.575   2.306   1.054 -0.1434 -0.1148  0.0351
 9279W        W25540  13.586   1.481   4.882 -0.1592 -0.3698 -0.0943
 9280W        W25541   9.336   9.834   2.392 -0.0666 -0.0592 -0.1409
 9281W        W25542  13.180   4.313  16.848  0.2796  0.1070  0.0597
 9282W        W25543  16.132  11.463   0.070 -0.1744 -0.2072 -0.0491
 9283W        W25544  16.335   0.810  16.450  0.0244 -0.2242 -0.1358
 9284W        W25545  14.076   2.443   2.640 -0.1018 -0.0642  0.2196
 9285W        W25546   2.719   4.959   4.787  0.2869 -0.1188  0.3318
 9286W        W25547   8.053   6.937  12.518 -0.3192 -0.1044 -0.1525
 9287W        W25548  11.267   0.612   0.627 -0.0783 -0.2840 -0.1991
 9288W        W25549   6.707  13.342  13.973 -0.0555  0.1379  0.0942
 9289W        W25550   4.721  13.551   1.260 -0.0015  0.2406  0.2281
 9290W        W25551  14.135  15.374  13.249 -0.4202  0.2912 -0.0373
 9291W        W25552  15.295  14.716  15.238 -0.1212 -0.0800  0.1682
 9292W        W25553   5.423  16.061  14.069  0.1557 -0.2592 -0.0809
 9293W        W25554  10.720   2.625   0.168  0.1350 -0.0943  0.0663
 9294W        W25555   4.957   3.194   3.602 -0.1204  0.2654  0.0095
 9295W        W25556  10.279  11.385   1.037  0.2957  0.0316 -0.2697
 9296W        W25557   4.595  10.512   2.700 -0.0346  0.0826  0.2011
 9297W        W25558   5.427   8.992  15.304  0.0851  0.0199  0.1512
 9298W        W25559   1.143   9.160   0.893  0.3485  0.1697  0.1646
 9299W        W25560  12.111   0.329   2.727  0.0953 -0.1673 -0.0902
 9300W        W25561   3.911  11.677  15.567 -0.2760  0.1757 -0.0437
 9301W        W25562  12.768   2.989  13.005 -0.0250  0.0973 -0.0094
 9302W        W25563  14.405  17.512   3.639 -0.1233 -0.2264 -0.4732
 9303W        W25564  13.648   1.651  13.953  0.0615 -0.1535 -0.3621
 9304W        W25565  16.334   1.411   5.592  0.0335  0.0448  0.0361
 9305W        W25566  16.615  17.503  15.594 -0.0404  0.1039 -0.3896
 9306W        W25567   3.564   0.951   5.213  0.0959 -0.2244 -0.1792
 9307W        W25568   8.683  13.173   0.250 -0.0540  0.1548 -0.0217
 9308W        W25569   5.485   7.151  15.506 -0.2324  0.1144 -0.1482
 9309W        W25570   7.934  17.669   0.060  0.1134 -0.0141 -0.0429
 9310W        W25571  12.602  15.709  16.076  0.0371  0.2044  0.0924
 9311W        W25572  12.923   7.820   1.818 -0.0841  0.0486  0.0041
 9312W        W25573   2.052  17.673   2.930 -0.1243 -0.0536 -0.0699
 9313W        W25574  17.071  15.433  14.850 -0.0438 -0.0380  0.0794
 9314W        W25575   4.864  12.018   4.299 -0.1847  0.2443 -0.1186
 9315W        W25576   2.713   2.304   2.718 -0.3063  0.1050  0.2848
 9316W        W25577  13.688   3.722   0.033  0.0504 -0.0892 -0.1630
 9317W        W25578   5.850   4.257  14.048  0.0487 -0.2190  0.2281
 9318W        W25579   3.111   7.513   3.773 -0.1577 -0.5948 -0.0937
 9319W        W25580  16.343   7.100  12.271 -0.4077 -0.0901 -0.1836
 9320W        W25581   8.519  14.248   0.040 -0.1323 -0.0423  0.0064
 9321W        W25582   8.705  12.346   1.178 -0.1231  0.1280  0.1173
 9322W        W25583   9.926   5.397   1.036  0.1873  0.1902  0.1779
 9323W        W25584  14.890  12.967   3.800 -0.1041 -0.4026  0.1229
 9324W        W25585  12.422   5.124   2.583  0.1468  0.1438 -0.0048
 9325W        W25586   2.547   8.867   4.971  0.1504  0.1609  0.0176
 9326W        W25587   0.502  10.713  12.585 -0.0447  0.0588  0.1551
 9327W        W25588   3.811  12.065   2.382  0.3336 -0.1570  0.3996
 9328W        W25589   8.843   9.316  13.290 -0.3832 -0.2056  0.2617
 9329W        W25590   9.391  15.434  16.229 -0.0892  0.1818  0.0186
 9330W        W25591   9.825   7.045  16.590 -0.1233 -0.0323 -0.0466
 9331W        W25592   0.848   2.227  14.089  0.3349 -0.0170 -0.0578
 9332W        W25593   9.211   4.758   1.893 -0.5057  0.1640  0.1285
 9333W        W25594   2.586  14.322  16.019  0.0101  0.1350 -0.1078
 9334W        W25595  16.415  15.487   0.648  0.0453  0.2828 -0.0032
 9335W        W25596   8.804  11.146   6.411  0.0704  0.0747  0.1200
 9336W        W25597  16.918   5.884   0.018 -0.2873  0.0766 -0.2553
 9337W        W25598  10.772   6.429   0.112 -0.1347 -0.1308 -0.1169
 9338W        W25599   7.196   1.511  16.711 -0.0584  0.0739  0.0884
 9339W        W25600  16.743   2.258   3.683  0.0594 -0.1603  0.1558
 9340W        W25601   1.999  10.848  13.742  0.0309 -0.3139 -0.0190
 9341W        W25602  15.791   9.920   1.205  0.3851 -0.0527 -0.2782
 9342W        W25603  13.967  10.316   2.324  0.2154  0.0739  0.1286
 9343W        W25604   7.818  17.383   4.027  0.4555  0.1316  0.0591
 9344W        W25605   6.094  14.077  16.400  0.0531  0.2229 -0.0834
 9345W        W25606   9.834   9.988  13.922  0.1743  0.0524 -0.1697
 9346W        W25607   8.901   3.953   1.346  0.0365  0.3088  0.0515
 9347W        W25608   9.506   9.470   2.665 -0.0561  0.4463 -0.0625
 9348W        W25609   7.072  16.577   3.227 -0.0218 -0.1294 -0.3046
 9349W        W25610   2.544   8.310   3.987 -0.2836 -0.0635 -0.1334
 9350W        W25611  14.342   7.429   0.015 -0.0600  0.0348 -0.0992
 9351W        W25612   5.698   1.175  16.737 -0.0282  0.0857  0.1316
 9352W        W25613   6.305  13.444   1.014  0.0084 -0.3956 -0.3396
 9353W        W25614  16.814  12.811  15.392  0.0674 -0.0259 -0.1892
 9354W        W25615   8.028  17.236  15.736 -0.0212  0.2738 -0.0589
 9355W        W25616  10.685  14.591   1.369 -0.2125  0.0624 -0.0825
 9356W        W25617  13.425   0.513   2.482  0.1405 -0.1980  0.4008
 9357W        W25618   8.557   1.362  13.507 -0.1411 -0.1945  0.1113
 9358W        W25619   2.903   3.678  16.567 -0.1297 -0.1196 -0.4404
 9359W        W25620   4.700  16.556  13.097  0.1415 -0.2043  0.0060
 9360W        W25621  16.935  12.696   0.278  0.1811 -0.1461 -0.0150
 9361W        W25622   3.349  11.353  14.421 -0.0620 -0.0377 -0.1572
 9362W        W25623  17.542  16.080  11.962  0.2843  0.1601  0.0106
 9363W        W25624   5.733  15.785  12.497 -0.0366  0.0793  0.1108
 9364W        W25625   7.317  10.906   0.949  0.2250 -0.2796 -0.1971
 9365W        W25626  15.651   6.458   4.397  0.0581 -0.0815  0.1825
 9366W        W25627   4.039   6.654  11.565  0.2029 -0.1144 -0.0817
 9367W        W25628  15.549  10.905   0.079 -0.2296 -0.2278 -0.0250
 9368W        W25629  17.510  16.584  13.239 -0.1065 -0.0489 -0.3069
 9369W        W25630   9.220  12.518  12.025 -0.2086 -0.0252 -0.1123
 9370W        W25631  14.588   0.143  15.530  0.1803 -0.0318  0.0624
 9371W        W25632  13.781   4.638   0.853 -0.1458  0.0489 -0.1041
 9372W        W25633   1.614   0.975   2.868  0.0414 -0.2410  0.1213
 9373W        W25634   3.481  16.364   2.771  0.0019 -0.1873 -0.0797
 9374W        W25635  10.189  12.560  14.374  0.1463 -0.2556  0.1051
 9375W        W25636   6.580  10.309   1.861  0.1975 -0.2002 -0.1349
 9376W        W25637   1.419  17.755   0.347  0.2621 -0.4745  0.2019
 9377W        W25638   4.971  10.872  11.977  0.0806 -0.2957 -0.1701
 9378W        W25639   0.011  13.215  12.308  0.1408  0.0127  0.1320
 9379W        W25640   6.750  16.382  13.027  0.1403 -0.1471 -0.0123
 9380W        W25641   9.333   7.121  16.075 -0.1960  0.2326  0.0900
 9381W        W25642   3.753  14.898   0.607 -0.0691  0.0964 -0.0353
 9382W        W25643   8.086  12.377   5.402  0.0315  0.1846  0.0654
 9383W        W25644   7.206  14.663  13.132  0.1919 -0.0277  0.0707
 9384W        W25645   3.975   5.694   0.314 -0.2737  0.4190  0.2317
 9385W        W25646  13.590  14.153   3.271 -0.7093 -0.0542 -0.1700
 9386W        W25647  14.687   5.273  15.722  0.1692  0.1021  0.0442
 9387W        W25648   1.064  14.031   5.165 -0.2314 -0.4281  0.1627
 9388W        W25649   5.705   9.203   2.575 -0.2608  0.1292 -0.1367
 9389W        W25650   2.580  11.701  16.145 -0.0278 -0.2647 -0.2459
 9390W        W25651   4.753   0.581  15.173  0.1346 -0.0652  0.0837
 9391W        W25652   7.367   7.667  12.013  0.1217  0.0733  0.0658
 9392W        W25653   0.603   0.838   2.832 -0.0327  0.0176  0.1135
 9393W        W25654  10.665  15.896  15.112 -0.3942  0.3792 -0.0761
 9394W        W25655  16.409  13.553   0.396 -0.1706 -0.0629 -0.1306
 9395W        W25656   6.483  11.657  12.574  0.2786  0.6228 -0.1918
 9396W        W25657  11.984   0.202  14.891 -0.1171 -0.0355 -0.1923
 9397W        W25658  10.780  16.404  14.376  0.2257 -0.1447 -0.3474
 9398W        W25659   0.920   8.999   5.736  0.2190 -0.1723  0.1246
 9399W        W25660  10.313   4.407   5.371  0.3346  0.0722 -0.0915
 9400W        W25661   4.867   2.078   1.311  0.2281 -0.1461  0.0309
 9401W        W25662   7.179   2.725  14.986 -0.0339  0.4138  0.2316
 9402W        W25663  14.068  14.192   1.737  0.0597  0.0775 -0.0433
 9403W        W25664  10.709  14.650  14.761  0.0253 -0.2907  0.1272
 9404W        W25665  13.189   6.867  14.360 -0.0491 -0.0018 -0.2421
 9405W        W25666   1.718   5.839   1.940  0.1409 -0.0692 -0.2427
 9406W        W25667   9.397  16.086   4.036  0.2066 -0.0444  0.4544
 9407W        W25668   9.172  17.193  15.190 -0.0605  0.1720  0.3202
 9408W        W25669  12.984  16.982  13.898  0.0186 -0.0206 -0.0274
 9409W        W25670   9.554  11.683   5.525 -0.1528 -0.1549  0.0048
 9410W        W25671   1.513  16.408   0.939  0.2303 -0.3290 -0.2802
 9411W        W25672   5.917   0.696   5.484 -0.1462  0.1604 -0.2919
 9412W        W25673   6.405   1.162   3.433 -0.0120  0.3945 -0.2426
 9413W        W25674   5.050  12.101  16.937 -0.1499 -0.0760  0.2683
 9414W        W25675   5.110  16.354   5.671  0.3719  0.2755 -0.0407
 9415W        W25676  16.524   2.823  12.919 -0.0511  0.1147  0.0295
 9416W        W25677  13.483  15.504   4.194  0.4493  0.1710 -0.3593
 9417W        W25678   4.002  10.611  15.968  0.2239  0.3847  0.0307
 9418W        W25679  15.155  14.321   4.272 -0.3102  0.1468  0.1720
 9419W        W25680  17.360   0.368  16.530 -0.0072  0.2168 -0.4046
 9420W        W25681   9.294   6.518   3.007  0.0815 -0.2582 -0.2009
 9421W        W25682   3.597  14.841  11.965 -0.2539 -0.0995 -0.0899
 9422W        W25683  10.782   1.851   2.491 -0.0343  0.0349  0.2598
 9423W        W25684   7.736  10.696  12.046 -0.1527 -0.1515  0.3623
 9424W        W25685   2.088  12.698  13.990 -0.0405  0.1118  0.1096
 9425W        W25686   7.849  17.201  14.806  0.2356 -0.1036  0.2125
 9426W        W25687  14.337  15.378   2.707  0.2045  0.0024  0.2161
 9427W        W25688  10.298  10.817   5.848 -0.0809 -0.4313 -0.1166
 9428W        W25689  15.914  16.736   5.357  0.1889  0.0297  0.0625
 9429W        W25690   2.110   2.904   2.363  0.1187  0.1174  0.0567
 9430W        W25691  10.393   1.134   4.687  0.3115  0.0945  0.1181
 9431W        W25692  12.665   3.093   1.619 -0.0538 -0.1467 -0.1118
 9432W        W25693  11.538   8.316  14.941 -0.1951  0.2394 -0.0478
 9433W        W25694  15.966  16.382   4.016 -0.0316 -0.1290  0.2259
 9434W        W25695  16.783  11.847  15.387 -0.1165 -0.0276  0.1896
 9435W        W25696   0.080  10.659  15.717  0.1606 -0.0354  0.0366
 9436W        W25697  11.152  14.406  13.539  0.0388  0.0925  0.2472
 9437W        W25698   0.345   9.740   5.841  0.3082  0.0585  0.2967
 9438W        W25699  16.392   8.636  12.287 -0.0642 -0.0845  0.2317
 9439W        W25700   5.584  11.541   0.715  0.1360  0.2346 -0.1350
 9440W        W25701   1.628   2.250   4.586 -0.0583  0.0196  0.2388
 9441W        W25702   2.902   6.481   3.809  0.0312  0.0400  0.2168
 9442W        W25703  13.360  13.684  16.311  0.2228 -0.1673  0.1334
 9443W        W25704  17.271  13.992   2.800  0.0072  0.0139  0.1680
 9444W        W25705   3.073   7.306  14.716  0.3210  0.0035  0.0657
 9445W        W25706  13.348   6.359   4.569  0.2278  0.1670  0.0181
 9446W        W25707   1.334  15.054   1.721 -0.1841 -0.1988 -0.1036
 9447W        W25708   6.441   4.713  15.702  0.1312 -0.0349 -0.2527
 9448W        W25709  16.654  14.031   3.744  0.2419 -0.0229  0.0834
 9449W        W25710   3.555   1.608  16.701 -0.2555  0.1089 -0.2161
 9450W        W25711  13.835   2.822   2.962  0.0233 -0.0556 -0.0420
 9451W        W25712   4.508  11.134  16.549 -0.1630 -0.2075  0.1266
 9452W        W25713  10.855  16.473  16.936 -0.1182 -0.0658 -0.1249
 9453W        W25714   3.299   4.180   2.850 -0.0844  0.2761  0.0138
 9454W        W25715  12.076   5.207  12.952 -0.1095  0.1439 -0.0182
 9455W        W25716  11.997   7.551   5.385  0.3033 -0.0598 -0.0348
 9456W        W25717   2.071  14.727  16.536 -0.2997 -0.0624  0.2258
 9457W        W25718  10.626  10.393  14.637 -0.0915  0.2048 -0.0429
 9458W        W25719  16.248   7.799  13.950 -0.0154  0.1495 -0.1105
 9459W        W25720   3.453  11.804  15.287  0.1398 -0.2642 -0.1150
 9460W        W25721  17.354  10.597   5.630 -0.0469  0.2634 -0.3172
 9461W        W25722   6.222  14.545  16.517 -0.2163 -0.1682 -0.1538
 9462W        W25723  13.183  13.010   3.739  0.1036 -0.0137  0.0500
 9463W        W25724   5.466  13.794  13.873  0.0178 -0.0503  0.2272
 9464W        W25725  14.748   8.140  13.221 -0.2849 -0.0210 -0.1664
 9465W        W25726   1.127  10.665   0.002 -0.1674  0.0963 -0.2059
 9466W        W25727  15.289   5.876   2.774  0.0616  0.0585 -0.0008
 9467W        W25728   0.141   8.504  15.286 -0.0638 -0.2082  0.3584
 9468W        W25729   9.209  11.304  15.843 -0.0899  0.0764 -0.2354
 9469W        W25730   7.351  17.074   0.296  0.2246  0.0928  0.2837
 9470W        W25731  12.556   2.135  14.133 -0.4199  0.2130  0.1345
 9471W        W25732  14.034  15.767  14.657 -0.1115  0.3059 -0.1222
 9472W        W25733   8.305  11.757   6.173  0.3057 -0.1047 -0.1734
 9473W        W25734  16.319  16.731   1.420 -0.0443 -0.1991  0.1494
 9474W        W25735   1.504   8.888  13.057  0.3353 -0.1696 -0.1052
 9475W        W25736   7.096  14.996  16.029  0.0049 -0.0058 -0.1095
 9476W        W25737   9.886   9.640  11.411  0.0244  0.0168 -0.2402
 9477W        W25738  15.782   9.313  16.063 -0.1508  0.3897  0.0368
 9478W        W25739   4.444   6.258   1.852  0.0653 -0.0637 -0.0104
 9479W        W25740  15.933  10.621   1.223  0.0089  0.1131 -0.0959
 9480W        W25741   5.195   5.048   0.407 -0.0598  0.1670  0.1275
 9481W        W25742  11.460   5.958   5.053 -0.0253 -0.3748  0.1758
 9482W        W25743  16.706   9.394  11.876 -0.0594  0.1655  0.1392
 9483W        W25744  15.095  11.961  14.450 -0.5615  0.0722  0.3092
 9484W        W25745   5.003  16.017  12.300  0.1583 -0.0305  0.2864
 9485W        W25746  15.167  17.447  16.637  0.0116  0.2625 -0.2543
 9486W        W25747   5.946  10.692  12.969  0.1250 -0.4367 -0.0868
 9487W        W25748  16.685  12.109  16.437 -0.1074 -0.1121 -0.0395
 9488W        W25749  11.719   8.530  12.375 -0.0936  0.0559 -0.0719
 9489W        W25750   5.079  14.861   2.368 -0.2032  0.0498 -0.0174
 9490W        W25751   9.457   9.541   4.983  0.0009  0.3086  0.0913
 9491W        W25752   0.800   0.753  13.343  0.0132 -0.1837  0.0878
 9492W        W25753   3.996   8.445  16.654  0.2483 -0.1581 -0.1822
 9493W        W25754  13.087   4.477  11.537  0.0624  0.0333 -0.2337
 9494W        W25755   5.335  11.072   1.553 -0.1358 -0.1726 -0.0597
 9495W        W25756  16.735   5.926   6.484 -0.1521  0.0484  0.2840
 9496W        W25757   8.700   6.340   4.063 -0.1044 -0.0163  0.1624
 9497W        W25758  17.361  10.036  12.256  0.1362 -0.4032  0.0260
 9498W        W25759   8.437  15.972   3.121  0.2809 -0.0743  0.3321
 9499W        W25760  13.097  15.464  16.620  0.1479  0.1372  0.0749
 9500W        W25761  17.580   4.652  13.854 -0.3071  0.3657  0.1574
 9501W        W25762  14.872  12.968  12.228  0.0860  0.3111  0.2671
 9502W        W25763  10.243  16.058   2.404 -0.0076  0.1383 -0.1281
 9503W        W25764   5.182   3.477   0.613 -0.1292 -0.2100  0.0039
 9504W        W25765  16.885   1.292   1.310  0.1119 -0.3132  0.0315
 9505W        W25766   0.138   4.884  12.567 -0.2286 -0.0288  0.1709
 9506W        W25767   0.935  12.080  12.421  0.1472 -0.2678  0.1040
 9507W        W25768  14.308   5.900  13.952 -0.1289  0.0225 -0.2896
 9508W        W25769   7.293  13.679   3.758  0.0991 -0.1933 -0.1838
 9509W        W25770   3.354  11.011  14.796  0.1653  0.1811  0.1179
 9510W        W25771   3.228   7.726   4.964 -0.2238 -0.2562  0.0908
 9511W        W25772   2.848   8.599   5.281  0.0179  0.1751  0.1385
 9512W        W25773   8.015  12.965   4.528  0.0475  0.2934 -0.0845
 9513W        W25774   4.902  16.535  13.544 -0.1685 -0.1535 -0.2456
 9514W        W25775  12.333  13.459  12.508 -0.2968  0.1341 -0.0223
 9515W        W25776   7.914  16.207   5.390 -0.1142  0.0223 -0.5128
 9516W        W25777  13.626   0.404   3.680  0.0271 -0.1459 -0.1927
 9517W        W25778   4.865  11.933   5.785  0.2396 -0.1500  0.0840
 9518W        W25779   4.016   2.282   0.857 -0.1204  0.1546  0.3927
 9519W        W25780  15.875  13.048   6.151  0.0911  0.0119 -0.2739
 9520W        W25781   3.027   2.189   0.243  0.0934 -0.0629  0.1084
 9521W        W25782  10.537   9.220   4.648  0.0032  0.0727 -0.1911
 9522W        W25783  16.237   0.747   0.190 -0.1910  0.2122  0.0910
 9523W        W25784   1.863   8.316  14.359  0.0903  0.0157 -0.0598
 9524W        W25785   1.881   0.310   3.550 -0.0040  0.2093 -0.0665
 9525W        W25786  12.824  11.887  16.543 -0.2023  0.0571  0.0574
 9526W        W25787  11.654  13.907   4.021 -0.2844 -0.0373 -0.1707
 9527W        W25788   9.869   2.562   2.014  0.0633  0.2084 -0.0090
 9528W        W25789   1.481   1.071  16.236 -0.4133 -0.0224  0.0548
 9529W        W25790  10.689  15.325   4.844 -0.0572  0.0675 -0.0912
 9530W        W25791   6.260  13.726  16.783  0.0003 -0.0637 -0.2952
 9531W        W25792   9.919   4.088   5.203 -0.0779  0.0968 -0.0840
 9532W        W25793   5.812   1.852  14.311 -0.0252  0.0729  0.1969
 9533W        W25794   7.018  11.614  14.167  0.3052 -0.4152  0.0157
 9534W        W25795   2.577   0.456  13.986  0.0368  0.1757 -0.3184
 9535W        W25796   0.953   2.717   5.795  0.0533  0.2730  0.3003
 9536W        W25797  17.170  11.556   2.552 -0.2460  0.3627  0.2378
 9537W        W25798   6.587  14.646  12.848  0.1240  0.0666  0.0512
 9538W        W25799   8.655   7.102  12.835  0.1861 -0.2840 -0.0969
 9539W        W25800  17.661  11.314  12.916 -0.0454  0.1370  0.2391
 9540W        W25801   6.985   0.407  16.970 -0.0614  0.2553  0.1778
 9541W        W25802  17.287   3.317   2.946  0.0209 -0.1137  0.0659
 9542W        W25803   0.266   1.287  13.622 -0.1075  0.1930  0.3741
 9543W        W25804   7.111   7.082   6.635  0.0882  0.0939  0.0171
 9544W        W25805  17.194   6.557  13.808 -0.0552 -0.1979 -0.0991
 9545W        W25806  16.060  14.258   6.001 -0.1019 -0.0987  0.1478
 9546W        W25807   3.377  12.298  15.840  0.0452 -0.0053  0.0917
 9547W        W25808   9.471   0.109  11.767 -0.2321 -0.1450 -0.2334
 9548W        W25809   6.907   7.271   4.332  0.0759 -0.1175 -0.2126
 9549W        W25810  11.034   1.509   5.137 -0.1700  0.0559 -0.2010
 9550W        W25811  16.618  12.604  16.341  0.1648 -0.2116  0.1607
 9551W        W25812   9.409   5.578  13.432 -0.1622 -0.1895 -0.1526
 9552W        W25813   8.068   6.416   2.120  0.1595 -0.2853 -0.3568
 9553W        W25814  10.541  10.204  11.697  0.1300  0.0508  0.2781
 9554W        W25815   7.315   9.954   2.775  0.3343 -0.1530  0.2499
 9555W        W25816   6.690  14.541  14.179  0.1367  0.2352 -0.1277
 9556W        W25817  16.977  16.391  15.161  0.0990  0.1065  0.0634
 9557W        W25818   3.917   2.187   1.324 -0.1215 -0.0419 -0.1140
 9558W        W25819   8.902  16.742  16.124  0.0661 -0.4554  0.0837
 9559W        W25820   6.183   1.719   4.725 -0.0491  0.2024 -0.0363
 9560W        W25821  16.341  11.513  15.183 -0.2328  0.0931  0.0430
 9561W        W25822   2.153   8.051   3.925 -0.1271 -0.0870  0.2172
 9562W        W25823   8.752   2.692   2.944  0.0670  0.1774  0.0573
 9563W        W25824  16.355   9.611  14.692 -0.1762  0.1276 -0.1073
 9564W        W25825  12.210   0.544   0.500  0.2592 -0.2518 -0.2102
 9565W        W25826  11.610  10.441  14.025 -0.0430  0.1717  0.2243
 9566W        W25827   6.885   9.616  13.131 -0.0075 -0.0248 -0.2399
 9567W        W25828   0.593  16.819  13.360  0.0122 -0.0997  0.1880
 9568W        W25829  11.209  13.068  15.923  0.1172  0.0952 -0.4083
 9569W        W25830  17.401  15.540  16.980  0.1707 -0.1992  0.0279
 9570W        W25831   0.990   2.552  15.372  0.0295 -0.2152 -0.3496
 9571W        W25832   7.271  16.607  16.238 -0.0730 -0.1220 -0.0347
 9572W        W25833  17.416  12.255   0.608  0.0809 -0.0181  0.0639
 9573W        W25834   7.145   6.701  12.656  0.0386 -0.0576  0.1804
 9574W        W25835  16.059   7.539   4.874 -0.1723 -0.3017  0.5405
 9575W        W25836   7.450  11.163  11.904 -0.1350  0.0045 -0.0182
 9576W        W25837  13.088   3.678   3.816  0.0638 -0.1741 -0.1299
 9577W        W25838  10.426   3.707   5.892  0.3057  0.1404  0.2423
 9578W        W25839  12.257  11.453   1.087  0.2222 -0.0121  0.1228
 9579W        W25840  13.645  11.370   3.297  0.1456 -0.0326 -0.0253
 9580W        W25841  17.001   8.407   0.820 -0.0980  0.1910  0.1358
 9581W        W25842   3.763  14.813   6.267 -0.0387  0.0722 -0.2900
 9582W        W25843  14.697  11.185   0.412  0.1615  0.0172 -0.3000
 9583W        W25844  10.618   2.286  11.741  0.2434  0.0995 -0.2374
 9584W        W25845  13.035  13.071   3.277  0.1226  0.2352 -0.1888
 9585W        W25846  16.992   4.579   3.020 -0.1809 -0.0936 -0.0877
 9586W        W25847   4.859  13.923  14.024 -0.3146 -0.5066  0.3919
 9587W        W25848   2.778   4.737   5.192  0.2295  0.2187  0.0659
 9588W        W25849   6.439  14.329   6.498  0.2080  0.3068  0.0663
 9589W        W25850   7.567   3.507  14.685  0.1219 -0.2753 -0.0198
 9590W        W25851  11.329   8.840  15.311  0.0557 -0.0791 -0.1030
 9591W        W25852  15.240  16.520  14.305  0.2000 -0.0068  0.0534
 9592W        W25853   0.904   4.037   2.222 -0.1219 -0.5062 -0.1079
 9593W        W25854  13.374  14.674  13.725 -0.2141  0.0116 -0.2116
 9594W        W25855  17.746  17.604  12.246 -0.0805 -0.0993  0.0090
 9595W        W25856   7.822  14.989  12.327 -0.2132  0.0487  0.2140
 9596W        W25857   0.036   3.943  15.326 -0.0733  0.3127  0.0384
 9597W        W25858   2.757  17.332   3.980 -0.0951  0.0493 -0.1119
 9598W        W25859   8.004   3.657  16.402 -0.1746 -0.1913  0.3791
 9599W        W25860   8.244   7.364  12.616  0.1356 -0.0412 -0.1786
 9600W        W25861   5.805  12.378  13.671 -0.1087 -0.0631 -0.1638
 9601W        W25862   3.232   2.768  14.270  0.2864  0.0550  0.2013
 9602W        W25863   8.793  12.301  11.863  0.0136  0.0447  0.0479
 9603W        W25864  11.049  13.091   1.066  0.1424  0.2461 -0.0967
 9604W        W25865   9.523   7.193  15.073  0.1809 -0.1193  0.0900
 9605W        W25866   4.833  15.388   0.832  0.0552  0.0546  0.1082
 9606W        W25867  10.977   5.828  13.861  0.1466  0.2777 -0.0273
 9607W        W25868  15.991  11.611  15.484  0.2080 -0.0194 -0.0576
 9608W        W25869   4.091   1.156  14.506  0.2329  0.0591  0.0672
 9609W        W25870   3.339   3.207  14.496 -0.3854 -0.1749 -0.1316
 9610W        W25871   7.019   7.915   3.509  0.1249  0.1228  0.1016
 9611W        W25872   4.957   0.390   0.117 -0.0740 -0.1663  0.0032
 9612W        W25873   5.798   7.141  15.060  0.1654  0.0420  0.1132
 9613W        W25874   3.857   7.678   6.078 -0.2609  0.2383 -0.0876
 9614W        W25875  15.629  16.304   3.454  0.1130  0.0584  0.0164
 9615W        W25876   4.037  13.330   1.740  0.3528  0.3338  0.2309
 9616W        W25877   2.456   9.416   6.263  0.2990  0.1331  0.0517
 9617W        W25878  14.741  15.031   4.328  0.4921 -0.0302 -0.3613
 9618W        W25879  16.256   2.901  16.543 -0.1431 -0.2876  0.0910
 9619W        W25880   0.526   6.566  14.930 -0.0650  0.1517  0.0802
 9620W        W25881  12.348   7.374  11.868  0.2264 -0.2626  0.3306
 9621W        W25882  13.865   0.526  12.021 -0.3731 -0.0881 -0.0326
 9622W        W25883   8.076   5.949   2.291  0.3064 -0.3081  0.2155
 9623W        W25884   0.508  14.478   0.066  0.0467  0.0882  0.0943
 9624W        W25885   5.431  16.851   3.569 -0.0815 -0.0778 -0.0878
 9625W        W25886  12.235   2.177  11.976 -0.3688  0.1921  0.2637
 9626W        W25887   1.556   1.759   3.625 -0.2658  0.0478 -0.0077
 9627W        W25888   2.830  17.378  12.242  0.1882 -0.1761  0.3938
 9628W        W25889   1.486  15.095  12.354  0.0365  0.2317  0.2417
 9629W        W25890   5.548   5.835  16.806 -0.0031 -0.0621  0.0740
 9630W        W25891   6.470   6.537  11.764 -0.1636  0.0417  0.0491
 9631W        W25892  17.764   3.709   5.143 -0.0521 -0.1987  0.2087
 9632W        W25893   7.735   3.572  13.912 -0.1669 -0.1930  0.0306
 9633W        W25894   4.357   8.211   6.569  0.3741  0.1275  0.1261
 9634W        W25895   2.433  10.790  13.548 -0.4701  0.4684 -0.1173
 9635W        W25896  14.298   4.559  15.457 -0.0419  0.1969  0.0305
 9636W        W25897  13.951   9.744  16.807 -0.0106 -0.0416  0.1295
 9637W        W25898   7.093   2.100  12.490 -0.2319 -0.0273 -0.2569
 9638W        W25899   3.430  11.870  16.286 -0.1030 -0.2451  0.2336
 9639W        W25900  15.126  14.746   3.960 -0.0604  0.1271 -0.5329
 9640W        W25901   3.528   2.088   2.317  0.3637  0.3701  0.3403
 9641W        W25902   8.621  12.652   5.143 -0.0498  0.1200  0.0273
 9642W        W25903  16.393   5.802  11.933  0.3164  0.1205  0.2325
 9643W        W25904  13.810   7.289   0.942  0.0869  0.2181  0.1187
 9644W        W25905  11.564   7.674  13.003  0.0260  0.0773  0.1994
 9645W        W25906   3.899  10.375  14.884 -0.0015 -0.4010  0.0109
 9646W        W25907   0.897  13.293  12.871  0.2002  0.0965 -0.2295
 9647W        W25908   8.446  10.781   3.069  0.1673 -0.2621  0.3117
 9648W        W25909   8.747   9.073   2.489 -0.0795 -0.0813  0.1660
 9649W        W25910   7.070  15.957  14.955 -0.2071  0.1812  0.2475
 9650W        W25911  17.118   6.596   1.052  0.1160 -0.1204 -0.0130
 9651W        W25912  11.528   8.515   3.307  0.1108  0.0079 -0.0430
 9652W        W25913  16.981  10.859  16.943 -0.0248 -0.0320 -0.1636
 9653W        W25914   3.401   3.699  15.175  0.0362 -0.3898 -0.1343
 9654W        W25915   7.038  12.341   2.433 -0.0535 -0.1482  0.2759
 9655W        W25916  14.288  16.935   2.164  0.2710  0.0590 -0.1503
 9656W        W25917  11.778  14.069   2.609  0.2950  0.0273  0.1640
 9657W        W25918   9.770   0.529  16.859  0.0248  0.1878 -0.1165
 9658W        W25919  17.208   9.795   1.592 -0.0472  0.2303 -0.0781
 9659W        W25920   2.491   9.208   3.557 -0.1131  0.2881  0.2296
 9660W        W25921   5.116  15.036   4.835 -0.3502 -0.1261  0.3037
 9661W        W25922  10.145  10.092   3.030 -0.0068  0.2709  0.1175
 9662W        W25923   6.404  15.515  15.567 -0.4655  0.1669 -0.0548
 9663W        W25924  11.662  10.003   2.158  0.2864 -0.4070 -0.2332
 9664W        W25925  13.908   3.510  12.718  0.0123 -0.1245  0.3674
 9665W        W25926  15.905  17.011   1.068 -0.0681 -0.3269 -0.3169
 9666W        W25927   3.175   5.998  14.803 -0.0188 -0.0662  0.0834
 9667W        W25928   2.545  15.105   1.944 -0.1293 -0.1028  0.1790
 9668W        W25929  15.059   9.431  13.179 -0.0636 -0.0244 -0.1792
 9669W        W25930   9.011   6.145  11.308  0.0252  0.1204 -0.0065
 9670W        W25931  16.290  14.975   0.698  0.0254  0.0378  0.0882
 9671W        W25932   9.031   0.677   4.020  0.0750  0.0564  0.2014
 9672W        W25933  12.857   5.012  13.503  0.2569 -0.1567 -0.0466
 9673W        W25934  10.404   0.255  12.518 -0.1884 -0.1378 -0.1572
 9674W        W25935   8.366  16.237   6.253 -0.4972  0.0627 -0.3357
 9675W        W25936   1.482   3.228   3.336  0.0890  0.0102 -0.0565
 9676W        W25937   4.530  12.780  14.831  0.0799 -0.1763 -0.0092
 9677W        W25938   9.505   1.782  13.173  0.2072 -0.2292  0.4241
 9678W        W25939  11.117   6.691  16.875  0.0643 -0.0958  0.2341
 9679W        W25940   0.381   7.260  13.821 -0.0349  0.2134  0.1592
 9680W        W25941   3.501   3.896  11.956 -0.2506  0.0163 -0.1004
 9681W        W25942  10.410  14.886  13.811 -0.1513 -0.1281 -0.1846
 9682W        W25943  10.584   6.848   4.202  0.1493 -0.1438 -0.2298
 9683W        W25944   5.379  11.064  11.712 -0.4924 -0.1287 -0.1127
 9684W        W25945   6.064   0.813   2.335  0.2570  0.1235 -0.0214
 9685W        W25946  13.389  14.202   4.399 -0.1935  0.1576 -0.1655
 9686W        W25947   4.310   3.187  14.101  0.0139  0.1137 -0.1851
 9687W        W25948   1.987   6.123  12.478 -0.2920  0.0344 -0.1009
 9688W        W25949   4.696   6.256  12.457 -0.0643 -0.0081 -0.0943
 9689W        W25950   0.033  16.874  12.356 -0.1584  0.1145 -0.1202
 9690W        W25951  12.867   5.513  15.079  0.1991 -0.1432 -0.2100
 9691W        W25952  14.653   6.550  16.105  0.3158 -0.2607 -0.0522
 9692W        W25953   2.784  10.831   0.305  0.2245  0.0504  0.0617
 9693W        W25954  16.522  15.887  12.478 -0.1914  0.1043  0.3934
 9694W        W25955  17.652   1.315  15.477 -0.2330  0.0059 -0.0893
 9695W        W25956   1.368   5.431   3.482 -0.0459 -0.1303  0.0857
 9696W        W25957  10.099  11.705   2.779  0.0276  0.1428  0.1716
 9697W        W25958   0.246   6.519  16.475 -0.0770  0.4340 -0.1138
 9698W        W25959   2.108   9.366   3.269  0.1599  0.0492 -0.0884
 9699W        W25960   5.146  17.633  15.661  0.0158 -0.3446  0.5390
 9700W        W25961  13.743  11.432  11.739 -0.0369  0.0431 -0.0635
 9701W        W25962  10.631   1.104  15.493  0.1451 -0.1775 -0.0856
 9702W        W25963  15.015   6.235  12.246 -0.0096  0.0799 -0.0584
 9703W        W25964  13.351   8.950  13.297  0.1209  0.0805  0.2704
 9704W        W25965  11.438  15.414   4.490 -0.1483  0.3022  0.1357
 9705W        W25966   3.090  16.744   2.705 -0.0638  0.1257  0.0904
 9706W        W25967  11.111   9.216  15.914 -0.1161  0.1767 -0.0025
 9707W        W25968   5.202   0.965  16.855 -0.1457  0.1520 -0.1392
 9708W        W25969  12.398   2.306  13.200 -0.1683 -0.2301 -0.0772
 9709W        W25970   9.642   0.759   5.303 -0.0350 -0.0164 -0.1641
 9710W        W25971   6.934   0.817  16.690  0.1083 -0.2047  0.0605
 9711W        W25972   3.989   3.704  12.046  0.0320  0.1817  0.1017
 9712W        W25973   6.214   6.083   3.880 -0.1275 -0.0057 -0.1225
 9713W        W25974   9.324   9.273   0.919 -0.0344 -0.3133  0.3218
 9714W        W25975   2.050   3.902   2.836  0.3414 -0.1548 -0.0316
 9715W        W25976   6.093   0.146  15.645  0.2927  0.2927 -0.0065
 9716W        W25977  15.970  13.501  16.165 -0.3084  0.4123 -0.2050
 9717W        W25978  14.380   5.434   0.527  0.1628  0.4199  0.2557
 9718W        W25979   8.603   9.570  14.806  0.0682  0.0636  0.0264
 9719W        W25980   3.592  11.977   4.581 -0.0486 -0.3266 -0.1032
 9720W        W25981   8.688  17.307  14.982 -0.0081 -0.1940 -0.1030
 9721W        W25982   4.404  11.685  11.882 -0.1445  0.0521 -0.2246
 9722W        W25983   3.277  17.602  13.303  0.3422  0.2130  0.0965
 9723W        W25984   0.155   5.756   4.883  0.2619  0.0351 -0.1594
 9724W        W25985   2.123   0.171  11.647 -0.1365 -0.2265 -0.1332
 9725W        W25986  12.699  13.726   3.975  0.1976  0.2150 -0.3796
 9726W        W25987   0.955   8.300   6.160 -0.0360  0.2967 -0.1730
 9727W        W25988  14.006   1.874   4.872 -0.0454 -0.1559  0.2692
 9728W        W25989   2.177   4.383  16.140 -0.2413 -0.0338 -0.1600
 9729W        W25990   8.418   4.022  15.990 -0.2313  0.0207 -0.2497
 9730W        W25991   0.417   1.146  11.958  0.2579 -0.0466 -0.2219
 9731W        W25992  12.383  11.008  14.265 -0.0009  0.3219 -0.1617
 9732W        W25993   6.983   7.748  12.367 -0.2728  0.1103 -0.0657
 9733W        W25994  13.804   4.598   4.731 -0.0971  0.0157  0.2747
 9734W        W25995  16.322   1.620  15.469 -0.0996 -0.2937  0.0059
 9735W        W25996  15.364  16.230   2.494  0.1610 -0.1002  0.1543
 9736W        W25997  14.913   9.791  12.750  0.2348  0.1078 -0.0803
 9737W        W25998   7.861  17.507   3.431 -0.2255  0.1614 -0.3236
 9738W        W25999   4.036   6.999  16.643 -0.0475  0.2029  0.0120
 9739W        W26000   7.667   0.883   5.259 -0.1119 -0.0643 -0.0838
 9740W        W26001   1.338   7.255   4.840  0.1998 -0.2272 -0.0526
 9741W        W26002   7.704   7.176   3.681  0.0019  0.2585 -0.0891
 9742W        W26003   1.852   0.709   1.788  0.2092 -0.0800 -0.1714
 9743W        W26004  14.278   0.909  12.738  0.0318 -0.0334 -0.1539
 9744W        W26005   1.802  16.037   2.254  0.1170  0.0744  0.0987
 9745W        W26006  17.650   1.932   3.858  0.1607  0.0801 -0.0263
 9746W        W26007  12.731   4.263   1.710 -0.3384  0.0447  0.4651
 9747W        W26008   4.625   9.303  16.915  0.2078 -0.1580  0.0176
 9748W        W26009   3.102   8.668   4.255  0.1602 -0.1182 -0.1430
 9749W        W26010   7.438  12.741   0.584 -0.0446  0.3571 -0.0150
 9750W        W26011  16.978  11.558   0.747  0.2469 -0.2515  0.2211
 9751W        W26012  10.139   8.516   1.583 -0.2763  0.1904 -0.1048
 9752W        W26013   9.778  15.296  14.167  0.1789  0.2200 -0.2354
 9753W        W26014   5.701   1.509   5.522 -0.2160 -0.0609  0.2714
 9754W        W26015   0.538   5.495   4.524  0.0050 -0.1301 -0.1530
 9755W        W26016   6.603   1.830   1.087  0.5042  0.2247 -0.2240
 9756W        W26017   7.405   5.976  14.266  0.1795  0.1526  0.0476
 9757W        W26018   5.447  10.480   0.746 -0.1335  0.1964  0.3309
 9758W        W26019   1.541  15.915   0.952  0.1644 -0.0543 -0.0513
 9759W        W26020   7.947  13.152  14.524 -0.0161 -0.1976 -0.3064
 9760W        W26021   7.985  13.279  16.074 -0.0424 -0.1987 -0.1095
 9761W        W26022   2.270  12.794  16.018  0.1527 -0.1316 -0.1954
 9762W        W26023   8.995  17.453   2.458  0.0383 -0.2209  0.1074
 9763W        W26024   3.696  11.994   0.678 -0.0284 -0.2941  0.2580
 9764W        W26025  13.768   3.133   4.743  0.2629 -0.0210 -0.0123
 9765W        W26026  16.429   7.243  12.777 -0.0827  0.0009 -0.2017
 9766W        W26027  13.628  12.408   3.059 -0.0029 -0.1961  0.0794
 9767W        W26028  15.742   0.404   3.141  0.0450 -0.1293 -0.2263
 9768W        W26029  14.777  15.817  12.188  0.1797  0.2503  0.1817
 9769W        W26030   4.882   3.620  11.831  0.2369 -0.1925  0.2210
 9770W        W26031   6.054  14.722   2.608  0.1196 -0.3478 -0.0522
 9771W        W26032  17.350   0.207   4.512  0.0248 -0.1883  0.0734
 9772W        W26033  14.640  11.102  14.614 -0.1060 -0.2470  0.1287
 9773W        W26034  11.197   2.652   0.055  0.0171  0.1478 -0.0661
 9774W        W26035  11.530   3.702   5.440  0.3000 -0.1630 -0.1783
 9775W        W26036   9.338   6.042   1.731 -0.1036  0.2159 -0.0614
 9776W        W26037   4.164   7.280  15.158 -0.2370 -0.0608 -0.0292
 9777W        W26038   9.612  15.841  11.870  0.1411  0.5162  0.3751
 9778W        W26039  16.502   7.403  16.319  0.1483  0.0180 -0.3678
 9779W        W26040   4.908   9.682   2.378 -0.0012  0.1054  0.2512
 9780W        W26041  13.698   3.696  16.119  0.1953 -0.1002 -0.0873
 9781W        W26042   8.703   1.197   4.720 -0.0589  0.1440  0.0853
 9782W        W26043   5.367   2.094  13.414 -0.2169 -0.2217 -0.3358
 9783W        W26044   3.514  17.197   2.759 -0.1555 -0.2117  0.0826
 9784W        W26045   3.428   8.208   2.358 -0.1257  0.0821 -0.1470
 9785W        W26046  11.150  17.116   5.928 -0.0081 -0.4465 -0.1287
 9786W        W26047   1.673   7.608   0.428  0.0759 -0.3040 -0.0495
 9787W        W26048   9.048   5.531   5.725 -0.0893  0.2168  0.2907
 9788W        W26049  16.941   8.543  12.137  0.0677 -0.1824 -0.0188
 9789W        W26050   1.858  17.656  13.156 -0.0462 -0.2316  0.1012
 9790W        W26051  12.609   7.636  15.596 -0.0333  0.0381 -0.2015
 9791W        W26052   6.410   3.310  12.943  0.0181 -0.1165 -0.0462
 9792W        W26053   4.060  12.580  12.923  0.1850  0.2866 -0.4233
 9793W        W26054   9.474   0.554   5.722  0.1022 -0.1168 -0.1645
 9794W        W26055  14.157  16.977  10.615  0.2547 -0.1239  0.2223
 9795W        W26056   4.968  15.973  14.367 -0.2775  0.5405  0.0249
 9796W        W26057   7.606  13.295   0.369  0.2240  0.0579  0.2872
 9797W        W26058  13.092   9.401   2.574  0.0359  0.1578  0.0607
 9798W        W26059   2.788  16.617  14.269 -0.0427 -0.1513 -0.1975
 9799W        W26060  10.785   4.523   1.051 -0.1805  0.1780 -0.1753
 9800W        W26061   8.209   9.365  15.774 -0.1817 -0.2279 -0.1389
 9801W        W26062   8.253   9.737   0.688  0.0641  0.0636  0.2254
 9802W        W26063   3.227  11.559   4.366  0.1451  0.0030 -0.3893
 9803W        W26064  17.498  11.508  13.969  0.0147 -0.1104 -0.1442
 9804W        W26065  12.869  14.008   0.878  0.5131  0.1716  0.2616
 9805W        W26066  10.717   3.950  16.747  0.2425 -0.0818 -0.1611
 9806W        W26067  13.181   8.313   5.106 -0.4111  0.1614 -0.1716
 9807W        W26068   6.701   7.051  14.440 -0.0276 -0.0492 -0.3101
 9808W        W26069   9.877  13.790   5.062  0.0355  0.1004 -0.0840
 9809W        W26070   4.266   3.544  11.097  0.1691 -0.1517 -0.1395
 9810W        W26071   0.923  15.819   2.133  0.1661 -0.0603  0.2747
 9811W        W26072   0.349  15.598  13.945  0.3207 -0.3533  0.1136
 9812W        W26073  11.265  17.738   0.647 -0.0467 -0.0933 -0.1387
 9813W        W26074  10.404  14.538   3.750 -0.0949 -0.0141  0.0120
 9814W        W26075   5.065  15.626   0.269 -0.2339 -0.1390 -0.1751
 9815W        W26076   4.206  11.896   1.810 -0.2543  0.0207 -0.0473
 9816W        W26077  17.338   7.320  15.082 -0.2172  0.1687 -0.2613
 9817W        W26078   0.613   6.082  14.552  0.1176 -0.1963 -0.1438
 9818W        W26079   9.533   7.153  15.591 -0.0302  0.3010  0.0911
 9819W        W26080  10.959  14.315   3.651 -0.2359  0.0321 -0.1293
 9820W        W26081  16.969   8.961   2.506 -0.1487 -0.1635  0.0010
 9821W        W26082   8.601  11.302  13.779  0.1825  0.0562 -0.1285
 9822W        W26083   3.166   0.883  14.585 -0.1324  0.3018 -0.1811
 9823W        W26084   1.578  12.365   4.856 -0.0769 -0.0930 -0.1689
 9824W        W26085   6.497   3.136   0.409  0.1899 -0.1751 -0.0029
 9825W        W26086  17.089  14.854   5.569 -0.1009 -0.1869 -0.1921
 9826W        W26087   0.986  14.213   4.475 -0.0545 -0.3489  0.1615
 9827W        W26088  13.226  15.115   4.025  0.0915 -0.0396 -0.3369
 9828W        W26089   4.561  13.626   2.520  0.0401  0.1871 -0.1134
 9829W        W26090  17.420  15.193   3.524 -0.0372  0.0072  0.1175
 9830W        W26091   7.894   0.257  11.729  0.3937 -0.4228  0.1199
 9831W        W26092   3.697   4.572  16.969 -0.0451 -0.0442 -0.1850
 9832W        W26093   8.589   5.664  15.471  0.2558 -0.3407 -0.0410
 9833W        W26094  11.455  14.016  13.457 -0.1005  0.0304  0.1392
 9834W        W26095  12.232   8.649   0.858 -0.0782 -0.4332  0.0079
 9835W        W26096   0.491   8.376  14.418 -0.1277  0.1338  0.4083
 9836W        W26097  13.787  15.691  13.066  0.1330  0.1676 -0.2631
 9837W        W26098   4.650  14.441  14.911  0.0123 -0.0335  0.2179
 9838W        W26099   3.123   7.087   6.078  0.1369 -0.0301 -0.1430
 9839W        W26100  16.005   9.779  16.689  0.0593 -0.2102 -0.3427
 9840W        W26101   4.448  12.264   4.124  0.0957 -0.4491  0.2084
 9841W        W26102   1.370  15.066  15.189  0.1812  0.4156 -0.3970
 9842W        W26103  14.395   3.879   4.342 -0.1183  0.1894  0.3381
 9843W        W26104  16.478   8.071   2.549 -0.0612  0.3168  0.0195
 9844W        W26105  10.072   5.364  15.963  0.0446 -0.0077 -0.1968
 9845W        W26106  16.503   4.680   0.731  0.2421 -0.2195 -0.0042
 9846W        W26107   5.954  15.019  13.764 -0.0219 -0.0399  0.0734
 9847W        W26108   9.637  11.422   1.526  0.0345 -0.1335  0.0620
 9848W        W26109  14.422   9.773  13.682  0.0571  0.2095 -0.1459
 9849W        W26110   9.370   6.968   1.170 -0.2111 -0.0680 -0.0666
 9850W        W26111   6.936  10.982   2.508 -0.1994 -0.0673 -0.0128
 9851W        W26112   7.259  16.627   2.778 -0.1104 -0.1282  0.0375
 9852W        W26113  11.263   1.683  14.170 -0.2048  0.0514  0.1229
 9853W        W26114  14.161  13.565  16.030  0.1893  0.1194  0.1851
 9854W        W26115   6.882   9.006   4.616  0.2677  0.1526  0.1153
 9855W        W26116   3.104   1.658  14.779  0.3179  0.1051 -0.2623
 9856W        W26117   9.114   7.550  12.140  0.0418  0.0913  0.2177
 9857W        W26118   8.044  16.539   0.660 -0.2814 -0.2550  0.1011
 9858W        W26119   5.067   5.209  16.479  0.2887  0.0387  0.0975
 9859W        W26120   8.950  10.224   5.302 -0.0010  0.0433  0.2143
 9860W        W26121   7.023  10.981   5.618 -0.0379 -0.2299  0.1598
 9861W        W26122   7.208  11.862   0.036 -0.2586 -0.0718  0.2268
 9862W        W26123   4.536   5.307   3.947 -0.1919 -0.2669 -0.1731
 9863W        W26124   0.954   5.123   4.513  0.4528  0.1197 -0.0303
 9864W        W26125   7.966  11.770  15.686  0.0946  0.2468  0.2021
 9865W        W26126   8.192   1.140  15.187  0.0100  0.2845 -0.0659
 9866W        W26127  15.552  16.102  16.918 -0.1315 -0.2536 -0.1098
 9867W        W26128   7.922  14.332   5.341  0.0651  0.1961 -0.1275
 9868W        W26129  17.148  15.015  15.116 -0.1697 -0.1752  0.1157
 9869W        W26130   4.169  12.157  16.232  0.0685 -0.0150  0.1755
 9870W        W26131  10.106   3.363  13.762  0.0678  0.3365  0.1815
 9871W        W26132  15.261  10.986   3.808 -0.1006  0.1395  0.1993
 9872W        W26133  12.449   6.854   0.937  0.1989  0.0635  0.1828
 9873W        W26134  17.205   8.840   1.162 -0.0326 -0.0946 -0.3444
 9874W        W26135   9.540  13.931  14.147 -0.0722  0.0679 -0.3497
 9875W        W26136  12.434  16.797  12.691  0.1283 -0.2024  0.0316
 9876W        W26137   8.099  15.650  13.978  0.2062 -0.0119  0.2585
 9877W        W26138   3.119   0.220   1.458 -0.4154 -0.1783  0.2110
 9878W        W26139  16.695  11.231  14.241 -0.1491  0.4255  0.1529
 9879W        W26140   3.941   9.313   5.958 -0.0659 -0.1344  0.1730
 9880W        W26141   2.507   1.013   3.886 -0.1003 -0.1762 -0.2380
 9881W        W26142  14.479  10.245   4.885 -0.0462  0.2373  0.0771
 9882W        W26143   3.874   3.235  14.381  0.1855 -0.0603 -0.4553
 9883W        W26144   3.007  10.431   0.918 -0.1852 -0.0284 -0.0700
 9884W        W26145  16.576  14.889   5.474 -0.2014  0.1174  0.0380
 9885W        W26146   9.624  14.095   2.305 -0.2343  0.0869 -0.1507
 9886W        W26147  11.354  13.775  12.472 -0.2756  0.5117  0.4916
 9887W        W26148   1.214   4.205   4.888 -0.1863 -0.0769  0.2228
 9888W        W26149   5.386  17.442   5.333 -0.2614  0.0511  0.3351
 9889W        W26150  14.096   7.114  14.205  0.1480  0.0355  0.1601
 9890W        W26151   5.941   0.617   0.780 -0.1549  0.0425  0.0192
 9891W        W26152  15.061   7.225   2.977  0.1175 -0.0578 -0.3569
 9892W        W26153   0.415   3.496  12.215 -0.0672 -0.0421  0.2598
 9893W        W26154   2.008   9.558  12.714  0.2132  0.0820 -0.1223
 9894W        W26155   4.099  16.591   1.141  0.1117 -0.2097  0.0362
 9895W        W26156   3.879  13.391   0.439  0.3727 -0.0717 -0.1660
 9896W        W26157   3.126   9.973  12.449  0.2124 -0.0984  0.1145
 9897W        W26158  11.977   7.584  12.138  0.0412  0.1910  0.0810
 9898W        W26159  10.519  13.910   5.508 -0.0931 -0.2749  0.1884
 9899W        W26160   5.992   2.449   1.186 -0.1473  0.2342  0.0958
 9900W        W26161   3.425   4.287  12.806  0.3663  0.1558  0.1803
 9901W        W26162  12.036   6.637  15.321  0.1821 -0.1641  0.1690
 9902W        W26163  10.544  11.496  12.683  0.2343  0.1886  0.1861
 9903W        W26164   5.243   1.044   1.338 -0.0651 -0.0944  0.6634
 9904W        W26165   2.436  11.231  15.372 -0.2315  0.3548 -0.0284
 9905W        W26166  16.285  14.478  14.521  0.1238  0.3957  0.0488
 9906W        W26167   0.735   5.280   4.083  0.0277  0.1500  0.5227
 9907W        W26168  12.062  16.887   2.713 -0.3020  0.0632  0.3601
 9908W        W26169   7.075   7.869   3.017 -0.0734  0.0633  0.2216
 9909W        W26170  16.185  13.593  13.417 -0.2093 -0.1057 -0.2226
 9910W        W26171   3.044  17.469  14.248 -0.0543  0.1185  0.0431
 9911W        W26172  10.189   4.114   3.947 -0.3586 -0.0460  0.1397
 9912W        W26173   2.853   9.022  16.077 -0.1470 -0.3710 -0.0561
 9913W        W26174  11.645  11.805  15.381 -0.1527 -0.0649 -0.4467
 9914W        W26175   3.818   0.020  16.219  0.1926 -0.0491  0.2965
 9915W        W26176   9.947   4.221  12.424 -0.1456 -0.0020  0.4105
 9916W        W26177   9.072  14.768   2.859  0.0871 -0.1324  0.2106
 9917W        W26178  14.881   3.072  15.707 -0.1194 -0.1615 -0.3295
 9918W        W26179  10.261  13.324   2.355 -0.0640 -0.3789 -0.2236
 9919W        W26180  14.470  14.755   1.197  0.0162  0.1144  0.2619
 9920W        W26181  16.373   2.657  12.460  0.1295  0.0686  0.0088
 9921W        W26182   0.351   9.955  13.590  0.1051  0.0093  0.0807
 9922W        W26183  11.852   2.700   4.257  0.1550  0.1069  0.1449
 9923W        W26184   4.456   0.250   0.819  0.1615  0.2430  0.2395
 9924W        W26185  15.121  10.158  16.528  0.0442  0.1578 -0.1202
 9925W        W26186  12.771  16.550  12.926 -0.1873 -0.0810 -0.1270
 9926W        W26187   0.904  10.321   4.984  0.1300 -0.2435 -0.1076
 9927W        W26188  11.408   2.577  13.319 -0.2404  0.1796  0.0377
 9928W        W26189  11.898  13.914   3.590  0.1083  0.0593 -0.0247
 9929W        W26190  16.052  13.237  12.925 -0.0701 -0.3385 -0.3374
 9930W        W26191   1.184  16.018  15.120 -0.0156  0.0354 -0.2744
 9931W        W26192   9.772   7.988   5.560 -0.2059  0.2944  0.0500
 9932W        W26193  12.813   0.581   3.256 -0.3057  0.0759  0.0738
 9933W        W26194  16.239   2.607   3.901  0.0891  0.1633  0.1662
 9934W        W26195   1.151   7.334  16.122 -0.3504 -0.0084 -0.1799
 9935W        W26196   6.149   2.898  11.812  0.1548 -0.1126 -0.1839
 9936W        W26197  13.375   6.803   3.602  0.1485 -0.2326  0.1972
 9937W        W26198   2.870   8.102  15.568  0.1051 -0.0347  0.2000
 9938W        W26199   4.294   5.180   5.121 -0.1138 -0.1341 -0.0457
 9939W        W26200   8.770   3.777   4.669 -0.3977  0.1430  0.3041
 9940W        W26201  10.414  14.736  16.553 -0.2462 -0.1251  0.1380
 9941W        W26202  11.738  13.337   1.851 -0.1572  0.3146  0.3540
 9942W        W26203  13.692   3.142  14.962  0.1949 -0.2826  0.2003
 9943W        W26204   2.753  15.043   5.674 -0.1653 -0.3557 -0.0605
 9944W        W26205   8.059   4.329  13.217  0.0888  0.2390 -0.1098
 9945W        W26206  13.099   2.287  11.694 -0.0898 -0.1293 -0.2694
 9946W        W26207   0.164  17.773  13.338  0.1605 -0.0572 -0.1900
 9947W        W26208  16.867   1.101  12.673 -0.1511  0.0285 -0.1977
 9948W        W26209  11.162   5.236   5.734 -0.1821 -0.0591 -0.0865
 9949W        W26210   3.847   0.458  13.257 -0.1620  0.0657 -0.0125
 9950W        W26211  16.533   2.795  15.082 -0.1083  0.0327  0.1662
 9951W        W26212  13.511   3.933   1.298  0.2377  0.1808  0.2082
 9952W        W26213   1.075  17.121  13.400 -0.0706  0.0073 -0.2473
 9953W        W26214  14.219  14.615  16.367 -0.0176 -0.1522  0.2967
 9954W        W26215   6.203  11.594   1.477 -0.1707  0.0627 -0.1542
 9955W        W26216   2.820  12.964   2.799 -0.3301 -0.0258  0.0715
 9956W        W26217   0.898   1.275  14.102 -0.1803  0.0268 -0.0673
 9957W        W26218  12.821   6.383  15.681 -0.1401 -0.1659  0.2418
 9958W        W26219   7.295   1.223   3.082 -0.1455 -0.0784  0.2114
 9959W        W26220   7.660  14.682   4.055 -0.0610  0.4058  0.1226
 9960W        W26221  17.488   6.599  12.097  0.0853  0.0290 -0.0736
 9961W        W26222  10.186  16.536   3.598  0.0191 -0.2423 -0.1349
 9962W        W26223   4.115  10.930  15.565 -0.3636  0.0861  0.1165
 9963W        W26224  10.172  15.412  14.663  0.1525 -0.1415  0.0580
 9964W        W26225  10.387  14.011   4.620 -0.0890  0.0910  0.0563
 9965W        W26226  17.811   9.797  13.921  0.1318  0.0793  0.0091
 9966W        W26227   8.582  16.751   0.613  0.2516  0.0590  0.3074
 9967W        W26228  13.316  10.368  13.451  0.0660  0.0196  0.3483
 9968W        W26229  10.196  15.139  15.661  0.0044  0.0149  0.2469
 9969W        W26230  15.204   3.405   0.542  0.1883 -0.2073  0.0468
 9970W        W26231  14.019   7.042  15.322 -0.0108  0.1995 -0.0160
 9971W        W26232   3.258  16.319  14.457  0.2535 -0.0846 -0.2831
 9972W        W26233   7.534   3.062  13.610  0.2443 -0.0796 -0.0688
 9973W        W26234   1.968  11.095  15.428 -0.1371 -0.0618  0.2844
 9974W        W26235   9.639   2.279  16.117  0.1633  0.2267  0.2778
 9975W        W26236  12.470   6.770  16.958 -0.1049  0.0901 -0.3106
 9976W        W26237   1.948  11.068  16.423  0.0332 -0.2007  0.3617
 9977W        W26238   6.992   7.808   0.486 -0.2231 -0.0874  0.1530
 9978W        W26239   9.536  15.943  13.681 -0.1936 -0.0075 -0.2460
 9979W        W26240   2.844   2.177   3.758  0.1030  0.1257  0.2410
 9980W        W26241   4.727  14.075   0.816 -0.2686  0.2732  0.2062
 9981W        W26242   1.102  17.045  14.307  0.1453  0.4694 -0.0814
 9982W        W26243  15.963   3.358   5.479  0.2342 -0.1686  0.1951
 9983W        W26244   5.327   6.678   5.199  0.1484 -0.1733  0.1401
 9984W        W26245  12.649   1.896  15.508  0.1840  0.1148  0.1532
 9985W        W26246   6.802  17.414  14.107 -0.0822 -0.1251  0.0500
 9986W        W26247  11.725  17.254  13.245  0.0276 -0.0924  0.2551
 9987W        W26248  15.272   4.444  16.055 -0.1775  0.1587 -0.2223
 9988W        W26249  16.293   7.937  15.105  0.0704  0.2107  0.0140
 9989W        W26250   3.619  15.993  14.717  0.0246 -0.0310  0.1174
 9990W        W26251  10.583   5.393  16.719 -0.2226 -0.2307  0.2602
 9991W        W26252  15.302   1.920  15.348  0.4491 -0.0384  0.2803
 9992W        W26253  13.972  10.907   3.162 -0.4233 -0.1421  0.0920
 9993W        W26254  10.218   5.820  16.836  0.5313  0.4259 -0.2378
 9994W        W26255  14.624   5.434   2.908  0.0115  0.3109 -0.4164
 9995W        W26256  10.541  15.210   3.292  0.1784 -0.0154  0.1342
 9996W        W26257   2.968   5.525  14.800  0.0162  0.0666  0.1631
 9997W        W26258  16.578  15.396   3.673 -0.0313 -0.0300 -0.1388
 9998W        W26259  12.986   3.597   4.730  0.2204  0.1381  0.1528
 9999W        W26260  10.615   4.572  12.925  0.5413  0.2185  0.0482
10000W        W26261   3.138  13.376   0.017 -0.2003 -0.0341 -0.2968
10001W        W26262  14.851   2.644   2.955  0.0909  0.0865 -0.0107
10002W        W26263   7.204   9.645   3.786 -0.1421  0.0288 -0.0916
10003W        W26264   0.763  12.689   2.021  0.1157 -0.2841  0.2912
10004W        W26265   9.111   5.897   0.243  0.0042  0.1450 -0.0529
10005W        W26266  17.130   5.128   1.375 -0.0716 -0.0696  0.1878
10006W        W26267   4.905   2.761  13.629  0.0528  0.3363 -0.3116
10007W        W26268   4.666  17.613   2.424 -0.2068  0.0304 -0.0398
10008W        W26269   7.213   0.210   4.364  0.1615  0.0390 -0.0335
10009W        W26270  10.259  11.141   4.602 -0.0076  0.0268  0.3656
10010W        W26271  15.565   0.599   0.945 -0.2792  0.2477  0.0179
10011W        W26272   5.749   4.090   1.080 -0.2506  0.2019 -0.1795
10012W        W26273  10.800   0.582  13.207 -0.0090 -0.0245 -0.1670
10013W        W26274  16.398   9.675   2.809  0.1946  0.2343  0.1432
10014W        W26275  12.401  16.576  15.859 -0.1533 -0.0301 -0.0795
10015W        W26276   9.064   7.444  15.729  0.0315  0.1848 -0.0034
10016W        W26277  16.471  12.379   4.199  0.1805  0.3446 -0.0427
10017W        W26278   2.638  12.073  14.783 -0.0187  0.0468 -0.1732
10018W        W26279  16.904  17.490   2.618 -0.1939 -0.0287  0.3763
10019W        W26280   9.891   8.076   0.826 -0.2019 -0.0553 -0.0816
10020W        W26281  11.359   9.741  13.246  0.0101 -0.0606 -0.2549
10021W        W26282   7.644  16.798   2.412  0.4987  0.4825 -0.2471
10022W        W26283   4.185  11.116  12.990 -0.0389  0.4080 -0.1468
10023W        W26284   5.006   5.809   3.099 -0.1414  0.1336 -0.4585
10024W        W26285  16.320  10.610   3.528 -0.2020 -0.2052 -0.0054
10025W        W26286  13.832   3.725   0.943  0.0319  0.0602 -0.1899
10026W        W26287  10.373  11.988  14.626  0.0729 -0.0971  0.1481
10027W        W26288  17.843  15.892   3.117 -0.1548  0.1108  0.0778
10028W        W26289  15.241  11.089  16.682  0.3103 -0.1504  0.1455
10029W        W26290   6.676   0.089   5.470  0.2494 -0.1566 -0.3014
10030W        W26291   8.012  14.385  14.647 -0.3021 -0.1415  0.0392
10031W        W26292  11.555   8.164  16.844 -0.1975  0.3890 -0.0947
10032W        W26293  13.352  10.976   6.396 -0.2268 -0.2208 -0.0867
10033W        W26294  14.293   7.485   2.829  0.1561 -0.1724 -0.3400
10034W        W26295   9.340   5.425  12.530  0.3470 -0.1446  0.0480
10035W        W26296   5.149  11.516   1.435  0.0570 -0.0538 -0.0171
10036W        W26297   1.666  11.330   3.107 -0.0837 -0.2046  0.2466
10037W        W26298   3.066   8.000  12.936 -0.1262  0.0785  0.3051
10038W        W26299  17.275  10.504  13.381 -0.0939  0.1992  0.2178
10039W        W26300  14.825   1.582  12.129 -0.0856  0.3222  0.1179
10040W        W26301  16.238   3.637  16.742  0.0507  0.0203  0.0226
10041W        W26302  11.738  15.775   1.403 -0.0489  0.0686  0.0183
10042W        W26303   1.740  13.430   5.970  0.1077  0.0448  0.0384
10043W        W26304  10.315  12.889   5.762  0.1065 -0.1117  0.1612
10044W        W26305   6.578   1.798  16.520  0.0037 -0.0576  0.1330
10045W        W26306   7.764   6.825  15.292 -0.0089  0.3021 -0.2747
10046W        W26307   0.775  11.148   1.065  0.0321  0.1515  0.1972
10047W        W26308   8.889   6.047  14.083  0.1439 -0.2800 -0.0087
10048W        W26309   7.933   2.697   3.997 -0.4033  0.0608  0.1677
10049W        W26310   8.159  10.347  13.937  0.1117  0.0702 -0.1038
10050W        W26311   7.095   6.122  13.789  0.0250  0.3167  0.1108
10051W        W26312   9.319  11.303   4.547  0.0849  0.1643  0.1188
10052W        W26313   9.180   9.879  12.063  0.0885  0.1457  0.1684
10053W        W26314   0.657  12.886   1.570 -0.1215  0.0046 -0.1407
10054W        W26315   5.099   3.452  11.426 -0.0669 -0.1258 -0.5593
10055W        W26316   5.301   0.766  15.333 -0.0062 -0.0725 -0.0015
10056W        W26317   9.588   3.989   5.593 -0.2588 -0.0333  0.2124
10057W        W26318   4.097   2.349   1.826 -0.0675  0.1874 -0.1928
10058W        W26319   7.589  14.973   2.366  0.0518  0.1141 -0.2258
10059W        W26320   2.390  12.563   2.392 -0.0723 -0.1790 -0.3564
10060W        W26321  13.370   7.256  11.746  0.3545  0.2384 -0.0030
10061W        W26322  11.882  16.820   0.067 -0.0168  0.2785 -0.1586
10062W        W26323  17.475   5.364  12.809  0.0888 -0.2053  0.3022
10063W        W26324   0.424   3.750   1.232 -0.0531 -0.1715  0.1330
10064W        W26325   1.959   7.348   2.765  0.0855  0.0616 -0.0317
10065W        W26326  12.920  14.527  14.977  0.0569 -0.1078 -0.0158
10066W        W26327   3.824  15.883   2.839 -0.0431 -0.0401 -0.0863
10067W        W26328   8.186   6.420   4.181 -0.2744  0.0651 -0.0128
10068W        W26329   6.528   9.033  16.816  0.0751 -0.1689 -0.2327
10069W        W26330  15.431   3.200  13.848  0.2992 -0.0118  0.3651
10070W        W26331   0.950  10.751  13.763 -0.2614  0.0194 -0.2411
10071W        W26332   3.998   3.745   0.036  0.2643 -0.1383  0.0960
10072W        W26333  15.382   1.169  11.405 -0.1591  0.1466 -0.2685
10073W        W26334   5.690  17.341  14.596  0.2686 -0.0321  0.1047
10074W        W26335   1.113   3.530   4.501  0.2697  0.1396 -0.2492
10075W        W26336   4.187  10.758   4.543  0.1510  0.3636  0.0784
10076W        W26337   4.058   0.771  16.594 -0.0844  0.2723  0.2674
10077W        W26338   4.666  12.509   2.846  0.1731 -0.0792 -0.3329
10078W        W26339  14.689   9.208   1.055 -0.1001  0.0793  0.0736
10079W        W26340  12.715  17.219   1.971 -0.1671 -0.1596  0.0867
10080W        W26341  12.863  11.388  13.566 -0.0471 -0.0142 -0.0139
10081W        W26342  15.373  14.625   0.408 -0.0534  0.0147 -0.0476
10082W        W26343   0.796  16.007   0.673  0.0644  0.1352 -0.0522
10083W        W26344  13.525   7.410  14.430 -0.0560  0.0059  0.0027
10084W        W26345  12.766   8.925   1.651 -0.1859  0.1799  0.1808
10085W        W26346  16.149   8.451   2.441  0.1051 -0.0178 -0.2101
10086W        W26347  11.755   2.506   0.898  0.0711 -0.0103 -0.1449
10087W        W26348  12.976   4.613  12.504  0.0520  0.1149  0.0094
10088W        W26349  16.118   4.897   5.745  0.1486  0.4455  0.2289
10089W        W26350  10.178   4.413  11.432  0.0639  0.1720 -0.0755
10090W        W26351   2.568   0.004   2.165  0.1604 -0.1160 -0.0426
10091W        W26352   6.841   5.935   3.106  0.0572  0.2592 -0.0051
10092W        W26353   5.686  15.372  12.133  0.1369 -0.2676 -0.1042
10093W        W26354   1.901   6.658   3.167  0.0789  0.5411  0.2764
10094W        W26355  17.523   2.528   5.384 -0.0657  0.2050 -0.1048
10095W        W26356   5.630  11.974  12.045 -0.2297  0.3429  0.0730
10096W        W26357  10.125  15.495  12.938 -0.1853  0.0116  0.1996
10097W        W26358   4.712  12.139  11.828  0.3068 -0.0497  0.1724
10098W        W26359  12.956   5.877   1.148 -0.3198  0.1712  0.0003
10099W        W26360  14.199  14.910   0.262  0.3252 -0.1004  0.1070
10100W        W26361   7.129   4.649  13.947  0.0287 -0.1212  0.1262
10101W        W26362  16.997   1.777  12.716  0.1392 -0.0819 -0.3855
10102W        W26363   6.771  11.225  14.368  0.2810 -0.0811  0.1952
10103W        W26364  11.256  11.353   5.004 -0.1886 -0.2231  0.0272
10104W        W26365   5.537  11.046   5.347  0.1828 -0.0046  0.1310
10105W        W26366   1.452  17.776  16.831 -0.1976  0.2381 -0.0921
10106W        W26367  14.360  12.875  13.724  0.2150  0.0759 -0.1978
10107W        W26368   0.980  17.193  15.997 -0.1090  0.0833 -0.1954
10108W        W26369   8.826  13.136   3.982  0.0725 -0.2052 -0.1020
10109W        W26370   5.427   3.609   3.002  0.3038  0.1406  0.1041
10110W        W26371  11.730   8.146  13.248 -0.4439  0.0646  0.1139
10111W        W26372   2.555  10.757   4.546  0.1541  0.2149 -0.1211
10112W        W26373   3.827  15.438  15.538 -0.2910 -0.1671  0.3905
10113W        W26374   8.769   3.032   2.050  0.1705 -0.1674 -0.1961
10114W        W26375  12.185   0.518   1.977 -0.2031  0.0428  0.1007
10115W        W26376  15.344  12.219  16.887 -0.0688  0.0742  0.0428
10116W        W26377  15.715   7.883  12.301 -0.2134 -0.1666  0.1002
10117W        W26378   6.631  15.248   2.000  0.0559  0.2436 -0.0258
10118W        W26379   8.073   1.636  16.208 -0.1813  0.1355  0.1275
10119W        W26380   1.780   1.801  15.695 -0.0926  0.3068 -0.2694
10120W        W26381  14.745  11.472   5.526 -0.2914  0.1421 -0.0248
10121W        W26382   2.885   6.312  14.002  0.2452  0.0037  0.0200
10122W        W26383  14.261   3.288  13.093  0.0996  0.0347  0.1729
10123W        W26384   6.801   5.973   2.143  0.2092  0.2342  0.1382
10124W        W26385  10.323   9.211  14.188  0.1911 -0.0057  0.3301
10125W        W26386   3.688   3.004   4.326  0.1422 -0.1528 -0.0819
10126W        W26387  13.886   8.891  12.219  0.5187 -0.2625 -0.0464
10127W        W26388  15.336  17.412  16.129  0.0537  0.1806  0.0643
10128W        W26389  10.146   2.933  13.164  0.1330  0.0153 -0.1419
10129W        W26390  13.065  14.005  13.518 -0.0269  0.0694 -0.1096
10130W        W26391   0.490   0.644   0.052  0.1901 -0.1443 -0.0754
10131W        W26392  14.620  14.585  16.980 -0.2261  0.1192 -0.2351
10132W        W26393   0.827  13.808   2.349 -0.2802 -0.3088 -0.1589
10133W        W26394   9.827  17.631   2.269 -0.0439  0.1267  0.0763
10134W        W26395   5.106   3.357   2.647 -0.0622  0.2326  0.4382
10135W        W26396   2.200  13.566   4.438 -0.1942 -0.0861 -0.3292
10136W        W26397  14.936  14.261  14.844 -0.1138  0.0688  0.0762
10137W        W26398   4.385   4.728   4.610  0.1012 -0.2446 -0.1105
10138W        W26399  12.923   2.472   0.752  0.1447 -0.1406  0.1038
10139W        W26400   8.628   0.842   5.282 -0.1318  0.0280  0.2124
10140W        W26401   1.507   2.032  16.101  0.1393 -0.2985 -0.2191
10141W        W26402  12.882   6.136   1.926  0.2716  0.1382 -0.0798
10142W        W26403   4.624   9.821  14.440 -0.0166  0.1176 -0.3559
10143W        W26404  10.866  11.193   1.353  0.1702  0.1600  0.0412
10144W        W26405  15.242  10.808   2.824  0.1333  0.1479 -0.0986
10145W        W26406  15.133   9.233   0.739  0.0776  0.0853 -0.2086
10146W        W26407   8.391   8.090  13.369  0.0960 -0.1444 -0.0219
10147W        W26408  14.738  14.455  13.436  0.2918 -0.1502  0.0337
10148W        W26409   5.714  14.015   0.706 -0.2465  0.1821 -0.2182
10149W        W26410   8.380   5.494   3.026 -0.1475 -0.1171  0.0525
10150W        W26411   7.247   1.559   4.383  0.0878 -0.1715 -0.0853
10151W        W26412  16.360   9.624  12.722  0.1678  0.0006  0.1046
10152W        W26413   8.907   3.658   2.766 -0.1659 -0.1328 -0.0939
10153W        W26414  11.515   1.463  11.528  0.0443 -0.0279 -0.0506
10154W        W26415   1.574  11.153  14.390 -0.4968  0.0177 -0.0013
10155W        W26416   7.967  10.935   3.130 -0.0901 -0.1430 -0.3527
10156W        W26417   6.078   4.587   1.900 -0.0237 -0.0351 -0.4648
10157W        W26418   3.898   3.228  12.249  0.0951 -0.1860 -0.0140
10158W        W26419   7.386  12.717  13.383  0.1344  0.1108 -0.1105
10159W        W26420   1.175  12.245   5.308 -0.0537  0.0315 -0.0779
10160W        W26421   9.544  16.010   4.580  0.4009 -0.0964  0.2030
10161W        W26422   2.128  12.628   0.066  0.2323 -0.0028  0.0531
10162W        W26423   5.046   1.782  11.531  0.0617  0.1849  0.4157
10163W        W26424   8.036   3.450  13.030 -0.0040  0.0420 -0.0313
10164W        W26425  11.292  13.670   4.858 -0.1567 -0.0620  0.3158
10165W        W26426   4.286  15.323  14.449  0.0998 -0.0395  0.0122
10166W        W26427   8.110   0.568  13.498 -0.2464 -0.1487 -0.2014
10167W        W26428   1.791   4.770  16.492 -0.0871 -0.2275  0.4791
10168W        W26429   4.036  16.253  15.370  0.0306 -0.0336 -0.1227
10169W        W26430   3.310   5.099   0.174  0.3624 -0.0415  0.1000
10170W        W26431   5.364  13.339  13.635  0.2006  0.1039 -0.1656
10171W        W26432   5.967  14.257  15.184 -0.1972  0.1407 -0.3135
10172W        W26433   9.345  10.469   1.506 -0.0622 -0.3369  0.0504
10173W        W26434  13.262  11.025  14.318  0.0395  0.0290  0.2217
10174W        W26435  17.130   2.893   1.691  0.3231  0.1211 -0.1316
10175W        W26436   2.067  14.735   0.459  0.0684 -0.2222  0.1265
10176W        W26437   9.845   2.777  14.907  0.0173  0.2069 -0.0928
10177W        W26438   7.679  17.673   2.431  0.1205  0.1086 -0.1367
10178W        W26439  11.207   2.198   2.196  0.1197  0.0508  0.1743
10179W        W26440  13.756   6.591  16.092  0.3471  0.2603 -0.0433
10180W        W26441  15.262   2.723   1.693 -0.1897 -0.1822  0.0706
10181W        W26442   1.425   4.499  13.395 -0.0221 -0.0751 -0.0942
10182W        W26443  10.838   1.581  15.737  0.0200  0.1574 -0.1573
10183W        W26444   2.405   0.999  16.686 -0.3006  0.0452 -0.1248
10184W        W26445   0.655   0.111   2.141 -0.1770  0.1657 -0.1522
10185W        W26446   5.164   9.278   1.084 -0.0428  0.1655 -0.0244
10186W        W26447   8.284  14.607   5.798  0.2290  0.1629 -0.1140
10187W        W26448   0.718  15.645   4.911 -0.1068 -0.1150  0.1903
10188W        W26449  11.015  11.132   0.908 -0.3185  0.1134 -0.0267
10189W        W26450  12.238  14.830  12.547 -0.0808  0.0664 -0.3434
10190W        W26451   0.687  16.211   5.671 -0.4960 -0.0621 -0.0297
10191W        W26452  17.676  14.632   5.403  0.1463  0.1597 -0.0545
10192W        W26453  17.140  11.229  12.952  0.1164  0.1581 -0.2269
10193W        W26454   3.244   4.472   5.901 -0.1118 -0.0686  0.1125
10194W        W26455   9.121  12.263  16.121 -0.1655  0.2199  0.2040
10195W        W26456   8.044   1.498  15.646 -0.0470 -0.0687  0.4827
10196W        W26457   8.216   2.462  13.296 -0.0021  0.5205 -0.0120
10197W        W26458  13.675  16.802  15.334 -0.0070 -0.1182 -0.0260
10198W        W26459   3.693   8.863   2.894  0.0438  0.0012 -0.3660
10199W        W26460   9.340   5.869  14.252  0.1661 -0.1503 -0.0266
10200W        W26461  13.310   1.547  16.843  0.2112  0.0745  0.0406
10201W        W26462  11.479  10.852  16.037 -0.2101 -0.1272  0.1883
10202W        W26463  11.070  13.722  13.389  0.2297  0.1400  0.0846
10203W        W26464  12.197  11.970  12.535 -0.0462  0.1757  0.2539
10204W        W26465   9.602  12.647  16.019 -0.0102  0.2545 -0.3217
10205W        W26466  12.715  14.380  15.868  0.1871  0.0731  0.0752
10206W        W26467   2.762  12.549   4.597  0.2785  0.4796  0.1229
10207W        W26468   0.987   0.078   1.577  0.3836  0.1101 -0.0599
10208W        W26469   5.004   7.192  15.809 -0.0649 -0.1049 -0.0767
10209W        W26470   0.197   7.023   2.903  0.3438  0.1804 -0.1784
10210W        W26471   5.799   2.605  14.554 -0.1257 -0.0678  0.0247
10211W        W26472  10.678   0.682  15.124 -0.1128 -0.1426  0.1854
10212W        W26473   0.708  17.080  15.458  0.1665  0.0348  0.0159
10213W        W26474   7.802  11.424   2.631  0.3520  0.0844  0.2139
10214W        W26475   2.310  13.483  12.272 -0.0073  0.0439  0.0442
10215W        W26476  13.465  16.221  15.261 -0.1413 -0.0755 -0.3020
10216W        W26477   5.651   1.577  12.218 -0.2842 -0.2903  0.0008
10217W        W26478   2.827   3.417  15.683  0.2925  0.0292  0.0958
10218W        W26479  11.232  16.418   6.583  0.1694  0.0019  0.0368
10219W        W26480  12.616  15.685   3.659  0.1547 -0.0618  0.1728
10220W        W26481  10.716   4.166   1.429  0.0802 -0.1697  0.1714
10221W        W26482   6.313  17.228   5.704  0.1594  0.0838 -0.0812
10222W        W26483   1.564  16.044  15.485  0.0976  0.2968  0.0809
10223W        W26484  13.274   2.389  12.729 -0.0157  0.2118 -0.0161
10224W        W26485  15.683  14.775  13.024  0.0042 -0.1314 -0.0072
10225W        W26486   1.524   5.782  15.405  0.0316  0.2126 -0.2848
10226W        W26487  10.845   3.399  12.118 -0.0069  0.0498  0.1449
10227W        W26488  11.410   5.833   4.495 -0.0280  0.0306  0.0982
10228W        W26489  14.882   0.867  16.110  0.1354 -0.1750 -0.2664
10229W        W26490   3.643   6.316  12.773  0.1215  0.1879 -0.1689
10230W        W26491  13.052  13.768  15.312 -0.0508 -0.2103 -0.2572
10231W        W26492   4.285  11.893   2.301 -0.1335  0.0708 -0.0486
10232W        W26493  12.794  17.583   5.491 -0.1732  0.2999 -0.2460
10233W        W26494   2.565  13.919  14.158  0.1410  0.2792  0.1834
10234W        W26495   7.069  15.414  11.954 -0.1110  0.1928 -0.0303
10235W        W26496   2.843   3.960   0.887 -0.1752 -0.0307  0.2340
10236W        W26497  15.531  11.715   5.917  0.2162 -0.2090  0.1543
10237W        W26498   0.576   8.454   2.970  0.1089 -0.1073 -0.0476
10238W        W26499  14.214  10.755   6.417 -0.0691  0.0844 -0.0905
10239W        W26500   8.115  10.538  10.384  0.1365 -0.0836 -0.0439
10240W        W26501  17.635   4.285  12.600  0.1817  0.3990 -0.0098
10241W        W26502  12.958   3.756  12.094 -0.0025 -0.0568 -0.1121
10242W        W26503   6.883  12.005  12.689 -0.0029 -0.1432  0.2173
10243W        W26504  10.956   2.758  13.643 -0.1441  0.0462 -0.1760
10244W        W26505   5.227   2.724  15.115 -0.0482  0.2267  0.1135
10245W        W26506   4.529  13.178   1.639  0.1790  0.4290  0.1510
10246W        W26507  17.161   2.126  13.826  0.0656  0.0927  0.0294
10247W        W26508   5.638   3.355  15.659 -0.0952  0.1791  0.0162
10248W        W26509  17.646   0.279  16.096  0.4341  0.1246 -0.0449
10249W        W26510   4.066  17.454  14.974 -0.1836 -0.2156  0.1351
10250W        W26511   6.495   8.688  12.784 -0.2501  0.0339  0.1060
10251W        W26512  13.466   4.507   5.788 -0.4646  0.1314  0.1723
10252W        W26513   6.562   4.624   0.755 -0.0436 -0.0297  0.0282
10253W        W26514   0.438   9.222   1.704  0.1953 -0.1367  0.2424
10254W        W26515   3.698   6.086  16.284  0.0812  0.1087 -0.0052
10255W        W26516   2.512   1.501  16.470 -0.1840 -0.2552 -0.1052
10256W        W26517   1.118   9.850  14.718 -0.0460  0.0732  0.0315
10257W        W26518   1.394  12.141   1.307  0.3041 -0.4268 -0.2749
10258W        W26519  15.086   4.221  16.740 -0.0666 -0.0705 -0.0238
10259W        W26520  10.558  17.112   4.697  0.3500 -0.1126  0.0625
10260W        W26521   4.538   3.113   5.097  0.0921  0.0268  0.3224
10261W        W26522   9.289   2.231  15.349 -0.0540 -0.1162 -0.1720
10262W        W26523   3.153   8.068   0.864  0.1532  0.2246  0.2325
10263W        W26524   9.916  11.054   1.247  0.2958 -0.1190  0.2203
10264W        W26525  14.416  11.957   1.743  0.1650 -0.3520  0.0156
10265W        W26526  11.533   4.708   3.732 -0.1203  0.0503  0.3113
10266W        W26527   4.674  15.474  15.739 -0.1592  0.1289 -0.0018
10267W        W26528   2.677  14.493  12.171 -0.3270 -0.1920  0.2202
10268W        W26529   7.116  13.986  13.575  0.1336  0.1699 -0.2433
10269W        W26530  17.293   8.018   3.438  0.0118  0.1703 -0.4344
10270W        W26531  13.247   3.469  14.068 -0.1704  0.2258  0.1897
10271W        W26532   7.568   8.945   0.817 -0.0712 -0.0283 -0.0503
10272W        W26533   0.527   9.475   2.622  0.0365 -0.0463 -0.2465
10273W        W26534  14.882   2.278  15.096  0.0666  0.0961 -0.2329
10274W        W26535   0.479   9.901  15.436 -0.1439 -0.4112  0.1165
10275W        W26536   7.250   6.134   0.577  0.2287 -0.1419 -0.2141
10276W        W26537   1.856  17.502   0.547 -0.1976  0.0921  0.0467
10277W        W26538  16.860   6.904   2.722  0.3753  0.0201  0.3240
10278W        W26539  10.897  14.572  16.787  0.0817  0.0528  0.1327
10279W        W26540  17.660   2.756   0.914 -0.1963  0.0953 -0.1384
10280W        W26541  14.495   4.672  16.422 -0.0629  0.1092 -0.1052
10281W        W26542  13.551   9.917   1.196  0.2337 -0.0790 -0.1262
10282W        W26543  14.840  15.744  15.435 -0.0553  0.1699  0.0054
10283W        W26544   6.597   6.415   4.028 -0.1037 -0.1191  0.4145
10284W        W26545   8.882   4.053  13.084 -0.1439 -0.0838 -0.0405
10285W        W26546   7.120  11.347  15.090  0.3092  0.1193  0.3092
10286W        W26547   7.814   1.877   4.801 -0.0755 -0.2331 -0.1730
10287W        W26548  10.259   7.948  12.744  0.4606  0.0402 -0.0745
10288W        W26549  11.633   5.461   2.015 -0.2267  0.2885  0.1223
10289W        W26550   5.598   2.564  13.803 -0.2960  0.0798 -0.2259
10290W        W26551  14.424   9.730  11.405 -0.4357 -0.2008  0.1222
10291W        W26552   6.000   4.333  15.491 -0.0794 -0.0850  0.0542
10292W        W26553  14.593  13.173  14.779  0.0307 -0.0152 -0.0080
10293W        W26554  12.210  12.627   1.810 -0.2087 -0.1388  0.0377
10294W        W26555  16.831   7.044   4.441 -0.1216  0.3857 -0.0182
10295W        W26556  12.630  11.825   0.948 -0.1088 -0.0059  0.0968
10296W        W26557  12.411   0.180  15.153 -0.3692  0.0515  0.3147
10297W        W26558   3.776  16.147   4.809 -0.0791  0.0003  0.1104
10298W        W26559   7.233   4.221  14.115 -0.0063  0.0108 -0.0280
10299W        W26560  17.602   1.548  14.973  0.0242  0.0679 -0.1798
10300W        W26561  11.669   4.225   3.340  0.2659 -0.2021 -0.1681
10301W        W26562   9.984  13.340   5.925 -0.0958 -0.0851  0.2679
10302W        W26563   3.585   9.239   1.349 -0.1150  0.0112 -0.1223
10303W        W26564  12.442  17.306  12.475 -0.0128  0.1734  0.0355
10304W        W26565  16.011   9.360   0.001 -0.1227 -0.0970  0.0651
10305W        W26566   3.274  17.704  13.849  0.1028  0.0017  0.1125
10306W        W26567   0.385   6.279  16.031 -0.0894 -0.1783  0.3415
10307W        W26568  14.683   2.116   5.264 -0.0607  0.0222  0.1109
10308W        W26569  13.561   1.287   4.139  0.1071 -0.1405  0.2268
10309W        W26570  12.444  13.865  13.487  0.0592  0.0794 -0.0979
10310W        W26571  12.126  11.879  13.316  0.1519  0.1693 -0.2838
10311W        W26572  13.228   8.424  11.548  0.0904  0.2023 -0.0298
10312W        W26573  16.417   7.400  16.858 -0.0236  0.1436  0.2886
10313W        W26574   2.461   1.637  14.421  0.1549 -0.3063  0.3237
10314W        W26575   8.416  12.701  15.035  0.5478 -0.1188 -0.3520
10315W        W26576  16.372  11.336   0.690 -0.0742 -0.0428  0.2921
10316W        W26577   0.435  11.988  12.544 -0.0607 -0.2082 -0.2243
10317W        W26578   9.882   6.141   0.005 -0.1038 -0.0400  0.0225
10318W        W26579  17.504  16.770   2.193 -0.1417  0.2937 -0.2076
10319W        W26580   4.684   4.587  12.197 -0.3365  0.1080 -0.0727
10320W        W26581  10.978   8.841   2.722 -0.2870 -0.0132  0.0050
10321W        W26582   1.073  17.774   3.979 -0.2872  0.0139 -0.0040
10322W        W26583  12.525   0.538  16.569 -0.0024 -0.1387  0.0434
10323W        W26584   8.818  11.828  13.834 -0.2570 -0.1107  0.0492
10324W        W26585  10.872   1.865  14.393  0.1317 -0.1092 -0.0430
10325W        W26586   0.928  11.872   2.635  0.0262  0.0205 -0.0838
10326W        W26587  13.676  17.557   2.779 -0.0823  0.1039 -0.4126
10327W        W26588  17.410  16.106   1.349  0.1884 -0.0876 -0.0636
10328W        W26589  13.560   5.221   4.028 -0.1239 -0.0255 -0.1634
10329W        W26590  14.155   3.168  14.637  0.1101 -0.1036 -0.1787
10330W        W26591   8.723   8.905   1.947  0.3167  0.3070  0.2638
10331W        W26592   1.855   5.719  16.215 -0.3393 -0.3524 -0.2210
10332W        W26593   1.927   9.492   1.687 -0.1337  0.0315 -0.0594
10333W        W26594   8.644  15.245   1.538 -0.0028  0.3919  0.0367
10334W        W26595   7.343   9.276  15.678 -0.2772  0.2952  0.2023
10335W        W26596  13.643   1.402  15.295  0.1438 -0.2668 -0.2273
10336W        W26597   1.068   9.974  12.028 -0.0609  0.1228  0.0506
10337W        W26598   1.622  11.046  13.331 -0.0973  0.1369 -0.1231
10338W        W26599  13.257  17.094  15.083 -0.0061 -0.2926  0.2310
10339W        W26600   1.134  16.533  12.735  0.2582  0.0629  0.0633
10340W        W26601  14.368   7.003   2.961  0.2840 -0.1604  0.0028
10341W        W26602   1.565   9.589   3.027  0.0758  0.0626 -0.0881
10342W        W26603  10.613  10.855  15.850  0.2650 -0.0236  0.0120
10343W        W26604  12.720   1.900  11.388  0.0647  0.0323  0.4220
10344W        W26605  13.188  12.536   3.826 -0.2776 -0.2404  0.1958
10345W        W26606   9.379   9.710   3.151 -0.0081  0.1884 -0.2117
10346W        W26607   4.047   6.302  14.944  0.1348 -0.3124  0.0436
10347W        W26608   7.069   5.431  12.420  0.1174 -0.1880  0.1057
10348W        W26609  10.538   6.384   5.026  0.1276  0.3846 -0.0538
10349W        W26610   0.343   4.469  15.555 -0.0187  0.4881  0.0860
10350W        W26611   9.069   7.379   4.300  0.1042  0.0494 -0.0673
10351W        W26612   5.870   2.528  13.319 -0.0452  0.1565 -0.0191
10352W        W26613  10.878   8.217   2.718 -0.1129 -0.1623 -0.0489
10353W        W26614  11.092  13.133  12.948  0.2789  0.0346  0.1737
10354W        W26615   6.542  12.561   0.101 -0.0106 -0.1311  0.1159
10355W        W26616   5.226   6.717   2.230 -0.0512  0.1511  0.1989
10356W        W26617  12.240  12.225  13.708 -0.1114  0.0550 -0.0995
10357W        W26618   3.597   8.523   5.645  0.0111 -0.2397  0.1819
10358W        W26619   9.608  13.992  11.919 -0.0585  0.1498  0.0236
10359W        W26620  12.117   0.850  13.056  0.1355  0.1764  0.2075
10360W        W26621   5.433   3.229   1.046  0.0174 -0.0831 -0.0239
10361W        W26622  13.571  10.615  14.216  0.1755  0.1580  0.1273
10362W        W26623   7.355   7.189  16.268 -0.1700  0.0028 -0.2490
10363W        W26624  14.307   6.195   1.615  0.1139 -0.0655  0.0131
10364W        W26625   8.544   8.713   0.543  0.2247  0.1266  0.2934
10365W        W26626  16.567   0.055   0.716  0.0862 -0.2662  0.0918
10366W        W26627   8.968  15.446   2.309 -0.1788 -0.1171 -0.0938
10367W        W26628   4.597   7.825   3.045  0.1647  0.3103 -0.1001
10368W        W26629  14.462   1.424  16.837  0.0827 -0.2449 -0.1366
10369W        W26630   8.031  11.858  11.347  0.0806  0.0470  0.0754
10370W        W26631   5.157  13.428   0.471 -0.0296  0.2292 -0.2581
10371W        W26632  13.673  16.700  12.586  0.0516  0.2657  0.0157
10372W        W26633   8.523   7.666   5.549 -0.1547 -0.1408 -0.3505
10373W        W26634  11.702   1.364  16.504 -0.1386  0.1835 -0.0955
10374W        W26635   5.322   2.616  13.408  0.2095  0.1275 -0.0298
10375W        W26636   1.184  14.758  12.779  0.2124  0.1236 -0.0426
10376W        W26637   7.296  15.869  11.733 -0.0855 -0.0165  0.1302
10377W        W26638  14.902   3.425   2.778 -0.1153  0.4098  0.1663
10378W        W26639   7.118   6.916   0.946  0.3504 -0.3644  0.3231
10379W        W26640  17.147  13.130   0.602 -0.1621 -0.1400 -0.0970
10380W        W26641  12.125  17.086  14.949  0.0316  0.0285  0.1248
10381W        W26642   1.971   7.865   0.039 -0.1022  0.1383 -0.0916
10382W        W26643  12.023   7.951   6.304  0.2726  0.0820 -0.0324
10383W        W26644  10.338   6.373   3.930 -0.0420  0.0515 -0.0106
10384W        W26645  12.473   7.951  13.793  0.0975  0.2220  0.1821
10385W        W26646  11.616   3.523  16.692  0.1052  0.2099  0.0915
10386W        W26647  14.721  15.673   2.456  0.1603  0.3138 -0.0816
10387W        W26648  11.742  15.928   5.132  0.3664 -0.0855 -0.0568
10388W        W26649  17.003   8.762  16.371 -0.0559 -0.0577  0.1075
10389W        W26650   6.883   5.678  13.953  0.2370  0.4720  0.0562
10390W        W26651   9.180  15.521   3.173  0.0725 -0.1403 -0.0597
10391W        W26652   7.507   1.626  13.878  0.2109 -0.0021  0.1118
10392W        W26653  14.556   5.777   5.734 -0.3271  0.2481 -0.1722
10393W        W26654  15.453  17.255  13.219 -0.1365 -0.0734 -0.0604
10394W        W26655   7.029   6.759   1.810  0.0253 -0.0318  0.1281
10395W        W26656   4.431   9.544   5.859 -0.1714 -0.0655 -0.0928
10396W        W26657   8.129   1.733   1.838  0.0909 -0.0440  0.0124
10397W        W26658   8.144   5.121   5.520  0.0090  0.0884 -0.1581
10398W        W26659   0.818  16.337  13.624 -0.0787 -0.0373  0.0634
10399W        W26660   5.526   5.859  16.282 -0.0282  0.0046 -0.0965
10400W        W26661  13.150  16.641  12.500  0.0783 -0.0678 -0.0313
10401W        W26662  12.513   3.248   0.975  0.1286 -0.1142  0.1978
10402W        W26663  17.294  11.671   0.021 -0.1772  0.2282 -0.2439
10403W        W26664   5.465   6.997   2.661 -0.0453  0.3393 -0.0035
10404W        W26665  14.109  17.223   2.705 -0.0771 -0.0650  0.1683
10405W        W26666  10.596  13.366   3.597 -0.2797 -0.2065 -0.0192
10406W        W26667   6.507  12.379   5.194  0.1611 -0.0950  0.3350
10407W        W26668  10.155  13.366  12.966  0.0908  0.2415 -0.2099
10408W        W26669   3.124  16.617  12.689 -0.0284  0.1827 -0.3026
10409W        W26670  16.439   9.179  12.634  0.2591  0.1302  0.0527
10410W        W26671  15.640   9.582   5.820  0.0752 -0.2032 -0.1045
10411W        W26672  13.891   3.822   2.583 -0.0173  0.1734 -0.4147
10412W        W26673  15.286  13.824   6.056  0.1005 -0.3706 -0.1795
10413W        W26674   0.683   8.924   0.814  0.2003  0.1203  0.3571
10414W        W26675   2.249   0.849   2.184 -0.1072 -0.0135 -0.0185
10415W        W26676   8.044  14.141   4.313  0.2975  0.0375 -0.1661
10416W        W26677  15.382  10.636   4.555 -0.0732 -0.1966 -0.0557
10417W        W26678   6.672   7.085  11.763  0.0448 -0.0429  0.1116
10418W        W26679  11.390   0.609  15.857 -0.0485 -0.0923  0.1221
10419W        W26680   8.161  14.058  16.659 -0.2934 -0.1981  0.0244
10420W        W26681  10.893   3.472   1.935 -0.0558  0.0201 -0.3072
10421W        W26682  13.539  14.540  12.431 -0.1680  0.0554  0.3275
10422W        W26683   3.637  12.174  14.288  0.2311 -0.0130 -0.5041
10423W        W26684   3.766  11.886   3.682 -0.0645 -0.1955  0.0049
10424W        W26685   0.360   5.894  12.454 -0.2555  0.1192 -0.1763
10425W        W26686   8.368  11.986   2.995 -0.2958  0.2302 -0.1120
10426W        W26687   9.427   2.711   0.977  0.0082  0.1844 -0.2963
10427W        W26688  11.508  17.143   1.317 -0.0811 -0.2836  0.1484
10428W        W26689  12.678  13.124   3.670  0.0573  0.2050 -0.2087
10429W        W26690   1.924   6.144   3.547 -0.1298  0.1760  0.0994
10430W        W26691  17.708   1.726   4.392 -0.0601 -0.0050 -0.0020
10431W        W26692   5.750  12.946   4.252  0.2123  0.1753 -0.0254
10432W        W26693   2.228   9.365  14.432  0.1177 -0.1229 -0.0222
10433W        W26694   6.829   3.752   5.368 -0.0438 -0.1917  0.0306
10434W        W26695  15.628  13.928   3.961 -0.1920 -0.0784 -0.0136
10435W        W26696  11.648   8.162  11.374  0.2421  0.2229  0.0379
10436W        W26697  15.751  15.552  13.219  0.2897  0.0023  0.3124
10437W        W26698   7.306  13.486  14.014  0.1322 -0.0218  0.0998
10438W        W26699   5.786   7.466  13.844 -0.0607  0.0173  0.2373
10439W        W26700   0.990  15.637   2.827  0.0731 -0.1896  0.1438
10440W        W26701  16.568   0.863   4.583 -0.1249  0.0550  0.2712
10441W        W26702   5.592  12.208   2.596 -0.1443 -0.1536 -0.1549
10442W        W26703   8.729   0.924   0.787 -0.1670  0.0661 -0.2469
10443W        W26704   3.407   6.663   3.965 -0.0434  0.1828  0.1974
10444W        W26705  13.732   5.962  10.515  0.1328  0.2261  0.1180
10445W        W26706   1.983   5.362   2.903 -0.1855 -0.2478 -0.0514
10446W        W26707   5.638  17.682  13.642 -0.2134  0.4162 -0.1731
10447W        W26708   4.504   2.647   5.773 -0.2561  0.1081  0.1320
10448W        W26709  10.849   1.872  16.164 -0.0180  0.3850  0.1873
10449W        W26710  13.105  13.274   5.406 -0.0055 -0.4462  0.1026
10450W        W26711   2.610   9.665  14.654 -0.0986 -0.0843  0.2118
10451W        W26712   6.795  13.592   6.069 -0.1905 -0.3518  0.0299
10452W        W26713   7.299  10.012   0.700  0.1205 -0.1236 -0.0891
10453W        W26714  17.469  14.189  16.729 -0.0382  0.0141 -0.1157
10454W        W26715  11.150   6.633   1.520  0.0677 -0.0468 -0.0490
10455W        W26716  10.376  17.709   3.977 -0.2749 -0.1247  0.0770
10456W        W26717  11.159   7.660  13.520 -0.0549 -0.1451  0.0349
10457W        W26718   9.967  17.839  12.519 -0.0056  0.0199 -0.0603
10458W        W26719   5.369  14.629  10.584 -0.1409 -0.1611 -0.2808
10459W        W26720  12.600   0.165  13.139  0.2284  0.1088 -0.1554
10460W        W26721   0.490   2.296  16.841 -0.0652 -0.1116 -0.1510
10461W        W26722  15.901   6.595  16.550 -0.0500  0.2412  0.1811
10462W        W26723  14.757   8.993  12.117 -0.0897  0.1590 -0.2330
10463W        W26724   9.207  15.122   0.136 -0.3578  0.3442  0.2468
10464W        W26725   5.602  10.267   5.880  0.0938 -0.2894 -0.2560
10465W        W26726   9.052   0.439  11.861 -0.0570 -0.1964 -0.1787
10466W        W26727   9.688   5.585   3.055 -0.1656  0.2135 -0.2536
10467W        W26728  14.263   5.545   5.411  0.1106 -0.2429  0.1779
10468W        W26729  11.243  14.287  12.668  0.0204 -0.2290 -0.2004
10469W        W26730  13.534   8.470  16.590 -0.3098 -0.2137  0.2600
10470W        W26731  16.931  17.511   5.722  0.0068 -0.1916  0.1466
10471W        W26732  15.481   3.297  13.335 -0.0274  0.3416  0.1044
10472W        W26733  17.504  10.084  13.175 -0.0801  0.2156  0.1770
10473W        W26734  10.743   1.924   4.958 -0.3847 -0.0984  0.1406
10474W        W26735  15.319   3.704   4.200 -0.0565  0.3502 -0.0955
10475W        W26736   2.527  14.886   1.317 -0.1683 -0.0219  0.1466
10476W        W26737  10.714  10.744   3.399  0.0422  0.4972 -0.2525
10477W        W26738   5.624   6.249   4.953  0.1092  0.0075  0.1868
10478W        W26739  13.366  15.647   2.395  0.0661  0.2626  0.1508
10479W        W26740   7.994  10.298  14.842 -0.0190 -0.1278 -0.1267
10480W        W26741   8.441   7.682   1.293 -0.0773  0.0714  0.2520
10481W        W26742   1.848   3.364   5.021 -0.0656 -0.0457 -0.0613
10482W        W26743   4.785  13.090  14.130  0.0812 -0.1200  0.0616
10483W        W26744   4.552  10.797   0.675 -0.0109  0.1824  0.1317
10484W        W26745   6.849  11.556  13.708 -0.2622  0.1171 -0.0316
10485W        W26746   0.396  10.460  12.162 -0.1244  0.1525  0.0461
10486W        W26747  11.495  14.861   5.235 -0.1730  0.0826 -0.0335
10487W        W26748   3.218  17.383   5.370  0.4367  0.0546  0.0805
10488W        W26749  17.619  15.006   2.686  0.0988 -0.2894  0.0874
10489W        W26750  13.116   2.470  14.878  0.1864 -0.3007  0.0371
10490W        W26751  14.850   1.077  12.108  0.0520 -0.0177  0.1088
10491W        W26752   0.433   1.459   5.639  0.0411  0.1626 -0.0653
10492W        W26753  17.835   1.836  11.548  0.1977 -0.1104 -0.0262
10493W        W26754   3.317   6.923   0.524 -0.1596 -0.3151 -0.2846
10494W        W26755  11.092  14.641   4.394  0.0657  0.0859  0.0589
10495W        W26756   2.464  17.385  16.382 -0.1536  0.2286 -0.1305
10496W        W26757   4.326  16.679   5.122  0.1200  0.0439 -0.1199
10497W        W26758   9.718  13.191  13.164  0.1444 -0.0275 -0.3183
10498W        W26759   8.300  14.310  12.336  0.2613  0.0026 -0.0852
10499W        W26760   6.515   6.563   3.541 -0.3082 -0.2615  0.0546
10500W        W26761  12.465  15.223   6.704  0.2204  0.2064  0.0084
10501W        W26762  11.200   5.049  11.919 -0.0938  0.0105  0.4573
10502W        W26763  12.394  11.394   4.860 -0.0239 -0.0545 -0.2736
10503W        W26764  14.248  10.816   0.213  0.0457 -0.2881 -0.0867
10504W        W26765   4.590  17.144   2.564  0.1193 -0.4323 -0.1217
10505W        W26766  10.048   7.863  11.785 -0.0246 -0.1792  0.0343
10506W        W26767   8.268   6.419   0.447 -0.0325 -0.0270 -0.2677
10507W        W26768   4.804   2.980   5.573  0.0684  0.0143 -0.0512
10508W        W26769  16.173  14.098   0.516  0.0385  0.0566 -0.1448
10509W        W26770  13.067  11.371  16.632 -0.1138 -0.2616 -0.1149
10510W        W26771   2.235   2.918  13.839 -0.1304  0.0845  0.1054
10511W        W26772   3.860  13.442   5.941 -0.1188 -0.0151 -0.0492
10512W        W26773   2.158  17.663  12.661  0.0048 -0.3031  0.2920
10513W        W26774  11.702  12.350   0.847 -0.2564 -0.0806  0.0878
10514W        W26775   1.689  12.190   5.388  0.0344  0.0346  0.2565
10515W        W26776   0.902   3.684   1.042  0.0528 -0.1591 -0.0126
10516W        W26777   9.614   2.255   4.066  0.2742 -0.0877  0.0509
10517W        W26778   4.417   0.433   3.859 -0.2627  0.0021  0.0635
10518W        W26779   0.163   0.645   1.551 -0.3049 -0.2999  0.0077
10519W        W26780   8.022   2.258  13.717 -0.0027 -0.2371 -0.0507
10520W        W26781   8.031  10.493   3.927 -0.1537 -0.2691 -0.1741
10521W        W26782   1.068  15.355   5.872  0.0448 -0.1513  0.0794
10522W        W26783   6.094   4.519  13.578  0.1833 -0.1740 -0.3658
10523W        W26784   0.808   5.471  14.655 -0.2893  0.3721  0.1456
10524W        W26785   5.335   8.354   0.347 -0.0842 -0.0290  0.1881
10525W        W26786  15.873  17.647  13.576  0.0660  0.2017  0.2634
10526W        W26787   9.153   2.414   4.132  0.3185  0.0073 -0.3722
10527W        W26788   2.465  11.355  13.791 -0.2730 -0.0424  0.0826
10528W        W26789  14.716   0.981  12.884 -0.1352  0.0990 -0.1971
10529W        W26790   8.463   5.334  13.709 -0.0737  0.0472  0.0393
10530W        W26791   0.056   3.175   0.973  0.4819  0.2050 -0.2390
10531W        W26792   3.905  15.079   2.452 -0.0354  0.0192 -0.1153
10532W        W26793   2.608  14.727  13.747 -0.1008  0.1779 -0.0863
10533W        W26794   8.270   1.047   0.541 -0.1335 -0.0420 -0.0875
10534W        W26795   0.001   3.189  14.551  0.0032 -0.0125  0.0260
10535W        W26796   2.144   4.571  14.102  0.1058 -0.1163  0.0956
10536W        W26797  11.146  10.860   3.222 -0.0608 -0.1919  0.4257
10537W        W26798   4.710  17.094  12.180  0.2074  0.0526  0.1059
10538W        W26799   0.280   3.732   4.734 -0.2349 -0.0556  0.0731
10539W        W26800  17.749  16.250  13.556 -0.3862  0.1164  0.2256
10540W        W26801  12.832  15.275  15.503  0.2276  0.0504 -0.1092
10541W        W26802   8.631  11.459  11.427 -0.3006  0.6809 -0.2129
10542W        W26803   8.642  12.205   1.681  0.2512  0.3064  0.0528
10543W        W26804   5.817   3.955  16.198  0.2177  0.2129  0.0464
10544W        W26805  16.929   3.254   0.155 -0.0283 -0.0568  0.0687
10545W        W26806  17.737   7.902   5.173 -0.2079 -0.1154  0.3163
10546W        W26807   0.877   8.844  15.958  0.0404  0.0670  0.0161
10547W        W26808   3.702  16.464   5.575  0.1975 -0.2070  0.0020
10548W        W26809   9.565  15.742  14.180 -0.3732 -0.1213  0.3646
10549W        W26810   0.428  11.605  15.310  0.0103  0.1078  0.0551
10550W        W26811  17.500  11.557   0.513 -0.2288 -0.1229 -0.2382
10551W        W26812  15.567   0.796   3.395 -0.2824  0.1212  0.0020
10552W        W26813  12.929   0.643   5.750 -0.0214 -0.1973 -0.0961
10553W        W26814  17.319  17.101   4.446 -0.0478  0.1180 -0.0062
10554W        W26815   1.533   4.489  14.249  0.0145 -0.2055  0.0598
10555W        W26816  16.065  12.231   3.918 -0.3638  0.0009 -0.0877
10556W        W26817   9.221   2.634  13.365 -0.2650 -0.0361 -0.0518
10557W        W26818   3.405   3.872   4.529 -0.0118  0.0884 -0.0479
10558W        W26819   4.886  12.690  16.053  0.0687  0.0529  0.1222
10559W        W26820  12.977  13.275  12.230  0.0596 -0.2373  0.0326
10560W        W26821   7.842   7.836  11.996  0.0105  0.1534 -0.2508
10561W        W26822  11.829   1.846  11.789  0.2615 -0.0068 -0.2708
10562W        W26823  17.204   6.111   1.547 -0.1579 -0.0822  0.0258
10563W        W26824   6.509   7.553  11.973 -0.1708 -0.1211 -0.0532
10564W        W26825   8.576  14.709  13.436  0.1431  0.0175 -0.0441
10565W        W26826   0.823  14.140   1.580 -0.0075 -0.2338 -0.1362
10566W        W26827  16.757   9.968  14.683  0.2411 -0.3034 -0.0695
10567W        W26828   7.411   1.165  12.678  0.2452  0.1254  0.0032
10568W        W26829   0.543  17.583  16.174  0.1846  0.0418 -0.0386
10569W        W26830  17.686   2.881   3.037  0.3124 -0.1143 -0.2045
10570W        W26831  10.220  12.389  13.271  0.0236  0.0844  0.0058
10571W        W26832   0.295  13.394   0.713  0.0222 -0.1946  0.1334
10572W        W26833  14.643   7.050   0.117 -0.0538  0.0710 -0.0351
10573W        W26834  15.126  17.126  12.048  0.1167 -0.0327  0.1930
10574W        W26835   1.730  15.991   3.414  0.1301  0.0635  0.1365
10575W        W26836   6.382  13.059  12.169  0.2216 -0.0574 -0.0031
10576W        W26837  16.378  14.506   3.669 -0.2713 -0.0498  0.1108
10577W        W26838   2.499   6.449   2.029 -0.1927  0.1770 -0.1555
10578W        W26839   4.311   6.804  15.265 -0.1416  0.0188 -0.0264
10579W        W26840  12.517   5.533  16.617 -0.1706  0.0841  0.1475
10580W        W26841  12.029  17.068   1.466 -0.4899 -0.1244 -0.2924
10581W        W26842  10.440   3.414  14.687 -0.3093  0.2069  0.0750
10582W        W26843  16.171  10.381  14.575  0.4147  0.3615 -0.1032
10583W        W26844   3.750  17.088  12.437 -0.1713 -0.3213 -0.1055
10584W        W26845  14.695   8.472   3.591 -0.1066 -0.2407  0.0711
10585W        W26846  12.210   5.596   2.982 -0.0095 -0.1475  0.1341
10586W        W26847  13.409  12.052  14.600  0.1174 -0.0284  0.0188
10587W        W26848  14.138   4.089   3.974 -0.1295  0.1008  0.1605
10588W        W26849   1.700   9.911   5.506  0.0763  0.0245  0.0142
10589W        W26850   4.371  11.549  16.254  0.0416 -0.0350 -0.4322
10590W        W26851  16.997   6.483   2.454 -0.2732  0.2838 -0.0948
10591W        W26852  11.229   8.875  14.158 -0.0509 -0.2152 -0.0665
10592W        W26853  17.134   8.347  15.608  0.0104 -0.0011  0.0958
10593W        W26854   4.636   1.104  16.035 -0.1249 -0.0615  0.1598
10594W        W26855   6.547   6.697  15.890 -0.1077 -0.1365 -0.1026
10595W        W26856   7.470  14.565  15.543  0.2502 -0.0008 -0.1444
10596W        W26857  15.196  17.166   3.711  0.3662 -0.4016 -0.0349
10597W        W26858   2.940  13.882  16.976 -0.0058 -0.0381  0.1310
10598W        W26859  14.099  11.433   4.529 -0.2230 -0.2984 -0.0638
10599W        W26860  13.895   0.118   4.105 -0.1298 -0.0881 -0.2665
10600W        W26861   7.353   0.615   1.725 -0.0868 -0.0457 -0.2404
10601W        W26862   6.391   9.418   0.531  0.0239  0.1036 -0.1156
10602W        W26863   4.318  16.840  13.179  0.3009  0.2368 -0.1344
10603W        W26864  13.560  14.122  13.701 -0.1476 -0.2768  0.1673
10604W        W26865  14.228  11.216   6.241 -0.1024  0.1537  0.3885
10605W        W26866   9.186   9.625   0.547  0.0010  0.1368 -0.1056
10606W        W26867   6.933  12.543  16.740 -0.0053 -0.0678  0.1769
10607W        W26868   4.053   7.679   2.984  0.0014 -0.1489  0.0437
10608W        W26869  10.839   6.787   2.954  0.0538 -0.1272 -0.1547
10609W        W26870  16.533   6.441   3.852 -0.0557 -0.2344 -0.0059
10610W        W26871  13.916   1.799  12.521  0.0337 -0.0531 -0.5300
10611W        W26872  16.878   1.570   2.727  0.0785 -0.0657  0.1015
10612W        W26873   7.927   8.063   2.843 -0.0150  0.1556  0.0126
10613W        W26874  10.727   6.947   0.207  0.0897  0.2114 -0.0877
10614W        W26875   3.253   3.969   0.531 -0.0583 -0.1777  0.2820
10615W        W26876  13.076   3.273   5.708  0.0230  0.1661 -0.1346
10616W        W26877  14.721   2.198   1.431 -0.0699  0.0090  0.2221
10617W        W26878   5.070   8.050   6.594 -0.1119  0.0952 -0.2321
10618W        W26879  14.808  16.460  14.549 -0.1502  0.0120 -0.1375
10619W        W26880   7.183  14.223   4.855  0.1730  0.0953  0.1278
10620W        W26881   8.594  12.795   5.960  0.4852 -0.2076 -0.0790
10621W        W26882   9.296  10.993  16.217 -0.5787  0.0566  0.1439
10622W        W26883  10.588   9.134  16.788  0.3777 -0.3724 -0.0292
10623W        W26884   2.355   2.731   5.978 -0.2443 -0.1967 -0.2588
10624W        W26885  16.401  12.968   2.372 -0.0002 -0.2381 -0.1222
10625W        W26886   9.100   2.025  11.768  0.2207 -0.0710 -0.2292
10626W        W26887   2.885   0.107  13.562  0.1441  0.0848 -0.0342
10627W        W26888   1.889   0.334   4.408  0.1208 -0.4588  0.0510
10628W        W26889  13.978  14.164  12.971  0.2824  0.0859 -0.0779
10629W        W26890   9.846  17.823   4.312  0.1417  0.0163  0.1367
10630W        W26891  11.843   9.664   2.858 -0.1213 -0.0874  0.0210
10631W        W26892   1.348   1.295   2.299 -0.2563  0.3434  0.0755
10632W        W26893   2.676  13.702  15.346  0.0307  0.6100 -0.3510
10633W        W26894   8.698  16.698  15.190 -0.0642  0.3402 -0.0898
10634W        W26895   9.262   4.094   4.042 -0.0564 -0.3229  0.0350
10635W        W26896   1.388   3.173   4.830 -0.3598 -0.4223  0.1165
10636W        W26897   9.645  15.729  15.822 -0.1204 -0.0462  0.2045
10637W        W26898   7.027   8.323   2.357  0.0058 -0.1329 -0.0567
10638W        W26899   5.156   3.389   2.096  0.0697  0.1647 -0.2069
10639W        W26900  16.046  13.102   5.595  0.1764 -0.1041 -0.2170
10640W        W26901   4.835  12.417   0.330  0.1558  0.1408 -0.0944
10641W        W26902  12.980  12.046  13.027  0.0171  0.2696 -0.1692
10642W        W26903   7.629   8.128   5.088  0.0277 -0.0979  0.3204
10643W        W26904   6.003  14.594  11.763 -0.0429  0.2217 -0.0457
10644W        W26905  16.497  16.291   2.471 -0.0854 -0.0385 -0.2412
10645W        W26906   7.831   6.731   5.058  0.0392  0.3360 -0.3964
10646W        W26907   2.031  10.119   3.773 -0.0522  0.1987 -0.1578
10647W        W26908   4.065  15.154   3.372  0.1459 -0.1471  0.1496
10648W        W26909   3.210  17.111  12.892  0.5085 -0.0352 -0.0137
10649W        W26910   4.490  16.988  15.285 -0.1794  0.0330  0.1062
10650W        W26911   4.944   1.927  13.675  0.0365  0.3401  0.1144
10651W        W26912  15.001   2.770   3.552 -0.0625  0.2240 -0.0989
10652W        W26913  13.561   9.131   3.057  0.1130 -0.0143  0.0071
10653W        W26914   8.856   8.104   2.536  0.1273  0.1325 -0.0156
10654W        W26915   7.784   1.329   0.548  0.2118 -0.0109 -0.1084
10655W        W26916  10.549  16.951  12.023  0.2742  0.1267 -0.1566
10656W        W26917   1.423   8.297   2.653 -0.2780 -0.3664 -0.0027
10657W        W26918  10.771  17.386  14.238  0.3839 -0.0449 -0.3092
10658W        W26919   5.222  10.728  14.484 -0.0141  0.2360 -0.1495
10659W        W26920   7.641   8.895   1.371  0.1951  0.1620  0.1306
10660W        W26921  15.698   5.202   5.586 -0.3113 -0.2889 -0.2935
10661W        W26922  10.869   2.677  15.569 -0.3896 -0.2687 -0.0105
10662W        W26923  16.830   1.316  14.163  0.2740  0.2393  0.2700
10663W        W26924   1.859  13.115   4.493 -0.2817 -0.0230  0.0171
10664W        W26925   3.977  11.312   2.903  0.3052  0.2018  0.0466
10665W        W26926  12.163  13.731   3.940  0.1255  0.0212  0.0277
10666W        W26927  17.819   6.502   2.343 -0.0931 -0.0326  0.2858
10667W        W26928   2.300   3.130   1.265  0.0848  0.4058 -0.2045
10668W        W26929   2.914   6.151  10.800  0.0786  0.0146  0.1255
10669W        W26930   8.007   2.374   2.661  0.0859 -0.0151 -0.0533
10670W        W26931  13.282  11.708  13.488  0.1623  0.0869  0.0903
10671W        W26932   4.444   2.032  15.013 -0.3742 -0.0888 -0.1218
10672W        W26933   9.407  14.774   3.274  0.0878  0.1865 -0.0086
10673W        W26934   5.519   3.466  12.892 -0.0904  0.3394 -0.1937
10674W        W26935  16.120   1.829   3.064 -0.0572  0.1547  0.1158
10675W        W26936  12.800  16.976   3.934  0.0564 -0.4155  0.1154
10676W        W26937   2.856  14.138  12.496  0.0433  0.0178 -0.1286
10677W        W26938   2.901   5.541   1.270  0.0391 -0.0034  0.1358
10678W        W26939  11.888  15.190  13.914 -0.0006  0.0874 -0.1246
10679W        W26940  16.288   9.740   3.415 -0.0557  0.2204  0.2931
10680W        W26941   0.094   2.465   3.319 -0.0074  0.1437 -0.1351
10681W        W26942   6.996   7.743   0.964 -0.0175  0.0420  0.1980
10682W        W26943  10.679   6.319   1.621  0.0069 -0.1725  0.1612
10683W        W26944  16.729   1.922   4.175 -0.2413 -0.0276 -0.0935
10684W        W26945   0.064  13.771  11.666  0.0128  0.1428  0.0960
10685W        W26946   7.439   1.776  12.576 -0.1453  0.0669  0.1874
10686W        W26947  13.843   7.334   1.870  0.0070 -0.1415  0.0275
10687W        W26948   7.554  16.408  12.647 -0.0763  0.0145 -0.1137
10688W        W26949  15.282  10.814  16.193  0.0424 -0.2729  0.1016
10689W        W26950  10.173   6.175   2.284  0.3298 -0.2393 -0.2992
10690W        W26951  17.513   2.312   1.228 -0.1941 -0.4329  0.1661
10691W        W26952   8.744   1.658   3.759 -0.1733 -0.1738 -0.2706
10692W        W26953   4.690   0.263   4.733 -0.0211 -0.2657  0.5099
10693W        W26954   8.584  12.269  14.677 -0.3132 -0.3678 -0.0945
10694W        W26955   8.120   7.665   1.672  0.3510 -0.0220 -0.0450
10695W        W26956   5.020   9.738   6.093 -0.0798  0.0378  0.0117
10696W        W26957   1.259   8.185  16.818 -0.1186  0.0664  0.3340
10697W        W26958  13.681   5.654  11.630  0.0748  0.1382 -0.0481
10698W        W26959  14.920   8.687  15.969 -0.3042 -0.1552 -0.0050
10699W        W26960   8.050   0.605   4.371 -0.1296  0.0994  0.0689
10700W        W26961   6.113   0.258   1.175 -0.3929  0.2270  0.0516
10701W        W26962  10.909  12.225   1.628  0.1299  0.1371  0.3270
10702W        W26963   5.547  17.330   3.464  0.2138  0.2075 -0.0331
10703W        W26964   1.545   9.379  12.952  0.0371 -0.1122  0.0889
10704W        W26965   5.465  13.152   3.902  0.1921 -0.0180 -0.0282
10705W        W26966   3.826  13.667   5.416  0.0943  0.0182 -0.0376
10706W        W26967   1.465   6.324   1.783 -0.0593  0.0217 -0.2825
10707W        W26968   6.068   0.016  16.211  0.0939  0.1082 -0.0218
10708W        W26969  16.980   2.731   4.565 -0.0323 -0.0839  0.0937
10709W        W26970   1.961  17.192   0.171 -0.1177  0.0041 -0.3783
10710W        W26971   4.077  10.925   6.015  0.2587 -0.1848 -0.0348
10711W        W26972   3.540  16.289  12.873  0.0526  0.2037  0.2021
10712W        W26973   2.250   0.699   0.601 -0.1909 -0.1390 -0.1087
10713W        W26974   7.059  15.747  14.130 -0.4494  0.0566 -0.3324
10714W        W26975  15.443   1.839   4.691 -0.1064 -0.1598  0.1247
10715W        W26976  17.839  16.191  14.922 -0.1747  0.0167 -0.0134
10716W        W26977   5.831   8.681   2.662  0.1415  0.2033  0.3308
10717W        W26978   9.226   5.013   4.316 -0.0683  0.0376 -0.0507
10718W        W26979   7.667   9.491  14.334  0.2972  0.1462  0.4564
10719W        W26980  12.209   3.697  13.120  0.2519 -0.3222 -0.0166
10720W        W26981  13.369   8.024  13.739  0.0178 -0.2378  0.2518
10721W        W26982   0.433   0.258  13.717 -0.0311  0.2781 -0.0183
10722W        W26983   6.137  16.992   1.342 -0.1742  0.0113 -0.2745
10723W        W26984   0.711  14.398  14.192 -0.0279 -0.0494  0.3826
10724W        W26985   7.391   3.849   4.606 -0.2562  0.1430 -0.3439
10725W        W26986  15.862   1.288   4.206 -0.1608  0.1783 -0.1381
10726W        W26987   7.730   6.437   1.226  0.1098 -0.0595  0.0701
10727W        W26988  15.293  14.740   2.487  0.0168  0.2589  0.2778
10728W        W26989  16.612   8.288  13.775 -0.0756  0.1172 -0.0504
10729W        W26990   8.634   1.614  14.428  0.0334  0.1887 -0.0361
10730W        W26991   4.616   0.181  16.075 -0.0411  0.2939 -0.0407
10731W        W26992  13.776  17.030  16.773  0.0647 -0.2873 -0.0260
10732W        W26993  16.294   6.028   4.010  0.2592  0.2867  0.2985
10733W        W26994   6.377   2.634  15.679 -0.0558  0.1488 -0.0260
10734W        W26995   1.081  11.807  14.683 -0.1988  0.1020 -0.1133
10735W        W26996  12.116  10.142  12.606  0.1033 -0.3987 -0.2358
10736W        W26997   4.010   6.802   6.422 -0.2539 -0.0816 -0.3014
10737W        W26998   4.077   7.113  12.608  0.4293 -0.0017  0.1088
10738W        W26999   5.762   6.892  14.619  0.0046 -0.2921  0.1296
10739W        W27000  11.237   6.123  16.949  0.0571  0.1201  0.0148
10740W        W27001  17.416   1.752  15.413 -0.2006 -0.1837  0.3121
10741W        W27002   0.058  11.232   5.050  0.2683  0.0784 -0.1144
10742W        W27003   5.259  16.833  12.558  0.0884  0.0397 -0.1859
10743W        W27004   2.593  14.658  15.160  0.1270  0.2980  0.0114
10744W        W27005   4.050  15.113   1.077  0.2486 -0.2483  0.4166
10745W        W27006  15.634   0.926   4.994 -0.4642 -0.0912  0.1314
10746W        W27007   9.302  13.138   0.772  0.2337  0.0064  0.3679
10747W        W27008  10.537   4.420   4.166  0.0475 -0.0498 -0.3008
10748W        W27009  11.317   6.326  11.467 -0.0587  0.0590  0.1696
10749W        W27010   6.898   1.199  12.775  0.2712  0.0226 -0.0607
10750W        W27011  14.822  12.637   4.797 -0.2327 -0.1267  0.0434
10751W        W27012  10.672   8.562   4.017 -0.0021  0.1101  0.0469
10752W        W27013   5.868   4.451   1.409 -0.2211 -0.2415  0.1251
10753W        W27014   0.824  12.577   0.845 -0.0286  0.1922  0.2486
10754W        W27015  17.010  13.852  15.350 -0.1194  0.2303 -0.0641
10755W        W27016   3.031  13.787  16.173 -0.0789  0.0328  0.1999
10756W        W27017   8.640  15.294   4.209 -0.2447  0.1743  0.3051
10757W        W27018  13.483  11.725   3.638  0.1355 -0.0762  0.0511
10758W        W27019   1.826   3.986   4.767  0.0998 -0.2872 -0.3237
10759W        W27020  17.648   8.985  14.186  0.1264  0.0044  0.1246
10760W        W27021   7.890   5.624  12.063 -0.3568  0.1054  0.1656
10761W        W27022   5.587   4.356  12.229  0.5134  0.0450 -0.1386
10762W        W27023   2.944   3.887   1.682 -0.0866 -0.0918  0.1334
10763W        W27024  12.890   5.954  11.973  0.0823 -0.0896 -0.1396
10764W        W27025  17.849   2.270  16.703  0.0354  0.1128 -0.0700
10765W        W27026   4.230  12.824  16.799  0.0545  0.1872 -0.0330
10766W        W27027   6.722  10.933   0.727 -0.3537 -0.2006  0.0356
10767W        W27028   8.426   0.857   2.535  0.6159 -0.3550  0.0098
10768W        W27029  12.000   4.394  14.765 -0.0495  0.2025 -0.0615
10769W        W27030  13.263   1.729  15.208 -0.0057 -0.0583 -0.1283
10770W        W27031  14.482   6.972  15.846  0.1370 -0.0077  0.2106
10771W        W27032  12.435   6.916  11.949  0.2789  0.1051 -0.1339
10772W        W27033   3.371  12.995   4.734  0.3073  0.3472  0.0884
10773W        W27034   0.642   0.484  14.102 -0.0353  0.0315  0.0413
10774W        W27035   8.619  17.690   6.145 -0.0702 -0.2914 -0.0025
10775W        W27036   6.066   8.905   6.392  0.0619 -0.1606 -0.0252
10776W        W27037  11.498   0.353   1.537  0.1816 -0.1033  0.0245
10777W        W27038  17.159   5.662  15.712  0.0300  0.1594  0.2211
10778W        W27039   5.252   0.050   4.423 -0.0999 -0.0975  0.0614
10779W        W27040  17.149   2.672   1.059 -0.0873  0.3285 -0.2818
10780W        W27041  14.574  14.390   6.090 -0.3049 -0.4626 -0.0238
10781W        W27042  14.978  11.189   2.985 -0.2078  0.2105 -0.0159
10782W        W27043   4.086  10.537   3.394  0.1120 -0.2216  0.0824
10783W        W27044  10.147  13.990   3.098  0.0189 -0.1843  0.2077
10784W        W27045  13.568  16.260  14.632 -0.1010  0.0635  0.0209
10785W        W27046   3.681   0.849  14.640  0.4119  0.0461  0.1892
10786W        W27047   4.792  15.256   2.556  0.3336  0.1729 -0.0316
10787W        W27048   0.993   0.612  13.773 -0.1497  0.0355  0.0502
10788W        W27049  12.042  10.664   5.284  0.0820 -0.1143 -0.1602
10789W        W27050  15.921  11.634  14.392  0.0122  0.0373  0.0412
10790W        W27051   2.926  17.427   0.186 -0.1743 -0.0003 -0.0460
10791W        W27052   8.472  12.521  14.227  0.2708  0.0720 -0.0874
10792W        W27053   2.363  10.214  12.272 -0.0540 -0.2600 -0.1423
10793W        W27054   2.844   2.550   4.616  0.0847  0.0695  0.0807
10794W        W27055   1.788   5.705  14.389 -0.1530  0.0904 -0.0079
10795W        W27056   7.919  11.555   4.949 -0.0564 -0.0678  0.1098
10796W        W27057   8.505  12.207  16.265 -0.2977  0.0606 -0.0275
10797W        W27058   4.826   0.705   3.529  0.2192  0.0873  0.0345
10798W        W27059  15.851   9.711  12.090 -0.2660  0.1892  0.1355
10799W        W27060  12.824  14.434   4.622 -0.0827  0.0469 -0.1122
10800W        W27061   4.701   1.049  13.012  0.2153 -0.0902  0.1200
10801W        W27062   8.736   8.256   2.990 -0.0166 -0.1594 -0.1443
10802W        W27063  10.587   4.521  14.785  0.0738  0.0143  0.1133
10803W        W27064   5.363   0.364  16.210 -0.0382 -0.0750 -0.0589
10804W        W27065   3.073   9.479   4.672  0.1694 -0.4299 -0.2327
10805W        W27066  13.842   0.397  10.903 -0.0674 -0.0381  0.0554
10806W        W27067   3.025   0.287   3.454  0.3019  0.1893 -0.0627
10807W        W27068   9.592  14.843   0.512 -0.1650 -0.3741  0.1206
10808W        W27069   8.092   4.473  11.815  0.0787 -0.0069 -0.1264
10809W        W27070   0.394   8.206   2.525 -0.1331 -0.0837 -0.0048
10810W        W27071  13.166   8.826  16.925 -0.1134 -0.1075 -0.0920
10811W        W27072   0.888  11.195   4.562 -0.2690  0.2178 -0.3271
10812W        W27073  12.335   8.331  16.321  0.1298  0.0930 -0.0902
10813W        W27074   8.489  10.571   4.336  0.0665 -0.1042  0.0315
10814W        W27075   7.603   7.612  14.658 -0.0792  0.1141 -0.1212
10815W        W27076  13.001  16.359   4.416  0.0870  0.0577  0.2182
10816W        W27077  12.585   1.231  14.280 -0.1121 -0.0652  0.0211
10817W        W27078   3.954   7.095  13.130  0.1138  0.4059  0.0509
10818W        W27079   1.417  14.862   5.824 -0.2014  0.1994  0.4496
10819W        W27080  16.277   3.213  12.458 -0.1752  0.0483  0.2220
10820W        W27081  11.058   2.559   5.161 -0.2446 -0.0898  0.1258
10821W        W27082   6.789  11.531   2.295  0.1679 -0.3125 -0.1889
10822W        W27083   0.228   3.630   3.349  0.3149  0.0129  0.1669
10823W        W27084   2.897   7.872  16.046 -0.0701  0.1147  0.3519
10824W        W27085   7.662   9.484  14.848  0.2986  0.2958  0.1236
10825W        W27086   6.134  14.588   3.913 -0.1719  0.0373 -0.2278
10826W        W27087   3.609   0.817   5.796  0.0696  0.1874  0.0806
10827W        W27088   3.632  15.252   0.244 -0.0196  0.1571 -0.0882
10828W        W27089   4.432  11.139  13.962 -0.2006 -0.0657 -0.3885
10829W        W27090  13.551  11.315   2.352  0.2492  0.1039 -0.2243
10830W        W27091  13.581   5.733  13.920 -0.1799 -0.0742 -0.0741
10831W        W27092  13.738   7.266  14.907 -0.0244 -0.1305 -0.2711
10832W        W27093   0.632   4.183   5.199 -0.1361  0.0365  0.0229
10833W        W27094   6.420  15.062  16.405  0.3284  0.0315  0.2613
10834W        W27095   9.269   1.446   3.900 -0.1730  0.1361  0.1830
10835W        W27096   7.311  10.486   1.300  0.0050 -0.1469 -0.2036
10836W        W27097   1.764  13.922   5.785  0.0398 -0.1806 -0.1763
10837W        W27098   5.217   4.396  13.858 -0.2117  0.2756 -0.0633
10838W        W27099   3.821  15.349  13.113 -0.1374 -0.2084 -0.1150
10839W        W27100  15.053   2.577   2.161 -0.0210  0.2618 -0.0367
10840W        W27101   9.683   9.594   1.099 -0.2499  0.3466 -0.0111
10841W        W27102   0.542   8.466  13.092  0.1672 -0.1117 -0.0267
10842W        W27103  16.334  17.481   1.614  0.0578  0.2089  0.5287
10843W        W27104   2.429   6.115  14.489  0.0330 -0.2254 -0.1466
10844W        W27105   0.523   6.908  11.768  0.1602 -0.1497 -0.1540
10845W        W27106   8.417   7.541  13.255 -0.0219 -0.2235 -0.0423
10846W        W27107  12.482   3.891   2.093 -0.1951  0.1511 -0.2878
10847W        W27108  13.387   2.655  14.199  0.0451  0.2562 -0.1803
10848W        W27109  11.863  12.858   0.323 -0.3935 -0.0763  0.1772
10849W        W27110   6.138   1.009   2.999  0.2077  0.3023  0.2069
10850W        W27111   9.587  10.920   0.759 -0.1578 -0.0810  0.0466
10851W        W27112   2.360   1.705  13.114  0.1283 -0.1239 -0.3136
10852W        W27113   2.484   9.558  16.870 -0.0152 -0.1939  0.0631
10853W        W27114  17.279   9.146   2.088 -0.1201 -0.1610 -0.1641
10854W        W27115  12.086   2.622  10.964  0.0176 -0.0387 -0.1495
10855W        W27116   4.836   8.905   0.827  0.1427  0.3220  0.1459
10856W        W27117   0.801  12.773  16.609  0.0293  0.0106  0.0175
10857W        W27118  17.395  15.428   0.477 -0.1906 -0.0970 -0.1750
10858W        W27119  14.773  13.405  12.488 -0.1003 -0.2545 -0.0191
10859W        W27120   6.745   5.138   3.055 -0.1261  0.1235  0.1076
10860W        W27121  10.119  16.383   1.025  0.0977 -0.0761  0.2847
10861W        W27122   0.252  13.687  12.104 -0.2487  0.0935  0.0046
10862W        W27123  13.713  16.959   3.803 -0.0426  0.0759  0.3662
10863W        W27124   4.271  15.462   3.806  0.1953 -0.3661  0.4646
10864W        W27125  10.677  10.077  13.772 -0.0322 -0.0175 -0.1836
10865W        W27126  17.170   4.408   0.029 -0.0668 -0.0976 -0.1473
10866W        W27127  15.889   0.572   6.156  0.2108  0.0482  0.1259
10867W        W27128   0.084  17.695  16.027 -0.1431 -0.0936  0.0825
10868W        W27129   1.415  10.084   2.277 -0.0154  0.0357  0.1612
10869W        W27130   6.226  11.479   3.967  0.0785 -0.3110  0.1492
10870W        W27131  16.753   9.440   3.863 -0.1942 -0.1133  0.2146
10871W        W27132  12.077   0.493  13.949  0.3417 -0.1110 -0.0715
10872W        W27133  16.302  16.667  13.141 -0.0005 -0.2518  0.3665
10873W        W27134   0.531  12.735   5.623 -0.0312 -0.0854 -0.0063
10874W        W27135  12.147  15.947   1.101  0.2779  0.0604  0.1320
10875W        W27136  16.313   5.858  15.362 -0.1798  0.2008 -0.0271
10876W        W27137   6.948   4.270   0.523  0.0445  0.2084 -0.0109
10877W        W27138   5.174   3.065   0.304  0.1677 -0.0088 -0.2249
10878W        W27139   0.453   2.777  13.519 -0.0964  0.0708  0.0346
10879W        W27140   1.643   4.418  15.245 -0.3552  0.1816  0.2012
10880W        W27141  15.454   2.014   3.906 -0.0867 -0.0620 -0.0443
10881W        W27142   2.415  16.927  14.142 -0.0829 -0.1605 -0.0140
10882W        W27143   5.608   3.206   1.936  0.0241 -0.0702  0.1035
10883W        W27144   5.480  11.341  14.018 -0.1290  0.3601  0.0629
10884W        W27145   1.692   3.842  12.178 -0.0329  0.2823  0.0368
10885W        W27146  10.866  14.608   2.612 -0.1418  0.1757 -0.1619
10886W        W27147   9.020   0.119   4.085  0.1663  0.1540 -0.1614
10887W        W27148   7.857  13.525   3.717  0.1976 -0.3239 -0.2638
10888W        W27149   2.522   4.006   4.696  0.2287  0.1292  0.0389
10889W        W27150   8.014  10.583   4.490 -0.0202 -0.3443  0.1098
10890W        W27151  14.362   2.805   2.949  0.2113 -0.4913  0.1448
10891W        W27152   6.561   7.893   0.808  0.0922 -0.2498  0.0238
10892W        W27153   1.099  16.241   6.255 -0.0338  0.0254 -0.0387
10893W        W27154  15.341  11.998  16.262  0.3215  0.0219 -0.1297
10894W        W27155   3.431  15.284   2.176  0.0232  0.1130 -0.1714
10895W        W27156   6.240   4.289   2.731 -0.0314 -0.1546  0.2258
10896W        W27157   0.856   3.592  11.984  0.1818 -0.0946  0.2188
10897W        W27158   1.056  12.701   5.492  0.1783  0.0723 -0.1405
10898W        W27159   1.583   2.993   0.732  0.0535  0.0553  0.1130
10899W        W27160   1.407   0.075   3.614 -0.0223  0.2283 -0.4590
10900W        W27161   5.697   4.432  16.396  0.0192  0.2864 -0.1538
10901W        W27162  16.839   3.932   3.009  0.0693 -0.0811  0.2685
10902W        W27163   6.488   3.002   2.895  0.1865  0.3241  0.0159
10903W        W27164   8.603  12.202  15.208 -0.2375 -0.2170  0.1540
10904W        W27165   0.945   9.398   3.350  0.1431  0.1366  0.3437
10905W        W27166  17.581  15.055  12.675 -0.4257  0.2259  0.0907
10906W        W27167   3.485  13.222  15.648 -0.2795  0.4671 -0.1880
10907W        W27168  13.129  15.862   5.869 -0.0043 -0.1729  0.1573
10908W        W27169   3.728   5.451  12.164 -0.1926  0.2718  0.1432
10909W        W27170  11.349  16.608  16.725 -0.3262 -0.1919 -0.0574
10910W        W27171  15.018  17.016  16.306 -0.1036  0.0850 -0.0865
10911W        W27172   6.328   2.286  14.674 -0.2150  0.1639  0.0490
10912W        W27173   7.411   9.250  13.590 -0.0129  0.0560  0.0997
10913W        W27174  11.706   3.598  12.207 -0.1836 -0.1356  0.0261
10914W        W27175  10.777  10.342  14.164 -0.1202 -0.1821 -0.0790
10915W        W27176   4.919  16.024   4.118 -0.0254  0.1877 -0.0636
10916W        W27177  14.900   0.914   2.887 -0.3934 -0.3550  0.1902
10917W        W27178   6.266   6.289   5.705  0.2023  0.1357 -0.1056
10918W        W27179   9.105  15.973  12.038 -0.0735  0.1139 -0.0170
10919W        W27180   4.488   0.614  16.883  0.0991 -0.0373  0.2671
10920W        W27181   1.577   6.211  13.658  0.0999 -0.0041 -0.0942
10921W        W27182   5.930  13.887   5.218  0.0449  0.2300  0.1082
10922W        W27183   3.682   9.389  12.172 -0.1090 -0.1048  0.2355
10923W        W27184  13.363   5.049  15.824  0.1309  0.0074 -0.1404
10924W        W27185  14.403  13.122   5.478  0.1618 -0.0897  0.2374
10925W        W27186   8.708   9.771   0.439  0.0600 -0.0837  0.2042
10926W        W27187   1.394   4.487   1.491  0.1446 -0.1423 -0.0766
10927W        W27188  13.152  11.353   1.512 -0.3805  0.2784 -0.3333
10928W        W27189  11.013   8.372  16.197 -0.2171 -0.3117  0.2373
10929W        W27190  12.685   5.723   3.068 -0.0248  0.2551  0.1529
10930W        W27191  13.057  10.644   0.398  0.0356  0.0642 -0.0110
10931W        W27192   4.526  16.181   2.118 -0.1435 -0.3558 -0.2731
10932W        W27193  17.285   5.034  14.027  0.2349 -0.0154 -0.0340
10933W        W27194  14.754   8.364   3.085 -0.1469 -0.0081  0.0232
10934W        W27195   6.402   0.431  15.979  0.3534 -0.1717 -0.0061
10935W        W27196   4.888   2.347  15.269 -0.1779 -0.2016 -0.1689
10936W        W27197   7.546  13.691   1.990  0.0060 -0.2851  0.1005
10937W        W27198   4.192   9.824   0.902  0.0310  0.3334 -0.1385
10938W        W27199   7.655   6.452   2.936 -0.0990  0.0472  0.0755
10939W        W27200  14.813   0.030   2.271 -0.1199  0.2733  0.3272
10940W        W27201  10.487   1.221  12.355 -0.4007 -0.1183 -0.0878
10941W        W27202  16.196   1.947  13.154  0.0975  0.0518  0.2469
10942W        W27203   7.792   8.636   2.725  0.1662  0.4129  0.1290
10943W        W27204  13.484   3.292  15.952  0.0859  0.4474  0.2633
10944W        W27205   1.473  15.433  12.820  0.4209 -0.6237 -0.0125
10945W        W27206   1.946  17.161   4.110 -0.0528 -0.2816 -0.1954
10946W        W27207   6.883  17.649  13.307 -0.0894 -0.0314 -0.2992
10947W        W27208   5.865  10.046  14.656  0.0739  0.1497  0.1538
10948W        W27209   0.952   6.345  15.388  0.0668  0.0862  0.0744
10949W        W27210   8.571  10.677  16.263 -0.0580  0.2676  0.2596
10950W        W27211   1.982  16.220   0.105  0.1938 -0.2909  0.0548
10951W        W27212  15.742   9.793   6.394 -0.1417  0.0815 -0.2520
10952W        W27213  11.170   2.305   4.718 -0.2777 -0.0205 -0.3297
10953W        W27214  17.602   0.633  11.658 -0.2089  0.1355  0.1325
10954W        W27215   7.705  14.048   2.470  0.1078 -0.2244 -0.0879
10955W        W27216  17.171  15.946  15.719 -0.0383  0.0731  0.1272
10956W        W27217  10.470   7.514  16.907 -0.3307  0.2255 -0.0128
10957W        W27218  12.033  11.022   2.512 -0.1318 -0.2540  0.0153
10958W        W27219  12.674  12.108  13.442  0.1516 -0.0938  0.2760
10959W        W27220   6.632  16.948  16.832  0.0944  0.0891 -0.0773
10960W        W27221  14.740   4.143   0.087  0.2601 -0.0251 -0.1299
10961W        W27222   2.410   9.087  16.646 -0.2975  0.2289  0.1452
10962W        W27223   3.146  10.466   1.712  0.0293 -0.0093  0.0441
10963W        W27224   9.426   7.625  15.389 -0.3723 -0.2986 -0.1634
10964W        W27225   1.118   9.747   6.408 -0.0982  0.0661  0.1149
10965W        W27226   9.143   7.604   6.130  0.0620 -0.1885 -0.4642
10966W        W27227   6.565   7.647  12.671 -0.4231 -0.1055 -0.1427
10967W        W27228  13.014   0.964   5.346 -0.3012  0.1666  0.1394
10968W        W27229   6.108   2.901  12.324  0.1958 -0.0475 -0.1476
10969W        W27230  12.481  14.069   3.262 -0.2059  0.0812 -0.0858
10970W        W27231   4.143   9.769  15.010 -0.0833 -0.1901  0.4446
10971W        W27232  10.614   9.094   4.118  0.3361  0.1446  0.2423
10972W        W27233   0.185   5.030   5.199 -0.2888  0.0838 -0.0556
10973W        W27234  12.969  17.703  16.824 -0.0334  0.2382  0.2238
10974W        W27235   9.867   5.057  16.268  0.2440 -0.0510  0.2218
10975W        W27236   7.771   2.559  12.857  0.2313  0.4374 -0.2365
10976W        W27237   7.497   7.969   0.867  0.1861  0.4430 -0.0437
10977W        W27238   3.194   6.544  12.903  0.0711  0.1048  0.1539
10978W        W27239  14.313   8.131   2.959 -0.1184  0.1259 -0.0797
10979W        W27240  12.620   7.572  14.069  0.1518 -0.0205 -0.0922
10980W        W27241   8.315   3.853  12.977 -0.3179  0.1268  0.0910
10981W        W27242  11.730   3.299  12.632  0.3189 -0.1181  0.2307
10982W        W27243   5.373   1.995   0.059  0.1313  0.1043 -0.1206
10983W        W27244  13.186  12.834  13.733 -0.3319  0.0086 -0.0381
10984W        W27245   9.164  11.442   1.326  0.1707 -0.2561 -0.0426
10985W        W27246  16.430   1.647   1.628 -0.0409 -0.2616 -0.0771
10986W        W27247  11.121   2.298  15.239 -0.0523 -0.2381  0.0862
10987W        W27248   3.164   1.157   6.176  0.2285 -0.0194  0.0666
10988W        W27249  15.042   3.368  12.551 -0.0410 -0.2870 -0.2997
10989W        W27250   6.467   5.282   1.352 -0.1001 -0.2621 -0.0051
10990W        W27251   4.540   6.318   3.787  0.0213 -0.1985  0.1241
10991W        W27252  11.293  16.672  14.715 -0.0133 -0.2787  0.0555
10992W        W27253   7.425   3.582  11.927 -0.1142 -0.1848  0.0121
10993W        W27254   5.788  12.187   4.047 -0.0735  0.1100  0.0227
10994W        W27255  13.011  13.827   4.307 -0.1303  0.0499  0.0910
10995W        W27256   2.697   6.481   5.903  0.1999 -0.1873  0.0484
10996W        W27257  16.648   6.174  11.700 -0.1393 -0.0095 -0.2610
10997W        W27258   5.577  15.683   0.247  0.0200  0.0092  0.1422
10998W        W27259   6.615  10.635   4.654 -0.0155 -0.0407  0.0649
10999W        W27260  13.783   1.218  14.848 -0.0819 -0.1834 -0.1869
11000W        W27261  13.817  14.360  16.519  0.2149  0.2789 -0.0009
11001W        W27262  13.580   8.404  15.613 -0.1253  0.1537 -0.1893
11002W        W27263   0.829   0.163  14.450  0.2421  0.1571  0.0782
11003W        W27264  17.254   8.820  13.430  0.0037  0.0202  0.2274
11004W        W27265  17.702   9.101  12.292 -0.1141 -0.1425 -0.0165
11005W        W27266  17.669   3.355  13.549  0.0935  0.1256 -0.1094
11006W        W27267   3.525  14.568   4.252 -0.1253  0.1076  0.0669
11007W        W27268  14.946   5.134  11.807  0.3889  0.1914  0.2322
11008W        W27269   1.306   1.035  14.550 -0.0301  0.4899 -0.0600
11009W        W27270   1.796   6.612  14.169 -0.1957  0.2627  0.3369
11010W        W27271  12.938   8.821  11.498 -0.0601  0.0212  0.0403
11011W        W27272   8.281   7.785   4.144  0.2386 -0.2114 -0.0884
11012W        W27273   2.767   6.573  14.406  0.0728 -0.0045  0.1193
11013W        W27274   2.612   4.475   4.793  0.2547 -0.2472  0.0351
11014W        W27275   6.274  11.599   6.066 -0.0082 -0.1773  0.2291
11015W        W27276   0.809   0.549   5.104  0.1582  0.2445  0.1030
11016W        W27277  10.836   1.492  11.932  0.1159  0.1505  0.0809
11017W        W27278  13.748  12.305   5.501  0.0667 -0.0187 -0.2220
11018W        W27279   3.218  12.345  16.346 -0.0799  0.2604  0.0564
11019W        W27280  11.002   0.371   1.447 -0.0993  0.1186 -0.0968
11020W        W27281   2.628  10.189  15.547  0.0228  0.1612  0.0569
11021W        W27282  12.952  11.070  16.116  0.2408  0.0883  0.2729
11022W        W27283   1.808  17.179   5.873 -0.2120 -0.2043  0.0450
11023W        W27284   3.366   9.762   4.055 -0.1506  0.0157 -0.0121
11024W        W27285   6.989   3.693  16.295  0.0043  0.0683 -0.0965
11025W        W27286   8.066  14.835   5.331  0.4192 -0.2263  0.0850
11026W        W27287  12.672   9.562  16.868  0.1577  0.1154 -0.0903
11027W        W27288   2.251   1.517   5.260 -0.0146 -0.4053 -0.1627
11028W        W27289   7.023   5.626  16.668  0.2499  0.1015  0.1032
11029W        W27290  10.674  11.696  16.850 -0.0311  0.2735  0.0082
11030W        W27291   8.708  14.272   1.343  0.2161  0.2202  0.1615
11031W        W27292   8.973  17.353  12.754 -0.1380  0.0204  0.0996
11032W        W27293   8.240   5.925   0.360 -0.1875  0.0909  0.1883
11033W        W27294  11.479  16.199   3.591  0.1043  0.0263  0.1865
11034W        W27295   6.753  16.527  14.020  0.4826 -0.0689  0.2504
11035W        W27296  10.808  15.854   1.964 -0.1626 -0.1299  0.1087
11036W        W27297   3.424   9.056   4.407 -0.0414 -0.3046 -0.4194
11037W        W27298   4.399  17.811   1.576 -0.0101  0.0637 -0.0866
11038W        W27299   3.361   4.916   0.690 -0.0023  0.2399  0.2031
11039W        W27300   8.348   2.111   0.013  0.1571  0.1521 -0.0242
11040W        W27301   0.068  17.151  14.885  0.0153  0.1905 -0.2359
11041W        W27302  14.383   3.257  16.473 -0.0034  0.0114  0.4256
11042W        W27303   0.327  17.591  13.848  0.1151 -0.4228  0.0789
11043W        W27304  12.436   6.323  13.921 -0.3010 -0.1250  0.0577
11044W        W27305  10.163   3.673   3.669 -0.1010  0.3169 -0.0780
11045W        W27306   7.424  12.008  15.565  0.0990  0.0076 -0.2251
11046W        W27307   3.493  15.829  12.809 -0.0557  0.0727 -0.1056
11047W        W27308   0.908   8.127  13.070 -0.1014  0.0639  0.1196
11048W        W27309   9.229   3.243   2.135 -0.1373 -0.3904  0.0129
11049W        W27310   2.741   3.931  14.805 -0.2029 -0.2207  0.0467
11050W        W27311   2.903   7.496   4.705  0.0898 -0.1548 -0.0004
11051W        W27312  10.752   2.553  11.316  0.1498  0.1591 -0.0139
11052W        W27313   4.995   8.818  15.622  0.4083  0.1743  0.1337
11053W        W27314  14.959   4.664  12.538  0.1053  0.2465 -0.0857
11054W        W27315   6.364   4.498  15.192  0.1632 -0.1545 -0.0838
11055W        W27316  14.312  11.178   2.829  0.2954  0.0633  0.3416
11056W        W27317  14.843  13.420   1.685 -0.0270 -0.2109 -0.2802
11057W        W27318   8.871   0.270   3.175 -0.0686  0.3033 -0.0416
11058W        W27319   3.154   2.420  15.227 -0.2524 -0.4070 -0.0824
11059W        W27320   6.486  14.968   4.835  0.1431  0.2899 -0.1165
11060W        W27321  11.678   1.816   2.446 -0.2217 -0.4910  0.4247
11061W        W27322  10.897   0.214   0.619 -0.1335 -0.3402 -0.3921
11062W        W27323  10.155  13.902   6.621  0.2202 -0.0248  0.1572
11063W        W27324   8.884  15.608   1.866  0.3658 -0.1821  0.4096
11064W        W27325   9.388   4.999  15.473  0.1353 -0.1245  0.0274
11065W        W27326   0.941   4.813  13.879  0.0089 -0.2060 -0.0587
11066W        W27327   6.985  11.735   3.666  0.1730 -0.2582 -0.1408
11067W        W27328  17.520  17.474  11.834  0.0053 -0.1442  0.0844
11068W        W27329   9.259  17.055  14.377 -0.0986  0.0863 -0.0833
11069W        W27330  16.130   2.080  15.890  0.3307 -0.0294 -0.1579
11070W        W27331  14.364   2.829   2.102 -0.2646 -0.2203  0.1089
11071W        W27332  12.517   0.975   0.410 -0.0208 -0.3434 -0.1857
11072W        W27333  15.611  11.143   1.899 -0.1238  0.3880  0.1884
11073W        W27334  11.117  12.907  16.577  0.2602  0.0403 -0.0105
11074W        W27335   0.254   4.754   6.651 -0.2810  0.1384  0.0605
11075W        W27336  17.777   6.143   5.132  0.2487  0.1276  0.2699
11076W        W27337  17.806  12.173   5.182  0.0418  0.1716 -0.0317
11077W        W27338   9.065   1.349  11.546  0.0773 -0.2913  0.1582
11078W        W27339  10.920  13.750  16.704  0.0088 -0.1089 -0.2006
11079W        W27340   7.671   3.951   0.897 -0.1516 -0.3543  0.1807
11080W        W27341   2.573   3.005   2.680  0.0814 -0.0299  0.1038
11081W        W27342   9.349  13.935   1.587  0.0631  0.4279  0.0829
11082W        W27343  12.958   9.793   4.682  0.3415  0.0788 -0.1094
11083W        W27344  10.798   0.851   3.704  0.2143 -0.0403  0.0406
11084W        W27345  13.924   8.573   0.099  0.1510 -0.0675 -0.0090
11085W        W27346   6.418  16.237   1.586  0.1793 -0.0768 -0.2348
11086W        W27347   5.050  12.151  14.173 -0.0037  0.0945 -0.0605
11087W        W27348  12.045  14.012  13.214 -0.0214  0.0361  0.0922
11088W        W27349   5.593   8.670   3.695 -0.0550 -0.2390  0.1281
11089W        W27350   2.283  15.973   1.411  0.0232  0.0056  0.2616
11090W        W27351  10.861   8.341  13.295  0.2050  0.1630 -0.1467
11091W        W27352  11.034   2.512   0.543  0.0146 -0.1299 -0.2345
11092W        W27353   8.082  11.635  16.613 -0.0407  0.0292 -0.0569
11093W        W27354   6.318   7.913   2.811 -0.0661  0.0070 -0.0694
11094W        W27355  11.402  13.688  12.999  0.0417 -0.3336 -0.3032
11095W        W27356  11.302  10.549  13.365 -0.0936  0.2015  0.1083
11096W        W27357   3.422   2.454  13.393  0.1396 -0.1984  0.0431
11097W        W27358  17.693  11.370   0.932 -0.1693 -0.1374  0.1529
11098W        W27359  10.444   2.333   5.560  0.1555  0.0690 -0.0686
11099W        W27360   8.202   2.171  16.462  0.1613  0.0961 -0.0949
11100W        W27361   7.232   8.597   1.541 -0.2099 -0.1690  0.3297
11101W        W27362   4.183  12.586  15.949 -0.0222  0.1731  0.0290
11102W        W27363  16.085   8.415   5.776 -0.1796 -0.0244 -0.2951
11103W        W27364  13.657  13.422  14.302  0.0616 -0.0228  0.1890
11104W        W27365   7.941   6.973   1.635 -0.0457  0.2597  0.0370
11105W        W27366   9.296  15.575   4.741  0.3342  0.1294  0.3347
11106W        W27367   8.374  12.329   2.145 -0.1497  0.2841 -0.1671
11107W        W27368   5.236   6.219   2.267  0.0137  0.1037 -0.0029
11108W        W27369  11.050  13.076  12.432 -0.0828 -0.0970  0.0143
11109W        W27370   8.948   5.312   4.023  0.1521  0.0092 -0.0387
11110W        W27371  11.025   0.364  16.915  0.2068  0.1942 -0.0415
11111W        W27372   1.126   7.342   5.252 -0.0322  0.0939  0.2740
11112W        W27373   1.528  16.223  12.036 -0.3330  0.3363 -0.0123
11113W        W27374  14.873   2.855  15.097 -0.1633 -0.1859  0.2277
11114W        W27375   8.408  10.920   2.174  0.0270 -0.1087 -0.1809
11115W        W27376  15.771   7.195  14.813 -0.0027 -0.2684  0.1113
11116W        W27377  11.174  14.713   5.582  0.4859  0.3167 -0.1799
11117W        W27378   2.286  12.303   1.670 -0.0757 -0.0092 -0.1557
11118W        W27379   2.014   5.627  15.206 -0.4090  0.1955 -0.0572
11119W        W27380   5.920   6.431   1.010 -0.0838  0.0235 -0.1117
11120W        W27381   4.615  12.492  16.874  0.2467  0.2836  0.3041
11121W        W27382   2.915  12.409  14.970  0.0340  0.3980 -0.2255
11122W        W27383  13.107   6.989   5.298 -0.1520 -0.1754  0.1660
11123W        W27384  14.792  14.820  12.874  0.1620 -0.1997 -0.0224
11124W        W27385   8.350   0.004   1.021 -0.1169  0.1950 -0.0114
11125W        W27386   5.881  14.382  14.661 -0.1050 -0.1780 -0.2100
11126W        W27387  13.338   5.823   4.517 -0.0094 -0.2417  0.0169
11127W        W27388   2.034   3.113  15.154 -0.1977  0.3824 -0.0203
11128W        W27389   1.120   9.842  16.459  0.0858 -0.1017  0.0018
11129W        W27390  15.367   8.604   1.170  0.2575 -0.2810 -0.0348
11130W        W27391  17.843   3.560   0.256 -0.1016 -0.1954  0.0280
11131W        W27392  13.193   9.658  11.240 -0.2281  0.1202 -0.2158
11132W        W27393   9.608   2.178   5.954 -0.2631 -0.3218 -0.1200
11133W        W27394  16.113   6.396   3.053 -0.4741 -0.1169  0.5064
11134W        W27395  12.967  17.521   3.708  0.0414 -0.2940 -0.1026
11135W        W27396   2.136   7.225   0.533 -0.2484  0.1254  0.1492
11136W        W27397   2.452   5.307   1.055 -0.0753  0.0728 -0.1028
11137W        W27398   8.334   8.203   4.430 -0.1141 -0.1877  0.1281
11138W        W27399   7.663   6.573  12.373 -0.1751  0.0013 -0.1155
11139W        W27400  12.349   9.439  11.125 -0.3043 -0.1090 -0.0104
11140W        W27401  12.316  11.613   3.726 -0.0173 -0.0630  0.0490
11141W        W27402   2.368  12.213   4.756  0.3114 -0.0609 -0.1000
11142W        W27403  11.692   3.368   0.166 -0.0801  0.0321 -0.2104
11143W        W27404   0.500   1.764   2.230 -0.0093 -0.0863 -0.2132
11144W        W27405  16.558  16.675   0.518  0.0317 -0.1519 -0.0599
11145W        W27406  14.141  10.544   0.980 -0.0568 -0.0985  0.1074
11146W        W27407   2.618   1.587  14.921  0.0750 -0.0755 -0.1719
11147W        W27408   3.017   2.675  11.927  0.0081 -0.0807  0.0092
11148W        W27409  17.568   0.685   5.172 -0.2872  0.1220 -0.1221
11149W        W27410  11.128   8.163   3.151  0.0631 -0.1775  0.1688
11150W        W27411  12.490  13.106   3.180  0.2776  0.1619 -0.2851
11151W        W27412   2.730   1.227  14.507 -0.2357  0.0769  0.0622
11152W        W27413   6.302  10.236   4.439  0.1137  0.0997 -0.0087
11153W        W27414  13.851   9.694  15.358  0.2226 -0.0597 -0.3317
11154W        W27415  17.114   7.689   3.899  0.0200 -0.0449  0.1882
11155W        W27416  10.694   7.510   1.151 -0.0149 -0.1611 -0.0272
11156W        W27417   1.122   1.129  13.645  0.2026 -0.0324  0.0370
11157W        W27418  10.483  17.504  16.521  0.2078 -0.2136 -0.1903
11158W        W27419   9.129   7.359   4.935  0.4321 -0.1399 -0.0237
11159W        W27420  12.941   6.361  16.304 -0.0573 -0.0000 -0.0023
11160W        W27421  16.738   0.591  12.484  0.2047 -0.1488  0.1420
11161W        W27422  10.649  11.409  12.136  0.2768  0.1484 -0.2882
11162W        W27423  13.188   3.385   5.156  0.2446  0.1020 -0.1461
11163W        W27424   1.456   7.069  15.822  0.1958  0.2886 -0.0172
11164W        W27425  13.489   0.590  12.664 -0.2309 -0.0349  0.1301
11165W        W27426  16.724  14.092   1.579 -0.2127 -0.0311  0.1718
11166W        W27427   8.567   6.450  16.082  0.1077  0.1019  0.1558
11167W        W27428  14.724  16.508   4.086 -0.0305 -0.0428 -0.0971
11168W        W27429   9.004   8.817  13.378 -0.1206 -0.0119 -0.0071
11169W        W27430   7.747  17.491   1.513  0.0022 -0.0036  0.1928
11170W        W27431   1.134  14.700  12.168  0.0188  0.1033  0.1246
11171W        W27432   2.097   1.828  12.255 -0.0389  0.0331 -0.0563
11172W        W27433  17.030  10.115  13.206 -0.3072 -0.0142  0.0722
11173W        W27434   7.749   0.610   3.946  0.0367 -0.3035 -0.1248
11174W        W27435   4.059   9.167   1.630  0.0732 -0.2781  0.0318
11175W        W27436  13.358  14.846   3.018  0.1631 -0.3053 -0.3672
11176W        W27437   2.805  15.606   0.353 -0.3568 -0.1817 -0.0562
11177W        W27438   2.199  15.003   0.923  0.2142  0.2294 -0.0932
11178W        W27439   9.912   6.958  11.700 -0.2296 -0.0132 -0.1721
11179W        W27440  12.218   5.113  16.504  0.1650  0.0918 -0.1820
11180W        W27441  10.957   2.301  12.106  0.2032  0.0423 -0.2181
11181W        W27442  11.160   8.369  10.249  0.0593 -0.0887 -0.0424
11182W        W27443   6.947   4.918  13.531 -0.2652 -0.2674 -0.3612
11183W        W27444   3.708   3.399   4.717 -0.1712  0.3726  0.1504
11184W        W27445   8.923  10.910   1.420  0.1244 -0.0036  0.0660
11185W        W27446   4.025  13.509  13.003 -0.0728  0.1313 -0.0355
11186W        W27447  11.411  10.607  14.888  0.1428 -0.1344  0.1552
11187W        W27448   5.793   5.771   1.049 -0.0933  0.0440 -0.2231
11188W        W27449   1.814   7.358  15.444  0.2401 -0.0380  0.3374
11189W        W27450   4.843   7.147   1.744  0.1473  0.0275  0.0106
11190W        W27451   7.949   8.816   0.514  0.1332 -0.1989 -0.0107
11191W        W27452   4.358   5.978   4.752  0.0433 -0.2588  0.0532
11192W        W27453  17.078  10.478  15.387 -0.0103  0.1189  0.2187
11193W        W27454   6.619  13.232  16.121 -0.1875  0.0684 -0.1053
11194W        W27455   0.056  11.984   1.209  0.2423 -0.1873  0.1221
11195W        W27456   4.600   3.038   2.785 -0.0454  0.1209  0.1085
11196W        W27457   7.011   2.400   0.675 -0.3747  0.1255 -0.0728
11197W        W27458   4.668   0.767   1.564 -0.0479 -0.1249 -0.1137
11198W        W27459  12.531  16.177   4.384 -0.1282  0.1057 -0.0741
11199W        W27460   3.533   5.798  12.875  0.0368  0.2735 -0.0499
11200W        W27461  17.801  17.145   1.296  0.2296 -0.1951 -0.0150
11201W        W27462  14.801  16.994   2.095  0.1998  0.1297 -0.0840
11202W        W27463   2.911   4.954  15.917  0.3509 -0.0656 -0.0606
11203W        W27464   6.052  15.166   4.583 -0.3212 -0.0329 -0.3932
11204W        W27465   9.197   9.634  16.897 -0.1505 -0.1326 -0.0085
11205W        W27466   8.482   3.782   5.667 -0.0541 -0.4403  0.0618
11206W        W27467   9.214   4.930  16.895 -0.0840  0.0226 -0.0630
11207W        W27468  11.792  11.280  15.405  0.0085 -0.0173  0.0100
11208W        W27469   8.587  11.317   5.511 -0.0759 -0.1127  0.1349
11209W        W27470   4.769  12.217  13.658 -0.1540  0.0870 -0.2157
11210W        W27471  14.461   4.296  14.642 -0.3046 -0.0214  0.0830
11211W        W27472  16.140   7.055  15.079 -0.2645  0.4876 -0.3112
11212W        W27473  16.350   1.281   0.142 -0.2308 -0.5180  0.0824
11213W        W27474   6.913   8.628   4.238 -0.1692 -0.0611 -0.2654
11214W        W27475  11.804   9.822   4.227  0.4486 -0.0685 -0.0686
11215W        W27476   9.788  14.402  13.841 -0.1084  0.3062 -0.0724
11216W        W27477   5.261  15.477   1.672 -0.2813 -0.3900 -0.3839
11217W        W27478   3.401   3.335   1.191 -0.1281  0.0323 -0.0506
11218W        W27479   3.103   2.888  13.263 -0.0081  0.2495  0.4003
11219W        W27480  16.018   6.763   2.199  0.0175 -0.1135  0.1864
11220W        W27481   1.763   3.479   3.631  0.2422  0.0071  0.0465
11221W        W27482   0.508   8.587   4.941 -0.0299 -0.3525  0.0147
11222W        W27483  17.357  16.815   0.366 -0.0219 -0.1284  0.1186
11223W        W27484  11.580  14.041   4.526 -0.0798  0.2636  0.2615
11224W        W27485   2.871  10.388   5.242 -0.4514  0.0846 -0.0260
11225W        W27486  10.530  12.172  15.048  0.0222  0.0713  0.0020
11226W        W27487   4.292   0.228   4.283  0.3995 -0.0738  0.1944
11227W        W27488   6.441  13.004   2.521  0.0871  0.0856  0.2104
11228W        W27489  16.551   5.496   5.862 -0.3413 -0.2951  0.0111
11229W        W27490  15.456   8.694  12.228  0.0404 -0.2415 -0.1120
11230W        W27491  14.477   5.481  15.251 -0.0262  0.2203 -0.0336
11231W        W27492  12.246   7.601   2.594  0.2213  0.1982 -0.0690
11232W        W27493   1.637  14.579  12.210  0.0295 -0.1240 -0.1776
11233W        W27494   2.052  10.785   5.650  0.0546  0.2120 -0.0819
11234W        W27495   8.671   9.789  11.948 -0.1975  0.2232  0.1593
11235W        W27496   6.227  16.550  14.105 -0.0382  0.0079 -0.1327
11236W        W27497  13.873  11.877   1.844  0.0573  0.0165 -0.0871
11237W        W27498   9.252   8.795   3.202  0.0634  0.0568 -0.0297
11238W        W27499   6.152  16.204   5.409 -0.2877  0.1456  0.2075
11239W        W27500   5.184  12.452   4.953  0.4795  0.1918  0.1692
11240W        W27501   9.059  12.061   2.589  0.1746  0.0095 -0.2017
11241W        W27502   1.806  13.092   3.191  0.0619 -0.0155 -0.0453
11242W        W27503   0.623   8.358   0.766 -0.0550 -0.0280  0.2697
11243W        W27504   8.407  16.447  10.943  0.1597  0.1150 -0.3756
11244W        W27505  11.462   8.042  16.337  0.3003  0.0233 -0.1878
11245W        W27506  17.105   3.793  14.194  0.1982  0.1267  0.0550
11246W        W27507   6.659   7.311  15.636  0.2571  0.2378 -0.1045
11247W        W27508   2.522   9.564   4.568  0.2289  0.1545  0.0784
11248W        W27509   1.311   1.571   0.809 -0.1198  0.2106 -0.0888
11249W        W27510  14.144   1.488   1.114 -0.1157  0.1612  0.2647
11250W        W27511  10.312  17.551  15.460 -0.0893 -0.0442 -0.1039
11251W        W27512  12.751  10.942  12.330  0.0658  0.2725  0.1747
11252W        W27513   2.072   0.702   0.119 -0.0960  0.0519  0.0293
11253W        W27514  17.046  15.262   4.295  0.0038  0.0041  0.0411
11254W        W27515   4.101   8.324  14.349 -0.0776  0.1748  0.3048
11255W        W27516  14.092   4.858   0.172 -0.0177 -0.2931 -0.3156
11256W        W27517   3.593   0.777   3.062  0.0961 -0.1350  0.0268
11257W        W27518   5.068   7.315  12.177 -0.1934  0.1593  0.0676
11258W        W27519   5.560   0.532   5.183  0.1716  0.1938  0.0316
11259W        W27520  13.767  14.479  13.414 -0.3066 -0.0763 -0.0853
11260W        W27521  14.765   1.997  16.676  0.2758  0.0658 -0.2484
11261W        W27522   6.333  16.112  11.894 -0.0364 -0.0946 -0.1145
11262W        W27523   7.604  17.575  13.065  0.3557 -0.1332  0.3919
11263W        W27524  11.148  14.445   1.622  0.1717 -0.1267  0.0952
11264W        W27525  15.631   4.252   0.639  0.0167 -0.1361 -0.4079
11265W        W27526   7.407   9.769  13.210 -0.0502 -0.0886 -0.0472
11266W        W27527   8.831   7.818   4.212 -0.0902 -0.0920  0.4766
11267W        W27528   5.038  14.253   2.170 -0.0785 -0.0756 -0.2316
11268W        W27529  11.993  17.532  12.365  0.0842 -0.0501  0.1045
11269W        W27530  17.552  11.695   5.295  0.2403 -0.0341 -0.1481
11270W        W27531   4.067   2.787   1.567  0.1432 -0.2300  0.3468
11271W        W27532  12.383   4.699   2.940  0.1862  0.0388  0.0475
11272W        W27533   4.018  14.305   0.111  0.0256  0.0309 -0.1378
11273W        W27534  14.273  11.685  15.978  0.0707 -0.1278 -0.0110
11274W        W27535   6.021  11.884   3.732 -0.1096  0.0225  0.1952
11275W        W27536  15.013   4.537  13.407 -0.0995 -0.1250  0.2350
11276W        W27537  16.566  11.681   0.388 -0.1499  0.0113 -0.0677
11277W        W27538   2.030   4.260   5.458  0.3712 -0.0235  0.3782
11278W        W27539  14.444  10.061  15.848  0.2369  0.1434 -0.0917
11279W        W27540  12.041  11.475   5.679  0.2503 -0.0696  0.0490
11280W        W27541  12.915   3.717  12.670  0.0444 -0.1271 -0.1423
11281W        W27542  10.715  11.426   1.766  0.0510 -0.1969 -0.0361
11282W        W27543   8.527  16.447   3.151  0.0279  0.1757 -0.1196
11283W        W27544  16.369   8.453   2.933 -0.0454  0.0550 -0.1572
11284W        W27545  12.252   1.134  11.949  0.2329  0.1130 -0.0633
11285W        W27546  11.006  10.792  12.935 -0.1249 -0.0146 -0.1977
11286W        W27547   5.522  15.769  16.421  0.0988 -0.1812  0.2672
11287W        W27548  14.752  15.345   2.011  0.0841 -0.0576  0.2316
11288W        W27549  13.596   5.727   3.357 -0.3313 -0.0192 -0.0934
11289W        W27550   1.930   6.328   5.446  0.1787  0.0649  0.1434
11290W        W27551  11.423   0.003   2.883  0.1562 -0.0738  0.1667
11291W        W27552   3.038   6.995  15.133  0.2776  0.1547 -0.0973
11292W        W27553  12.086   9.951   1.789 -0.0497 -0.3527 -0.1528
11293W        W27554   4.801  17.537  13.478  0.0416  0.0867  0.2000
11294W        W27555   8.625  10.400   0.238  0.2577 -0.1030  0.2220
11295W        W27556   7.210  16.291   1.860 -0.3519 -0.3033 -0.0354
11296W        W27557   0.962   5.157   3.585  0.3594 -0.0607 -0.1813
11297W        W27558   4.850   0.444   1.215 -0.2747 -0.0322 -0.1815
11298W        W27559   1.319   6.796   5.688  0.1828 -0.0642  0.1147
11299W        W27560   0.571   5.977   1.431 -0.0173 -0.1151 -0.1200
11300W        W27561  12.593   4.857   1.084 -0.0019  0.0080  0.1018
11301W        W27562   6.464   8.495  12.271  0.0342  0.2596 -0.2568
11302W        W27563   0.516  15.379  12.541  0.1261 -0.2869 -0.2064
11303W        W27564   8.858  15.864  13.007 -0.3054 -0.0175 -0.0777
11304W        W27565   9.421   2.545   3.656 -0.1675  0.1899  0.4181
11305W        W27566   5.143   3.303  16.441  0.1928  0.0679  0.0548
11306W        W27567   2.479  10.378  16.380 -0.2305  0.0443  0.1103
11307W        W27568  15.702  11.295   6.008  0.0198 -0.0819  0.1093
11308W        W27569   7.329  11.810   4.321 -0.3183 -0.1273 -0.2120
11309W        W27570   4.728   6.694   2.086  0.0603 -0.1947  0.0615
11310W        W27571  15.341   9.385   4.381  0.3727 -0.1376  0.0365
11311W        W27572  12.077  10.412   2.246 -0.4017  0.1183  0.2063
11312W        W27573   4.460   5.087  14.122  0.0695 -0.1272  0.1649
11313W        W27574   7.643  17.057   5.588  0.0360  0.0509  0.0811
11314W        W27575   3.480   9.334   4.960  0.0671 -0.2342  0.1281
11315W        W27576  12.734   1.410  12.085  0.0564  0.0123 -0.0069
11316W        W27577   4.869   8.572  14.461 -0.0511 -0.0824 -0.0803
11317W        W27578   7.204  16.237   0.880 -0.1022 -0.0341 -0.0087
11318W        W27579   1.254   5.798  13.516  0.3454 -0.1573  0.0848
11319W        W27580  15.273  15.668   2.660 -0.0034 -0.0794  0.1597
11320W        W27581   5.401   5.658   2.533  0.0896 -0.0019 -0.0014
11321W        W27582  11.869  11.432   2.958  0.2466 -0.1776  0.1906
11322W        W27583  16.967  11.836  13.389  0.3047 -0.1872  0.3089
11323W        W27584  11.356   7.420  14.584 -0.0156 -0.1107 -0.1900
11324W        W27585   2.499  15.836  15.118 -0.0460  0.2310 -0.0651
11325W        W27586  11.871  15.946  12.390  0.4297 -0.0411 -0.1336
11326W        W27587   8.585  11.859   1.293  0.0892 -0.2827 -0.0957
11327W        W27588   9.685  11.912  15.403  0.2486  0.1165  0.1552
11328W        W27589   4.505   2.875  15.759  0.0479  0.1779  0.0884
11329W        W27590   1.060  13.454   2.684 -0.1541 -0.2637 -0.2390
11330W        W27591   7.408   1.784   1.223  0.0482  0.3522  0.1241
11331W        W27592  12.975   3.892   2.019 -0.1326 -0.4118 -0.2829
11332W        W27593  12.219   3.202   0.597  0.0209  0.1859  0.1910
11333W        W27594  12.080   9.454  16.842  0.0405 -0.1756  0.0840
11334W        W27595  12.328   7.464   3.236 -0.2021  0.1779 -0.1204
11335W        W27596   1.091   2.540  16.244  0.0136 -0.2380  0.0184
11336W        W27597   3.591  12.822  16.561  0.0055  0.1300 -0.0644
11337W        W27598   2.185   5.065  12.734 -0.2350  0.1748  0.0556
11338W        W27599  17.226   7.018   5.197  0.0208  0.1083 -0.1101
11339W        W27600   6.039  15.569  13.820 -0.2009 -0.1998 -0.0019
11340W        W27601   8.395   9.070  15.068  0.0532  0.1373  0.0315
11341W        W27602   7.886  12.561   0.772  0.0437 -0.1172 -0.1103
11342W        W27603  11.877  13.503  16.435  0.1991 -0.0172  0.1801
11343W        W27604  11.669   0.446  12.595  0.2012  0.1076 -0.0868
11344W        W27605  11.598   4.647  14.635  0.0466  0.0270  0.0277
11345W        W27606   7.827  17.175   2.793  0.2612  0.0221  0.0923
11346W        W27607  15.189   5.968   0.705  0.0722 -0.0845  0.0363
11347W        W27608   1.115  17.006   0.567  0.0892 -0.0208 -0.1379
11348W        W27609  15.561  10.480   4.145 -0.2912 -0.0734 -0.0551
11349W        W27610  17.578  14.227   3.163 -0.3038  0.3316 -0.1369
11350W        W27611   7.546   5.162   2.569  0.0560  0.0566  0.0020
11351W        W27612  16.632   7.357   3.029 -0.3027  0.2264  0.0164
11352W        W27613  13.754   3.450  13.868  0.0974 -0.3998 -0.1501
11353W        W27614   2.475  14.446   0.472  0.2943  0.2639 -0.0186
11354W        W27615  12.473  17.455   1.614  0.0934  0.2106  0.0078
11355W        W27616   5.855  14.559   6.089 -0.2663  0.1679 -0.2195
11356W        W27617  15.475   1.060  15.173  0.0978  0.1037 -0.1308
11357W        W27618   2.250   6.645   0.134  0.1824 -0.1552 -0.2378
11358W        W27619   4.008   4.819  14.269  0.1843 -0.1678  0.1077
11359W        W27620   0.184   0.191   2.096 -0.2675 -0.1035 -0.1154
11360W        W27621  13.622   3.633   2.981  0.0667 -0.0338 -0.0764
11361W        W27622  14.205  12.444   0.023  0.0391  0.1681  0.1979
11362W        W27623  12.898   2.027   1.547  0.1256  0.3184 -0.4832
11363W        W27624   7.297  17.192  12.063  0.1828  0.2335 -0.1904
11364W        W27625   9.214   1.346  15.183  0.1174 -0.1687  0.0692
11365W        W27626  17.094  12.077   2.497  0.2947  0.1250  0.4050
11366W        W27627   5.122   0.384  12.462  0.0127  0.1770 -0.0976
11367W        W27628   5.111   3.491  13.730 -0.0102  0.2012 -0.0427
11368W        W27629  12.677  15.103   1.572 -0.0499  0.1313 -0.1941
11369W        W27630  15.026   1.745  14.030 -0.1393 -0.0350 -0.0641
11370W        W27631  11.223  11.014   3.697  0.2503 -0.2490 -0.2882
11371W        W27632  12.407  11.330   6.001  0.2803 -0.0279 -0.0554
11372W        W27633   4.533  14.698  16.323  0.2078 -0.2866  0.0938
11373W        W27634   1.272   3.039  16.746  0.1576 -0.0490  0.3801
11374W        W27635   2.864   6.572  12.128  0.0481  0.0073  0.1101
11375W        W27636   6.961  12.306   0.167  0.1751  0.0027  0.1626
11376W        W27637  16.682  12.358  15.197  0.1413  0.1120 -0.0227
11377W        W27638   0.611  14.666   2.093  0.3827 -0.1365  0.3539
11378W        W27639  15.842   7.957  16.174  0.2162 -0.1181 -0.0277
11379W        W27640  14.980   1.709   5.305  0.0126  0.0260  0.0586
11380W        W27641   6.526   0.878   0.082  0.1610 -0.1630 -0.0804
11381W        W27642  15.412  12.206  15.130  0.2028  0.1133  0.0093
11382W        W27643   1.626  14.214   0.201  0.0722 -0.1343 -0.0332
11383W        W27644  11.784  17.271   2.711 -0.0073  0.1249  0.1518
11384W        W27645  13.916   7.814   4.556 -0.2576 -0.1098  0.2608
11385W        W27646  14.236   2.005   1.982  0.0099 -0.1522  0.2362
11386W        W27647   2.116   3.114   0.753  0.0491 -0.1538 -0.3000
11387W        W27648   8.887   1.082   5.724  0.0569 -0.1514  0.0343
11388W        W27649  10.100  16.101   0.510 -0.2847  0.0719  0.4843
11389W        W27650   2.248  15.470  12.170  0.5648 -0.0330  0.1335
11390W        W27651  10.214  14.887   1.339 -0.2825  0.1996 -0.3144
11391W        W27652   0.765   9.506   5.584  0.1840 -0.0490 -0.0077
11392W        W27653   7.261  16.548  14.799 -0.3538 -0.2736 -0.1073
11393W        W27654  15.080   6.446   2.095  0.0091  0.2600 -0.0655
11394W        W27655   9.541   6.666  11.882  0.0939 -0.3322 -0.0834
11395W        W27656   1.747   7.297  16.615 -0.3141 -0.0429  0.2144
11396W        W27657   9.413   0.957   3.892  0.1924  0.0876 -0.1692
11397W        W27658   4.895  13.821   4.191 -0.0449 -0.1759 -0.0762
11398W        W27659   2.075   8.841  12.254  0.3573  0.2243  0.0947
11399W        W27660   1.721   0.149  12.670 -0.4560  0.2961  0.1257
11400W        W27661   7.976  17.650   2.860  0.1229 -0.1688  0.1084
11401W        W27662   1.790  14.227  12.519 -0.0475 -0.1029  0.2142
11402W        W27663   3.220   6.990  13.353  0.0200  0.0529  0.0376
11403W        W27664  17.657   2.357   2.168 -0.1493 -0.0211  0.1701
11404W        W27665  11.268   5.468   0.571 -0.0559 -0.2490 -0.0020
11405W        W27666  14.751   5.681   5.287 -0.0245 -0.2315 -0.2048
11406W        W27667  15.135  12.763   5.691 -0.1571 -0.6473  0.1668
11407W        W27668   5.885  12.991  12.653  0.0168  0.3731 -0.0746
11408W        W27669  13.502   6.552   2.275 -0.2938 -0.0733 -0.2081
11409W        W27670  15.194  17.054  12.603 -0.0217 -0.1910  0.0348
11410W        W27671   4.230  17.761   3.321 -0.0025  0.2306 -0.1129
11411W        W27672   5.330  17.533   1.355 -0.1069  0.2697  0.0286
11412W        W27673   5.252   7.412   2.470  0.0541  0.3901 -0.1104
11413W        W27674  17.421   3.066  12.812 -0.2209  0.0958  0.0150
11414W        W27675   5.835  10.565   6.211  0.1690 -0.1659 -0.0711
11415W        W27676  13.451   2.073  16.689  0.1246 -0.1578 -0.0683
11416W        W27677  10.751   2.935   3.373  0.2538  0.0542  0.1441
11417W        W27678   7.704   4.092  14.002  0.0315  0.0308  0.1294
11418W        W27679   5.262  12.229  13.608 -0.1346 -0.0140  0.3396
11419W        W27680  13.018  11.840   2.403 -0.0409  0.0138  0.2157
11420W        W27681   1.028  13.672   0.097  0.0098  0.2682 -0.1956
11421W        W27682  17.425   7.031  12.955  0.0036  0.0698  0.0712
11422W        W27683   6.838   7.549   5.189  0.1390  0.1032 -0.0988
11423W        W27684  15.494   9.788  12.986 -0.1249  0.0189  0.0130
11424W        W27685   4.813  15.084   5.480  0.2004  0.3530 -0.2745
11425W        W27686  12.752  12.580   6.405 -0.2096 -0.0504  0.0093
11426W        W27687  15.280  15.419  11.597 -0.0239 -0.1253  0.0353
11427W        W27688  14.210   3.649  16.080 -0.1079 -0.0012 -0.2125
11428W        W27689   4.160  10.093   0.485 -0.0474 -0.1165  0.0007
11429W        W27690  17.047   4.387  14.646 -0.1679 -0.0479 -0.1286
11430W        W27691   3.185   1.144   3.971 -0.0481  0.0873 -0.1290
11431W        W27692  15.867  11.764   0.989  0.2142  0.1088  0.3509
11432W        W27693   5.472   1.972   3.609  0.0542 -0.0011 -0.4525
11433W        W27694  13.903   0.619   4.883  0.0755  0.0515 -0.0884
11434W        W27695  17.266   5.663   4.305  0.0554  0.4090 -0.1201
11435W        W27696   2.441  10.696  12.070 -0.0247 -0.0535  0.2567
11436W        W27697   4.528   9.129  15.546 -0.1284  0.0261  0.0544
11437W        W27698   6.602   9.930   0.802 -0.1268 -0.0811  0.1971
11438W        W27699  15.565  12.193   6.002 -0.1911 -0.2800  0.3027
11439W        W27700   7.606  14.557  16.071  0.0422 -0.0405 -0.2465
11440W        W27701  17.747  11.308  13.567 -0.1755  0.1106  0.3171
11441W        W27702  12.532   4.863  12.670 -0.2166 -0.0307 -0.2169
11442W        W27703   1.906  16.791   3.283  0.0027  0.5617 -0.1274
11443W        W27704   1.726   4.497   1.887  0.0282 -0.3616  0.0684
11444W        W27705   0.806   6.329  16.803  0.3051  0.1174  0.2748
11445W        W27706   5.681   6.192  15.915 -0.3177  0.1006 -0.0244
11446W        W27707   1.841   7.884  13.166  0.1789  0.3247 -0.0657
11447W        W27708  17.602   6.163  11.875 -0.0696 -0.0396 -0.0271
11448W        W27709   9.879   8.745   0.284  0.1375 -0.2384  0.1788
11449W        W27710   6.542   3.610  14.338  0.1303 -0.0391 -0.1279
11450W        W27711   1.443  10.936  13.828  0.3881 -0.1469 -0.1754
11451W        W27712   3.615  12.613  13.279 -0.2577 -0.2785  0.0754
11452W        W27713  14.581   3.209  14.868 -0.0827  0.3225  0.1874
11453W        W27714  12.185  14.231  12.716 -0.0576  0.3030  0.1325
11454W        W27715   9.673  11.885  12.621 -0.0191 -0.4378 -0.0482
11455W        W27716   0.232   4.896   5.712  0.2348 -0.0028 -0.0012
11456W        W27717   2.881   6.441   3.336  0.0648  0.1387  0.1555
11457W        W27718  17.710  10.864  15.320  0.0661  0.2282 -0.0334
11458W        W27719   4.763   6.768  15.937 -0.1000 -0.0732 -0.0399
11459W        W27720   3.996   7.957  16.918  0.0892  0.0303  0.0125
11460W        W27721  16.412  16.549   4.209 -0.3204  0.1400  0.2569
11461W        W27722   9.874  13.143   4.472 -0.0056  0.0560  0.1733
11462W        W27723  11.233   6.197  15.034  0.0698 -0.0042 -0.1312
11463W        W27724   9.808   5.152  11.419 -0.2366  0.0325  0.0563
11464W        W27725   3.982  12.597   2.258  0.2026 -0.3127 -0.1056
11465W        W27726  16.315   7.428   3.493 -0.0832  0.1891  0.0748
11466W        W27727   7.208  14.441   2.707  0.1826  0.3041  0.2521
11467W        W27728   6.256   2.242  15.194  0.1507 -0.0812 -0.1742
11468W        W27729   8.237   9.807   3.004  0.0222 -0.3432 -0.0001
11469W        W27730   5.093   2.378  13.884  0.1966  0.1311  0.0564
11470W        W27731   1.858   3.861   4.218  0.0992 -0.0914  0.1592
11471W        W27732   9.208  14.152  16.635 -0.2016 -0.0874  0.2239
11472W        W27733   3.686   7.686   3.514 -0.0201  0.0618 -0.2894
11473W        W27734  10.576  13.655  13.726 -0.1307  0.0437  0.1374
11474W        W27735  10.196   5.181   3.827 -0.2681  0.2225  0.2689
11475W        W27736  10.610  15.975   5.371 -0.0377  0.2398 -0.3163
11476W        W27737   8.330   1.709   2.381 -0.1449 -0.0989 -0.2302
11477W        W27738   3.678  12.696   3.155 -0.0003  0.2083  0.3817
11478W        W27739  12.561  16.193  11.431  0.1920  0.0280  0.0780
11479W        W27740   0.753  11.977   3.933  0.2684 -0.4707 -0.1039
11480W        W27741  17.733  13.853   0.755  0.3999 -0.2180  0.0105
11481W        W27742   3.654  17.500   5.189  0.1222  0.2296 -0.3858
11482W        W27743   6.164   4.840  11.621  0.1649  0.1839 -0.2266
11483W        W27744   0.113   9.317  13.967 -0.1652  0.2207 -0.2939
11484W        W27745   4.047   6.269  13.164  0.0568  0.0004 -0.2703
11485W        W27746  11.794   8.837   1.115 -0.1930 -0.3342  0.2865
11486W        W27747   3.297   1.642  12.801 -0.2506 -0.0918 -0.1396
11487W        W27748   6.157   9.070  11.652  0.1000  0.0478  0.2177
11488W        W27749  15.100  12.297   0.330  0.1980  0.0895  0.3088
11489W        W27750   0.867   9.052  12.374 -0.3426 -0.1294  0.3479
11490W        W27751  14.334   0.978  16.958  0.3852  0.1058 -0.2315
11491W        W27752  15.747   6.639   2.642 -0.0004  0.3635 -0.2057
11492W        W27753  13.297  13.295  14.584 -0.0811  0.0941  0.0676
11493W        W27754  16.809   6.135  14.496 -0.0074  0.2007 -0.2907
11494W        W27755  12.034   5.067   0.407 -0.3364  0.3330  0.2037
11495W        W27756   7.867  16.228   6.278  0.2862  0.0475  0.2827
11496W        W27757   0.703   0.757  12.191 -0.1431 -0.0132 -0.1571
11497W        W27758   0.691   1.837   5.998  0.0890 -0.0237 -0.0996
11498W        W27759  11.253  17.109  13.080 -0.0047 -0.0420  0.1778
11499W        W27760  12.642   7.956  14.404 -0.0135 -0.1643  0.0188
11500W        W27761   2.126  11.096   3.080 -0.0191  0.0512  0.1401
11501W        W27762   0.148  16.919   3.868  0.4237 -0.0867 -0.1265
11502W        W27763   4.497   6.710  12.427 -0.0420 -0.0241 -0.2696
11503W        W27764   0.108   8.080   0.675 -0.3880  0.0813 -0.0663
11504W        W27765   3.278   7.939   4.478 -0.0291 -0.0231 -0.1937
11505W        W27766   3.943   1.531  13.648  0.0433  0.0036 -0.1530
11506W        W27767  14.911   1.248  11.423 -0.1289 -0.2108  0.0413
11507W        W27768  17.048  12.250  11.511  0.1949 -0.0139  0.0792
11508W        W27769   3.413   6.933   4.763  0.1576 -0.3128  0.0614
11509W        W27770   2.789   2.799   0.556 -0.1737  0.0941  0.0446
11510W        W27771   6.212  17.042   5.188  0.2982 -0.0675 -0.1265
11511W        W27772   5.568   0.942  14.321 -0.0164  0.0921 -0.5578
11512W        W27773  17.812  10.566  16.500 -0.2681  0.0810  0.5082
11513W        W27774  17.707   0.031  13.915 -0.1268 -0.1170  0.4726
11514W        W27775   6.632  12.104   3.866  0.2141 -0.0956  0.1497
11515W        W27776  16.094  13.097   1.174  0.0754 -0.4201  0.1153
11516W        W27777   4.773   0.628  12.749  0.1824  0.1530  0.1531
11517W        W27778   0.746   3.190  16.921 -0.3352 -0.0249 -0.0091
11518W        W27779   3.238   4.788   2.183  0.0959  0.3306 -0.1826
11519W        W27780   2.098   6.337  11.572  0.0047  0.4511  0.0410
11520W        W27781  11.398   9.625  15.948  0.1214 -0.1434 -0.0521
11521W        W27782   8.156   7.031  13.021  0.2043 -0.0186 -0.1871
11522W        W27783   8.197  15.273   5.716  0.0591  0.1401  0.2773
11523W        W27784  13.586   4.408  16.521  0.2550  0.0320  0.1333
11524W        W27785   4.885   5.153  13.796  0.1912 -0.1864 -0.2528
11525W        W27786  17.451  14.445  15.766  0.1304 -0.2861  0.1073
11526W        W27787   4.031  12.640  12.446  0.0876  0.1762  0.0401
11527W        W27788  15.915   2.454   0.264 -0.0430  0.2165 -0.3751
11528W        W27789   4.501  12.162  14.127  0.0543 -0.0173  0.1951
11529W        W27790   9.484   5.357  14.181 -0.0148 -0.3096  0.0076
11530W        W27791  12.990   4.230   5.225  0.3397  0.1664 -0.1577
11531W        W27792  14.837  15.277  13.041 -0.1172  0.1235 -0.0810
11532W        W27793   9.035   9.964   1.889  0.0622  0.1039  0.3975
11533W        W27794   8.641   2.795  15.831  0.0360  0.1382 -0.0401
11534W        W27795   0.155   5.619   2.366  0.3015  0.2506 -0.2271
11535W        W27796  10.304   2.034   5.184 -0.0083 -0.1504  0.1143
11536W        W27797  14.657   0.710   0.859  0.1139 -0.0363  0.1036
11537W        W27798   9.729  10.700  11.325  0.0516  0.0154  0.0023
11538W        W27799   6.870   7.492  13.833 -0.3544 -0.0748 -0.0515
11539W        W27800   3.530  12.341   3.728  0.0653  0.0594  0.0794
11540W        W27801  17.279  16.732   5.206  0.1536 -0.1642 -0.2316
11541W        W27802   6.690  12.628  12.076  0.1431  0.3913  0.1899
11542W        W27803  16.409  16.831   5.543  0.4594 -0.0465  0.0497
11543W        W27804  13.971   7.235   6.042  0.0890 -0.0078 -0.0610
11544W        W27805  10.519   5.682  13.742 -0.0233 -0.0049  0.0221
11545W        W27806   7.332   4.316  12.457  0.2107  0.2147 -0.0471
11546W        W27807   5.135   5.826   0.293 -0.0965 -0.2689  0.1307
11547W        W27808  12.416   9.871   4.738  0.0846 -0.2181  0.1042
11548W        W27809   7.806  11.590   5.670  0.0372  0.3142  0.4277
11549W        W27810   9.228  16.830  14.843 -0.2935 -0.2385 -0.0942
11550W        W27811  16.398  17.115  14.368 -0.2635  0.0812 -0.4511
11551W        W27812   1.948  12.663   4.723  0.0343  0.1723 -0.0415
11552W        W27813   2.817  10.177  16.042 -0.0616 -0.1267 -0.3272
11553W        W27814   7.627   7.293   4.181 -0.1303  0.0017  0.2211
11554W        W27815  15.439   9.110  14.597 -0.2553 -0.0992 -0.0761
11555W        W27816  14.434   0.831   0.440 -0.1367  0.1767 -0.2033
11556W        W27817  14.678   0.947  14.564  0.0354 -0.2300 -0.1064
11557W        W27818   0.940   0.533   1.339 -0.6499 -0.1748 -0.0467
11558W        W27819  17.414  14.471   1.910  0.2591  0.2080  0.1708
11559W        W27820   9.480  12.312   5.747  0.0800  0.0481 -0.1290
11560W        W27821   2.879  14.917   2.729  0.0410 -0.1007  0.2670
11561W        W27822  17.658   9.224  16.917  0.0057  0.0007  0.3264
11562W        W27823  13.581  12.793   6.337 -0.1642  0.3231 -0.0857
11563W        W27824  14.867   4.009   4.516 -0.1206 -0.2984  0.0245
11564W        W27825   7.464   8.868  15.934  0.0905  0.3018  0.2737
11565W        W27826   1.724  16.117   5.759 -0.1064 -0.3285  0.2255
11566W        W27827  15.394   3.369   2.647  0.0970 -0.2613 -0.4051
11567W        W27828  13.595   9.288   0.608  0.0473 -0.2924 -0.1817
11568W        W27829   1.158   7.554   1.787 -0.0497  0.1820  0.0301
11569W        W27830  17.095  11.374  14.856 -0.1387  0.2328  0.2488
11570W        W27831   3.494   7.732   3.011  0.3637  0.1656  0.0359
11571W        W27832   2.735   9.105   4.545  0.0387 -0.1313  0.2294
11572W        W27833   0.307   0.315  15.231 -0.0881 -0.2639 -0.1530
11573W        W27834   4.494   5.751   4.199 -0.3714  0.3239 -0.1226
11574W        W27835   8.969   6.471  15.524  0.3645  0.1326  0.0234
11575W        W27836  10.050   7.995   1.288 -0.1576  0.2028  0.2634
11576W        W27837  17.022   6.668   3.583 -0.2177 -0.3617  0.0121
11577W        W27838  12.616   7.294  16.578 -0.0107  0.1295  0.2964
11578W        W27839   4.526   5.549   2.373  0.2067  0.1471  0.2532
11579W        W27840   0.529  11.992  14.930  0.3232 -0.1038  0.1900
11580W        W27841   7.958  12.492  14.127 -0.0304 -0.3149  0.1868
11581W        W27842  17.815   3.180   2.239 -0.2685  0.1893  0.0183
11582W        W27843  15.367   6.682  11.302 -0.0971 -0.5256  0.0777
11583W        W27844  16.618  12.228   2.373 -0.0182  0.1328  0.0912
11584W        W27845  17.658   2.110  15.071 -0.3051 -0.1540  0.1484
11585W        W27846   9.296   4.155  15.051 -0.3786 -0.0551 -0.0833
11586W        W27847  12.396  12.060   4.473 -0.0672  0.1246 -0.1579
11587W        W27848   3.384   1.032  12.791  0.2325 -0.2294 -0.0002
11588W        W27849   2.552  11.455  12.975  0.0438 -0.1457  0.0213
11589W        W27850  15.706   0.346   4.566 -0.0833  0.1114  0.0583
11590W        W27851   9.653  16.455   2.685  0.0551  0.2007 -0.0093
11591W        W27852  11.767   8.020   3.445  0.0421 -0.1223 -0.0950
11592W        W27853  11.057  14.924   2.115  0.1816 -0.1094  0.2085
11593W        W27854  13.036  17.305   6.526 -0.0846 -0.0488  0.2813
11594W        W27855   3.426   5.273   5.687 -0.2830 -0.0824  0.0832
11595W        W27856  15.425   6.355   1.706 -0.0542  0.1081  0.0858
11596W        W27857  13.836   9.605   0.861  0.0656  0.2961 -0.0573
11597W        W27858   1.470  16.099   1.476 -0.0634 -0.2647 -0.0920
11598W        W27859   9.881   2.036   0.146 -0.1258  0.3581  0.1189
11599W        W27860   4.221   4.732   2.182 -0.2416 -0.2311  0.3352
11600W        W27861   7.163   9.069   3.838 -0.0870 -0.0011  0.0468
11601W        W27862  11.393   1.996  13.315  0.2205 -0.0936 -0.1772
11602W        W27863   3.789   1.626   3.320  0.1636  0.0175  0.1579
11603W        W27864  11.484  17.414   5.814  0.5893 -0.2069  0.1372
11604W        W27865  13.302  16.139  13.606  0.2186 -0.0538 -0.0838
11605W        W27866   2.590   6.375  16.373  0.1022  0.0391 -0.0352
11606W        W27867  11.576   9.074  11.643 -0.1497 -0.2381 -0.0073
11607W        W27868  13.709   1.250   2.872 -0.0796  0.3763 -0.0293
11608W        W27869  15.053   4.862   0.055 -0.2188  0.1914 -0.4745
11609W        W27870  11.837   4.110  12.427  0.2777 -0.0233  0.0333
11610W        W27871   2.054  15.208   2.073  0.1540  0.1369  0.1449
11611W        W27872   8.407   8.436   1.065 -0.1153  0.1072 -0.1254
11612W        W27873  12.651  16.069  13.035 -0.1846 -0.1667 -0.0033
11613W        W27874   9.997  17.274  12.528 -0.1247  0.2911 -0.2240
11614W        W27875   4.173   3.574   4.980  0.0634  0.2296 -0.0429
11615W        W27876  10.821   1.545   0.767  0.1594 -0.4900 -0.4552
11616W        W27877   1.331   2.149   6.098 -0.0733  0.0558 -0.1771
11617W        W27878   9.739  14.595  14.831  0.1459 -0.1265  0.3214
11618W        W27879  14.113   8.246   4.318  0.0242 -0.0064  0.0799
11619W        W27880  13.970   0.427  12.826  0.0340 -0.3000  0.0376
11620W        W27881   2.302   2.053  15.736 -0.1327 -0.3102  0.0166
11621W        W27882  11.830   1.688  11.138  0.3975  0.0366  0.0294
11622W        W27883  16.679   9.972   0.214 -0.1051  0.1691  0.0097
11623W        W27884   9.817  15.399  16.566 -0.0667  0.1067 -0.1274
11624W        W27885  10.719   5.905   2.017 -0.0456 -0.2116 -0.2145
11625W        W27886   3.874  14.432  13.122 -0.2809 -0.0413 -0.0249
11626W        W27887  15.724   7.080   1.182 -0.4010 -0.1423  0.0319
11627W        W27888  10.248  15.450   0.382  0.2107  0.2814  0.0454
11628W        W27889  12.775   3.540   2.349 -0.0358  0.0353 -0.0085
11629W        W27890   4.793  14.073   1.315 -0.0351 -0.1463  0.0583
11630W        W27891   5.563  11.091  15.071  0.1290 -0.1861  0.1884
11631W        W27892   9.076   0.671   3.479 -0.0574 -0.3249  0.2789
11632W        W27893  11.350  12.585  15.813 -0.1696 -0.0615 -0.0305
11633W        W27894   9.474   2.775   2.164  0.0180 -0.0687 -0.3157
11634W        W27895   2.681   4.587  16.199  0.1264  0.0993  0.0297
11635W        W27896   4.980   8.459   4.222  0.1649  0.1690 -0.1255
11636W        W27897   6.409   6.332   1.161 -0.2676 -0.2948  0.0527
11637W        W27898   1.514   0.534   3.093 -0.1302  0.0555 -0.4298
11638W        W27899   4.477  17.667   5.728 -0.0538 -0.3144 -0.1986
11639W        W27900   7.175   7.338   2.897  0.0706 -0.0682 -0.0191
11640W        W27901   7.555   2.126  12.977 -0.2435  0.0950  0.0456
11641W        W27902   0.574   8.623  15.403  0.0884  0.3215  0.0563
11642W        W27903   4.801  12.773   4.972 -0.0225 -0.0806  0.1319
11643W        W27904  10.061   5.755   0.460  0.0020 -0.1617  0.2874
11644W        W27905   1.307  15.569  13.752 -0.1088  0.0919  0.0141
11645W        W27906   4.364   8.089  16.551 -0.0145  0.1057  0.1997
11646W        W27907  16.603   9.905   0.792  0.0915  0.1145 -0.1442
11647W        W27908   7.821   1.140   5.635  0.0358 -0.1591 -0.2558
11648W        W27909  10.491   8.441   3.460 -0.1624  0.0639 -0.0207
11649W        W27910   4.323  17.425   1.928  0.0238 -0.2186 -0.1228
11650W        W27911  12.615   2.898   5.093 -0.2486  0.2117 -0.1516
11651W        W27912   4.846  11.745  11.536  0.0245  0.0897 -0.1148
11652W        W27913  12.993   5.043   2.191 -0.3726 -0.0657  0.3236
11653W        W27914   8.720   3.028   3.390  0.2114 -0.1212  0.0660
11654W        W27915   7.592   7.058   0.170  0.0518 -0.2560  0.2432
11655W        W27916   8.624  13.521   4.935  0.2092 -0.0669  0.1583
11656W        W27917   8.653  11.609  13.391  0.1865 -0.1216 -0.0296
11657W        W27918  17.526  11.914  13.573  0.1851  0.1690  0.1487
11658W        W27919  12.482  16.961   2.425 -0.1549  0.2599 -0.2083
11659W        W27920  16.559   5.406  12.243 -0.0392 -0.2255  0.0191
11660W        W27921  17.385  17.640   4.293 -0.0918  0.2656  0.1915
11661W        W27922  16.952  16.059  13.980 -0.0750  0.1972 -0.1280
11662W        W27923   1.593   5.540  16.689 -0.1102  0.2121  0.3112
11663W        W27924   8.356   1.981   1.006  0.0310  0.0702  0.2918
11664W        W27925   1.182  16.863   0.078 -0.2406  0.2292 -0.0215
11665W        W27926  15.481   5.964   0.298  0.0526  0.0813  0.3845
11666W        W27927   0.590   5.714  16.819  0.1018  0.0875  0.0745
11667W        W27928   2.874  14.388  15.580 -0.1474 -0.1029 -0.1110
11668W        W27929  15.020   0.067  14.748  0.0958 -0.1744 -0.1648
11669W        W27930  12.548   7.568  13.408  0.1774  0.0930 -0.1735
11670W        W27931   3.528   0.473   1.651  0.3318  0.0073 -0.0272
11671W        W27932  14.356   4.599   0.670  0.0829  0.0757 -0.0471
11672W        W27933   5.798   8.258  14.509  0.1732 -0.1560 -0.1128
11673W        W27934  17.091   2.207  14.287 -0.5273  0.1651  0.0669
11674W        W27935  13.116   6.838  12.098 -0.0534  0.0206  0.0108
11675W        W27936   9.462   1.959   0.399 -0.1375  0.0727  0.2450
11676W        W27937  12.387  15.792   3.012  0.0172 -0.0082 -0.2615
11677W        W27938   1.149  12.081   2.212  0.2340  0.4735  0.1706
11678W        W27939  14.276   4.575   3.837  0.2389 -0.0469  0.0918
11679W        W27940  11.613  10.416   3.053 -0.2598 -0.0958 -0.2405
11680W        W27941   5.884   4.362   0.035 -0.0919 -0.1190 -0.1668
11681W        W27942  17.677   3.473   4.175 -0.2685 -0.1284 -0.2380
11682W        W27943   6.390   5.560  13.947  0.1645 -0.2073 -0.2119
11683W        W27944   5.338   9.916   5.644  0.4327  0.1343  0.1786
11684W        W27945   2.389  15.199  14.305 -0.1785  0.0112 -0.0266
11685W        W27946   4.457   9.022   1.907  0.0142 -0.2982 -0.0594
11686W        W27947  11.398   8.079  15.837 -0.2089  0.1515 -0.0905
11687W        W27948   2.097  10.190   5.354 -0.0713 -0.1848 -0.0844
11688W        W27949   5.166   7.767  16.571 -0.2757 -0.2658  0.1990
11689W        W27950   6.564  13.571  15.779 -0.1896  0.0563  0.0439
11690W        W27951  16.347   9.880   3.952 -0.1207 -0.1801 -0.0919
11691W        W27952  11.010   5.518   4.811 -0.0969  0.1273  0.0827
11692W        W27953   0.248   1.740   5.133 -0.0357  0.1598  0.0844
11693W        W27954   1.433  16.464  13.572 -0.2198  0.0664 -0.2261
11694W        W27955   5.066   6.217   3.429  0.0272  0.3284  0.0132
11695W        W27956  15.168   9.828   4.028 -0.0466  0.2197 -0.0975
11696W        W27957  16.944  17.101   5.326  0.1072 -0.3991 -0.3614
11697W        W27958  14.676  11.865  14.124  0.1078 -0.0527  0.0659
11698W        W27959   3.072  11.842  13.063  0.0457 -0.1574 -0.0057
11699W        W27960   8.697  10.118   4.416  0.2113  0.0124 -0.2584
11700W        W27961   0.953   3.212  12.800  0.2136  0.2110 -0.2136
11701W        W27962  15.943  16.371   0.133 -0.0818 -0.1283  0.2211
11702W        W27963   0.788  10.084  15.137 -0.0391  0.0931  0.1384
11703W        W27964  12.553  11.557   1.882 -0.1283  0.0845 -0.2059
11704W        W27965   7.255  13.372  16.760 -0.3666 -0.2455  0.0666
11705W        W27966   5.808   9.618  13.594 -0.1259  0.2193  0.1643
11706W        W27967  16.064   5.215  12.683  0.1456 -0.2127  0.1249
11707W        W27968   8.084   7.988   5.811  0.0681 -0.1572 -0.0371
11708W        W27969   1.056  12.521  11.699 -0.3691 -0.3934 -0.1076
11709W        W27970   3.192   4.633   2.695 -0.1716  0.0955  0.1894
11710W        W27971  12.228   7.667   0.559  0.1365 -0.2113 -0.0141
11711W        W27972   0.851   3.844   4.816  0.1738 -0.3304 -0.0896
11712W        W27973   7.337   8.356   1.935  0.0705  0.0749  0.0180
11713W        W27974  16.492  13.424   3.919 -0.3542 -0.1196  0.4123
11714W        W27975  13.090  12.061   3.592 -0.0078  0.2538 -0.1665
11715W        W27976   6.365  12.847   5.295  0.0252 -0.1639  0.0020
11716W        W27977   1.044  16.298   2.175  0.0445  0.3408  0.2582
11717W        W27978  16.962  16.530   6.471 -0.1933  0.1247 -0.0982
11718W        W27979   2.014   6.617   2.255 -0.1337 -0.0544 -0.2377
11719W        W27980  15.668   0.656   1.984 -0.3781 -0.1384  0.1231
11720W        W27981  15.353  15.366  16.263 -0.2528 -0.0710 -0.0029
11721W        W27982   6.675  13.608   0.484 -0.1890 -0.0518 -0.0199
11722W        W27983  15.678  10.885   5.226 -0.0147  0.1407  0.1135
11723W        W27984   8.116  13.971   1.957  0.1935  0.1216  0.2176
11724W        W27985   7.662  15.077   5.360  0.0374 -0.1520 -0.0695
11725W        W27986   0.132   7.779  15.738  0.3148 -0.3109  0.0196
11726W        W27987   4.655  16.310  12.011 -0.0415 -0.2080  0.0070
11727W        W27988  10.632   4.909   0.810 -0.2413 -0.2543 -0.1468
11728W        W27989   0.927   5.189   5.774  0.1254  0.0488 -0.0483
11729W        W27990   5.242   3.975  12.061 -0.2887 -0.0248  0.0230
11730W        W27991   4.807   5.333  12.603  0.3489 -0.1974  0.1550
11731W        W27992  17.669   4.153  15.792 -0.0934  0.3225 -0.0929
11732W        W27993   8.653   1.229  12.881  0.0869  0.2388 -0.0035
11733W        W27994  14.975  10.158  15.598  0.0561 -0.1280  0.2917
11734W        W27995   8.789  12.697  14.741 -0.1317 -0.2570  0.0654
11735W        W27996  11.626  13.727   0.716  0.3205  0.0651  0.0466
11736W        W27997   8.262  11.062   6.247 -0.2118  0.0379  0.1118
11737W        W27998  15.789  17.046  13.706  0.0636  0.0512 -0.0822
11738W        W27999   3.571   4.192  13.481 -0.3316 -0.5876 -0.0554
11739W        W28000   5.448  14.706  16.927 -0.0779 -0.1071  0.0125
11740W        W28001  14.811   0.839   5.642 -0.2961  0.0658  0.0368
11741W        W28002  17.140  13.395   1.633  0.1156 -0.2190  0.1722
11742W        W28003   6.323   7.383  11.535 -0.0998 -0.2724  0.0101
11743W        W28004  17.613  16.335   0.261  0.1423 -0.0515 -0.1075
11744W        W28005  17.173   3.741   4.260  0.3476  0.3733  0.0234
11745W        W28006  11.667  17.401  14.074  0.2996 -0.3116  0.1618
11746W        W28007   5.945   8.502   0.275 -0.0402 -0.0049  0.2016
11747W        W28008   6.045   1.062  12.814  0.0179  0.0902  0.1708
11748W        W28009  14.072  10.687  13.976 -0.1803 -0.1068  0.0473
11749W        W28010  12.604   0.421  14.477 -0.2986 -0.1223 -0.1132
11750W        W28011   2.837   3.116   4.531 -0.0052  0.1226 -0.0492
11751W        W28012  12.831   9.790   1.714  0.0636  0.0457  0.1097
11752W        W28013   0.952   4.437   6.257 -0.0379 -0.1325  0.4319
11753W        W28014  14.864  13.321   6.947  0.1732  0.0274 -0.2286
11754W        W28015   2.442  15.976   3.491 -0.2909 -0.0874  0.3595
11755W        W28016   3.240  15.172   2.970  0.2331 -0.1428  0.0632
11756W        W28017   8.263  15.912   2.589 -0.0453 -0.2276  0.2992
11757W        W28018   5.966   3.276   1.114  0.4034  0.2605  0.0119
11758W        W28019   0.738   6.215  12.577 -0.0497  0.1013  0.3339
11759W        W28020  14.910  17.134   2.991  0.2188 -0.0323  0.0266
11760W        W28021   7.778  16.173   4.913  0.0966  0.3582  0.3059
11761W        W28022  17.008  10.217   3.336 -0.0565 -0.3704 -0.1438
11762W        W28023  11.157  15.625   2.342  0.1790  0.2061  0.1242
11763W        W28024  12.226  16.534  16.727  0.2671 -0.0217  0.3008
11764W        W28025   4.890   4.799   1.279 -0.1874  0.2214  0.1082
11765W        W28026   4.321  17.013   0.836  0.2763  0.1484 -0.0899
11766W        W28027   0.050   0.360   3.679  0.1478 -0.0269 -0.0969
11767W        W28028   1.985  12.427   2.059 -0.3415 -0.2913 -0.2371
11768W        W28029   0.295   9.397  14.637 -0.1289  0.0172 -0.1834
11769W        W28030   1.492   4.694   2.759  0.1259  0.0986  0.1590
11770W        W28031   8.408  13.825  12.384 -0.0101  0.1457 -0.0928
11771W        W28032  11.332   5.202   4.562 -0.1424 -0.2974 -0.0150
11772W        W28033  13.552   1.838  13.463 -0.2031 -0.2138 -0.0768
11773W        W28034  10.367   0.662  12.825 -0.1582  0.0496  0.1945
11774W        W28035  15.340   0.142  16.246  0.2940  0.0413  0.1022
11775W        W28036   8.774  13.104   1.788  0.0087  0.1666  0.0461
11776W        W28037   9.288   9.736   1.487 -0.1062 -0.0289  0.0547
11777W        W28038   1.659   6.302  12.056 -0.0069  0.2211  0.0581
11778W        W28039  17.797   5.590  14.146 -0.0037 -0.0571 -0.3021
11779W        W28040  10.874   0.260  15.431  0.2619  0.2548  0.2728
11780W        W28041  12.998   0.562   5.036 -0.1081  0.1637  0.3616
11781W        W28042  15.658  17.131  12.751  0.1510 -0.1740 -0.2155
11782W        W28043  12.868   5.422  13.843  0.1493  0.0915  0.0167
11783W        W28044  16.425  10.953   1.613  0.0325 -0.3058  0.2683
11784W        W28045   8.689   0.892   1.322 -0.1563 -0.1693 -0.0551
11785W        W28046   1.178   6.728  15.575 -0.2113  0.0785 -0.1937
11786W        W28047  16.944   2.882   2.158  0.1000  0.1006  0.0742
11787W        W28048  10.084  12.404  16.006 -0.3214  0.1939 -0.1630
11788W        W28049  16.436   2.876  15.565  0.0834 -0.2514  0.0123
11789W        W28050   0.114   5.818  12.032 -0.1082  0.1309  0.0980
11790W        W28051   8.142  17.195   1.823 -0.0855 -0.0796  0.0345
11791W        W28052  12.137  14.232   5.310 -0.1749  0.1514 -0.0057
11792W        W28053  12.067  13.163  16.892 -0.0473 -0.1006  0.2619
11793W        W28054  10.383   8.743   4.755  0.2205 -0.1206 -0.1553
11794W        W28055   1.712  14.779   5.418 -0.1713 -0.1187  0.0780
11795W        W28056  11.502  12.163   4.751 -0.1169 -0.3114 -0.0733
11796W        W28057   1.148   5.876   1.669 -0.0796  0.3333  0.0353
11797W        W28058  11.929   8.467   3.673 -0.1817  0.0421  0.0744
11798W        W28059  10.153  11.877   6.168  0.0622 -0.3192 -0.3815
11799W        W28060  11.196  17.626  12.024  0.1851  0.0805  0.0828
11800W        W28061   6.900  10.866  16.773 -0.0262 -0.1655 -0.2107
11801W        W28062  17.461   0.655   2.750 -0.3146 -0.1367 -0.2921
11802W        W28063   6.973   7.334  12.056 -0.1224  0.0333  0.1263
11803W        W28064  15.145  15.032  13.492  0.2983 -0.1073 -0.1037
11804W        W28065   5.067  17.144   4.910 -0.0453  0.1028  0.1250
11805W        W28066   9.518   4.971  14.582  0.1504  0.1476  0.0202
11806W        W28067   4.999  17.127  15.754 -0.0109 -0.1319  0.0961
11807W        W28068  10.726  12.183   4.189  0.0184 -0.0993 -0.2779
11808W        W28069   7.181   1.070   5.024  0.1068  0.0277 -0.3362
11809W        W28070  12.208   9.973  11.055  0.1193  0.0341 -0.2474
11810W        W28071  14.206  11.124  14.897  0.3048  0.0291 -0.1472
11811W        W28072  15.954  12.636   5.367 -0.0894 -0.2195 -0.1619
11812W        W28073  10.009  10.359   4.133 -0.2972 -0.2116 -0.1800
11813W        W28074   9.216  16.011   4.986 -0.2667  0.3475  0.1563
11814W        W28075   5.563  15.396   5.725  0.0406 -0.0254 -0.1590
11815W        W28076   6.444   7.996  14.812 -0.0888  0.2401  0.0451
11816W        W28077   6.908  13.509  11.825  0.1239  0.1332  0.2739
11817W        W28078   5.643  12.103   0.712 -0.0292  0.2801 -0.3567
11818W        W28079  17.061  13.444  15.019 -0.1218 -0.1400  0.0684
11819W        W28080  15.860   6.274  13.076 -0.1295 -0.3487  0.1340
11820W        W28081   5.895   2.076   5.705  0.1080 -0.0001  0.1074
11821W        W28082  11.329   1.499   3.366  0.2609  0.0490  0.0069
11822W        W28083   5.335  16.750   3.068  0.0077  0.2722  0.2860
11823W        W28084   3.464  10.827  12.949 -0.2608  0.4871  0.1706
11824W        W28085  15.229   0.658   3.727 -0.0953  0.3204 -0.0668
11825W        W28086   0.301   4.597   3.841 -0.0200 -0.2709 -0.1020
11826W        W28087  13.043   7.288  16.238  0.0885 -0.0378  0.2752
11827W        W28088   7.229   6.214   3.041 -0.3175 -0.1337  0.0164
11828W        W28089   6.863   2.525   3.062 -0.0794 -0.1688  0.2764
11829W        W28090   5.165   4.949  16.048  0.0423 -0.0674  0.1325
11830W        W28091  17.014   1.603   5.122 -0.0241  0.0943 -0.0009
11831W        W28092  12.924   2.772  12.023  0.0215  0.0590 -0.2911
11832W        W28093  12.840  17.711   1.373  0.2104 -0.1295  0.0637
11833W        W28094   1.579   1.809  13.713 -0.0272 -0.0448  0.1036
11834W        W28095  12.661  10.994  16.577  0.1314 -0.3803 -0.2577
11835W        W28096   2.145   0.240  13.036 -0.1483  0.1604 -0.0145
11836W        W28097  13.727   9.113  12.617 -0.0107  0.0084  0.0954
11837W        W28098  15.218  14.087   2.903 -0.1785  0.2863 -0.0823
11838W        W28099  14.830  15.961  16.324  0.2552  0.0522  0.0137
11839W        W28100  14.720   3.298  12.920 -0.1377 -0.0327 -0.0379
11840W        W28101   2.699  10.483   3.682  0.1914  0.1795  0.0562
11841W        W28102   0.509  10.015   5.047 -0.1609  0.1660  0.0286
11842W        W28103   4.770   2.532   3.415  0.0572  0.1732 -0.0242
11843W        W28104  17.530   4.472  14.376 -0.1649 -0.0871  0.0345
11844W        W28105   0.915  14.734   0.255 -0.1401 -0.1831  0.1199
11845W        W28106  17.614  10.210   5.864 -0.2569 -0.0410 -0.1463
11846W        W28107   8.358   4.006   3.272 -0.2041  0.0178 -0.2868
11847W        W28108   1.273   5.605  14.508 -0.0161  0.0264  0.4631
11848W        W28109  10.184   5.166  13.433  0.1933  0.0517  0.2889
11849W        W28110   6.570   7.822   3.223  0.4053 -0.0863 -0.2277
11850W        W28111  11.345   9.560   0.314  0.1058 -0.3593  0.2518
11851W        W28112  17.688   6.356  15.078  0.0228  0.3387 -0.2359
11852W        W28113  12.488  16.283  12.508  0.0309 -0.1487  0.2682
11853W        W28114   9.483   4.119   0.777  0.0112 -0.2953 -0.0401
11854W        W28115  16.212  14.858   6.682 -0.3315 -0.2083  0.0874
11855W        W28116  13.925   1.164  16.079  0.1374 -0.1393 -0.2002
11856W        W28117   5.666   8.434   1.245  0.1450 -0.0689 -0.2020
11857W        W28118  15.206   2.435   4.101 -0.2801  0.3852 -0.2217
11858W        W28119   0.724  16.820  16.384  0.1037 -0.0853 -0.2766
11859W        W28120   9.012  11.152  11.653  0.0818  0.0500 -0.1925
11860W        W28121   5.377   8.782   1.423 -0.0318  0.1262 -0.0107
11861W        W28122   9.137   2.093  16.628  0.2361 -0.1641  0.0697
11862W        W28123   4.034   1.430  11.378  0.0825  0.0213 -0.4218
11863W        W28124  13.246   5.088  14.155 -0.0024  0.0080  0.1661
11864W        W28125   8.426   4.756  14.401  0.1251 -0.0224 -0.1956
11865W        W28126   8.818  10.754  11.891 -0.0563 -0.3355 -0.0372
11866W        W28127  15.265   1.398  11.879  0.0816 -0.1774  0.3947
11867W        W28128   1.895   3.893   0.167 -0.2573  0.2791  0.0859
11868W        W28129   1.302   0.874   1.297  0.0978  0.1376  0.4146
11869W        W28130   1.459   3.934  16.636  0.1797 -0.1910  0.0988
11870W        W28131   8.489   6.303  13.679  0.1805 -0.3095  0.5185
11871W        W28132   5.302  15.786  15.928 -0.1575  0.2195  0.0076
11872W        W28133   2.509   1.777   1.986 -0.1644 -0.0659  0.2833
11873W        W28134   9.505   2.025  12.235  0.0223  0.1325 -0.3202
11874W        W28135   4.471  15.557   5.656  0.1257 -0.3426  0.0876
11875W        W28136   0.079   6.061  16.399 -0.0154  0.2180  0.3097
11876W        W28137  13.751   4.019   1.712 -0.0395  0.1219 -0.0598
11877W        W28138   1.560  15.999   0.160  0.1233 -0.2232  0.0650
11878W        W28139   6.908   8.231  15.039  0.3289 -0.2204  0.0958
11879W        W28140   9.453   1.480   0.509 -0.0612  0.0563  0.0570
11880W        W28141  16.186  14.743   6.161 -0.0648  0.1222 -0.1609
11881W        W28142   4.014   8.524   2.827  0.1178 -0.0126  0.0726
11882W        W28143   2.102   1.708   2.281  0.0638  0.2276 -0.0982
11883W        W28144  13.846  11.927  15.765 -0.2171 -0.0844 -0.2507
11884W        W28145   6.734  13.853   4.727 -0.0041  0.1778  0.3321
11885W        W28146   0.264   6.163  14.874 -0.0171  0.0168 -0.0263
11886W        W28147   6.142  15.853  15.150 -0.4662 -0.2060 -0.1826
11887W        W28148   2.625   6.374  11.298 -0.2471  0.2657  0.0184
11888W        W28149   8.761  15.467   5.680 -0.1026  0.1617  0.2943
11889W        W28150   6.771  10.098   4.649  0.0384 -0.0635  0.1721
11890W        W28151  12.332  10.969  12.688  0.0828  0.1127 -0.1465
11891W        W28152   0.666   0.941  14.372 -0.1712 -0.2677  0.1337
11892W        W28153   2.940  14.127  13.328 -0.1950 -0.2953  0.0217
11893W        W28154  14.759   9.538   2.432 -0.0706 -0.0320 -0.3484
11894W        W28155   8.004  13.139   2.861  0.1687  0.4648 -0.4128
11895W        W28156   7.885  15.687   1.701  0.0112 -0.1376  0.4728
11896W        W28157  14.012  14.335  12.485  0.2405 -0.0329 -0.2315
11897W        W28158  15.532  16.015   3.008  0.1843  0.1429  0.1828
11898W        W28159  17.022  17.409  14.905  0.1512 -0.0643  0.1744
11899W        W28160   3.074  13.961  15.154  0.3955 -0.1597 -0.2888
11900W        W28161   7.399  17.560   4.458 -0.0716  0.2102  0.0809
11901W        W28162   5.571  13.987  13.411 -0.2763 -0.2158  0.2158
11902W        W28163   7.938   0.333  12.691 -0.1390 -0.2191 -0.1770
11903W        W28164  13.632   5.988   2.954 -0.1763 -0.4631 -0.1407
11904W        W28165  12.948  12.918   4.606 -0.1229 -0.0969  0.1330
11905W        W28166   1.982  17.409   2.431  0.0488 -0.4232 -0.1261
11906W        W28167   8.378  16.462  12.898  0.0939 -0.0869 -0.0489
11907W        W28168  13.863  15.397   0.989  0.0766  0.1978  0.0551
11908W        W28169  12.697  10.311   4.716 -0.1822 -0.0218  0.3885
11909W        W28170  14.951   9.690  16.703  0.0287  0.2465  0.0885
11910W        W28171   3.521  15.792   2.083  0.1116 -0.1272  0.2485
11911W        W28172   5.156   2.223  16.327 -0.0715  0.0873  0.1637
11912W        W28173   6.096   3.456  10.662  0.0543 -0.0020 -0.0405
11913W        W28174  16.347  17.802   4.337 -0.0323 -0.1599 -0.1124
11914W        W28175   2.748  11.295   2.288 -0.1911 -0.0120 -0.0024
11915W        W28176  12.454  11.709  13.727 -0.0060 -0.0023  0.1043
11916W        W28177   0.307   5.248   1.145 -0.1341 -0.0092  0.2858
11917W        W28178  16.623  11.515   3.013 -0.3994 -0.0842 -0.1451
11918W        W28179   5.821   8.989   1.617 -0.0254  0.1217 -0.2935
11919W        W28180   1.444   5.754   0.631  0.1139  0.0922 -0.2436
11920W        W28181   0.425   6.793  13.506 -0.3202 -0.4976 -0.1714
11921W        W28182  14.080   8.844   1.497 -0.3056 -0.2448  0.2034
11922W        W28183  14.667   3.676   4.782  0.1289  0.2429  0.0785
11923W        W28184  15.938   7.595   3.145  0.2126  0.2590 -0.0522
11924W        W28185  11.880  13.972  12.390 -0.3073 -0.0349  0.2001
11925W        W28186   8.612  13.280   5.847  0.0205  0.1524  0.3180
11926W        W28187   2.965   5.437  16.150 -0.2701  0.3332  0.0665
11927W        W28188   7.265   5.132   2.972  0.4207 -0.4394 -0.2523
11928W        W28189   4.649  10.046  15.481  0.2777 -0.2348 -0.1321
11929W        W28190   1.499   9.550  16.924  0.0419 -0.2639  0.0757
11930W        W28191   0.320  15.185  15.669  0.0508  0.0681  0.1540
11931W        W28192  17.772  14.639  13.703  0.0849  0.0355  0.0593
11932W        W28193  13.459   4.462   1.190 -0.2024 -0.0390 -0.3049
11933W        W28194  17.215   1.806   5.522  0.1501 -0.0380  0.1112
11934W        W28195  13.563   5.024  15.317  0.1496 -0.0295  0.2340
11935W        W28196   4.546  12.944   1.130  0.2758 -0.0325  0.2156
11936W        W28197   1.089  10.853  14.335 -0.0484  0.1171 -0.1585
11937W        W28198  16.103   4.238  14.886  0.1948 -0.1308 -0.2686
11938W        W28199   9.495   9.512   1.894 -0.0846  0.2671 -0.1127
11939W        W28200   5.242   7.951   3.577 -0.0778  0.4107 -0.1330
11940W        W28201   3.576  12.103  13.149  0.0657 -0.0199  0.0871
11941W        W28202  14.174  12.483   0.564 -0.0025  0.3833  0.1814
11942W        W28203   9.679  13.020  16.503  0.1746 -0.0939  0.1430
11943W        W28204   1.734   8.431  13.058  0.2803  0.2642 -0.0843
11944W        W28205   1.793  12.509   6.396  0.1408  0.0388 -0.0981
11945W        W28206   0.359   9.911   3.722 -0.1059  0.5613 -0.0150
11946W        W28207   0.783   9.577  12.397 -0.1618  0.0261 -0.0778
11947W        W28208   3.189  13.157   5.229  0.2285  0.1463  0.1077
11948W        W28209   2.365  13.780   4.974  0.1476  0.0544  0.2512
11949W        W28210   7.870   0.711  16.734 -0.0790 -0.2720 -0.1009
11950W        W28211   6.593   1.322  16.712  0.1285 -0.3299  0.0174
11951W        W28212  12.698  14.133  12.665 -0.0481 -0.1633 -0.3080
11952W        W28213   7.776   7.046   4.660  0.1084  0.3074  0.0561
11953W        W28214  12.427   2.323   4.419  0.2177  0.0766 -0.0769
11954W        W28215   7.090  16.149  14.528  0.0140  0.0581  0.1075
11955W        W28216   5.190   1.062  14.050 -0.0577 -0.0381 -0.2628
11956W        W28217  11.974   2.518  14.904 -0.1647 -0.1250 -0.1409
11957W        W28218  13.393   3.268  15.450 -0.1928  0.2212 -0.4365
11958W        W28219   5.619   8.295  16.897 -0.0118  0.0609  0.0403
11959W        W28220  12.243   2.709  14.514 -0.3129 -0.2418 -0.1180
11960W        W28221   9.475   2.628   5.200 -0.0402  0.0409 -0.1860
11961W        W28222   9.743  15.661   3.062  0.1836 -0.1468  0.1019
11962W        W28223   6.114  11.304  14.188  0.0593 -0.0701  0.1773
11963W        W28224   8.598  17.610  13.632  0.1418 -0.0723  0.1093
11964W        W28225   5.075   9.888  14.142  0.0049  0.0064 -0.0897
11965W        W28226   6.307   8.591   5.202 -0.0704 -0.1736  0.2771
11966W        W28227  15.176   4.180  12.481  0.1756  0.1177  0.2013
11967W        W28228  11.073   5.768  14.412 -0.0245  0.0431 -0.1436
11968W        W28229  14.657   9.806   4.077  0.1401  0.1504  0.2385
11969W        W28230   1.286   5.575  12.596  0.3357 -0.2330 -0.0517
11970W        W28231   9.533  14.404   4.482 -0.1125 -0.2979 -0.2060
11971W        W28232   9.198   1.783   5.143  0.0523 -0.4107  0.0959
11972W        W28233   5.995   3.833  15.616 -0.0807 -0.0675  0.0088
11973W        W28234   4.174   1.622  14.160 -0.1214 -0.4540  0.0572
11974W        W28235   3.660   9.508  16.581 -0.1192 -0.0443  0.1233
11975W        W28236   7.803  10.823   0.820 -0.0082  0.3090 -0.1343
11976W        W28237   6.095   1.590  11.864 -0.2866  0.3268  0.0155
11977W        W28238  15.864  14.603  16.197 -0.0477  0.2024  0.4074
11978W        W28239   9.867   6.230  13.651 -0.2034  0.1603  0.2788
11979W        W28240  15.198   0.070   2.548 -0.1257 -0.0120 -0.3291
11980W        W28241  14.416   3.215   1.507  0.0458  0.0328  0.1542
11981W        W28242  11.584  11.028   2.868 -0.0050  0.2556  0.3524
11982W        W28243   9.824  15.321  12.602 -0.0951  0.0085  0.0904
11983W        W28244   7.125   9.936  12.141 -0.0817 -0.1454 -0.0200
11984W        W28245   1.654  12.837   1.848 -0.1907 -0.0588  0.0092
11985W        W28246  14.484  12.967   0.650 -0.0000  0.2601  0.1534
11986W        W28247   0.365   7.639  15.023  0.0474  0.0209  0.1486
11987W        W28248  14.729  12.563  13.785  0.2969  0.1366  0.2307
11988W        W28249  15.179  16.504   0.220  0.4574 -0.0197 -0.0561
11989W        W28250   7.789  17.189  12.195  0.1027  0.2420  0.0505
11990W        W28251   4.536   7.863   5.460 -0.0468 -0.0120 -0.1419
11991W        W28252  13.639  16.730  14.792 -0.0697  0.1763  0.2027
11992W        W28253   9.425   5.631   5.345  0.0244  0.1695  0.0507
11993W        W28254  15.902  17.201   4.346 -0.0381  0.3972  0.0877
11994W        W28255   4.029   9.689  16.201  0.0338  0.3285 -0.0823
11995W        W28256   7.622  14.167   4.612 -0.3465  0.1027 -0.0795
11996W        W28257  10.824   0.255   3.906  0.1293  0.0818  0.0607
11997W        W28258   3.999  13.298  16.699 -0.0097  0.1579  0.0164
11998W        W28259   3.350  10.261   1.307  0.1282 -0.3853 -0.1006
11999W        W28260   5.038   3.065   4.665  0.2195 -0.1038 -0.1147
12000W        W28261  13.418   5.621  12.900  0.1489  0.0276  0.0476
12001W        W28262  12.113  16.733  13.456 -0.0107 -0.1606  0.0022
12002W        W28263  10.935   6.039   0.422  0.0015  0.0984  0.0070
12003W        W28264   4.986  11.714   3.821  0.2202  0.0703  0.1328
12004W        W28265   3.915  11.911  12.775 -0.2642 -0.0514 -0.1265
12005W        W28266   8.561  16.777  16.937  0.1101 -0.1058 -0.2246
12006W        W28267   8.696  12.921   6.781  0.3361 -0.0834  0.1848
12007W        W28268   8.938   6.128   4.909  0.1678 -0.0791  0.0430
12008W        W28269   6.886   3.123   3.125 -0.1759 -0.1236 -0.1002
12009W        W28270  14.765  17.199   3.491 -0.0572 -0.1027 -0.0587
12010W        W28271  10.667   8.099  10.145  0.0194 -0.0776  0.0854
12011W        W28272   6.692  10.483   0.065  0.1268  0.3543 -0.1146
12012W        W28273   4.268  14.056   0.648  0.1803  0.0792 -0.0497
12013W        W28274   6.122   5.664  14.620  0.1907 -0.0611 -0.1889
12014W        W28275   9.347  13.097   4.109  0.2164  0.1252 -0.0151
12015W        W28276  10.887  11.839   1.939 -0.0455 -0.0179 -0.1042
12016W        W28277   9.858   8.740   5.933 -0.1528  0.3663  0.1236
12017W        W28278  15.381  12.364   2.745 -0.1322  0.0540  0.1484
12018W        W28279   0.844   0.379   3.724 -0.4734  0.0764  0.3061
12019W        W28280  16.225  17.057   6.192 -0.0693  0.0101 -0.2648
12020W        W28281   3.044   5.407   3.366  0.0587  0.1409  0.4571
12021W        W28282  16.531   3.628   0.189 -0.2351  0.0455  0.0887
12022W        W28283  11.883   8.853   4.931 -0.1013  0.1456 -0.2246
12023W        W28284  13.762   9.239   3.531  0.0503 -0.0366 -0.0296
12024W        W28285   7.083  14.037   0.711  0.2261 -0.0851  0.2213
12025W        W28286  16.038   9.626  14.185  0.0165  0.1284  0.2276
12026W        W28287  10.178  10.894   0.865  0.2650 -0.0786  0.1138
12027W        W28288   6.783   1.692  16.974 -0.2702 -0.0118 -0.1278
12028W        W28289  11.617  14.031   3.120 -0.4360 -0.1893  0.1446
12029W        W28290   2.899  10.884   2.524 -0.0246 -0.0121  0.1097
12030W        W28291  12.095   9.471   3.617  0.2641  0.2409 -0.1971
12031W        W28292   2.369   2.054   2.423 -0.1225  0.1145  0.0647
12032W        W28293   6.770   7.171   6.172 -0.2034 -0.2947  0.1833
12033W        W28294   7.288   5.880   5.032 -0.0642  0.0424  0.2761
12034W        W28295  15.141  15.392   3.442 -0.0029  0.0849  0.3067
12035W        W28296   0.335  11.995   4.338  0.1337  0.0350  0.0715
12036W        W28297   0.174  17.079  13.918  0.1468 -0.3296  0.3714
12037W        W28298   2.793  17.150  16.615 -0.1188  0.0976  0.0701
12038W        W28299   2.759  13.931  15.778 -0.0880  0.0998  0.0756
12039W        W28300  14.246  14.164  15.994  0.0140  0.0719 -0.0535
12040W        W28301  17.392  16.554   3.741 -0.4819 -0.1895  0.1463
12041W        W28302   0.898  10.204  14.267  0.1364  0.0909 -0.2358
12042W        W28303   1.750  12.473  16.723 -0.1638 -0.0349 -0.4042
12043W        W28304   4.839   6.869  15.028 -0.1733  0.0500  0.2812
12044W        W28305   2.841  17.130   0.607 -0.0085 -0.0073  0.0724
12045W        W28306  12.414   0.885  13.572  0.0306 -0.3518  0.0978
12046W        W28307   4.782  15.889   5.721  0.2261  0.3518 -0.3068
12047W        W28308   0.705   2.070   5.006  0.0562  0.2016 -0.0534
12048W        W28309   1.102  17.758   2.005 -0.0490  0.0064 -0.0566
12049W        W28310  17.635  12.766   4.671 -0.1807 -0.1022  0.0186
12050W        W28311   5.907  14.751   0.642 -0.1460 -0.1729 -0.0169
12051W        W28312   8.196   9.506  13.059 -0.2739  0.2438  0.1636
12052W        W28313   7.968   5.840  13.188  0.0594 -0.1173  0.0861
12053W        W28314  14.776  16.318   5.145  0.2440  0.1844  0.1103
12054W        W28315   1.694  16.165   4.023  0.3151  0.3208  0.2862
12055W        W28316  11.743   1.541   4.687  0.0784  0.0053 -0.0423
12056W        W28317  10.663   0.470   0.231  0.2874 -0.1025  0.0630
12057W        W28318   5.934  16.076   4.348  0.1787 -0.0443  0.0015
12058W        W28319  12.684  14.061   2.733 -0.1713  0.1379  0.0231
12059W        W28320  11.361   2.984   5.015  0.1164 -0.0236 -0.0914
12060W        W28321   3.905  14.786   5.077  0.3533 -0.1032 -0.2530
12061W        W28322  16.741   7.676   2.670  0.0961 -0.0224 -0.0355
12062W        W28323   5.577   2.737  15.869  0.3000 -0.1845  0.3213
12063W        W28324  13.083   6.712  12.596  0.0334  0.1226 -0.1112
12064W        W28325  14.150  11.844  13.852 -0.2794  0.3573 -0.1150
12065W        W28326   2.383   3.455  14.002  0.2416 -0.0702  0.2472
12066W        W28327   8.171  13.350  15.644 -0.0014  0.2033 -0.2030
12067W        W28328  15.229  14.797  16.516 -0.0669 -0.2006 -0.1845
12068W        W28329  14.604   3.092   3.622  0.3492  0.0479  0.0368
12069W        W28330   8.363   5.290  14.811  0.0011  0.0213  0.1255
12070W        W28331   6.772   8.779   5.167 -0.1029 -0.0971  0.3229
12071W        W28332  12.869  13.766  12.385 -0.0520 -0.1731 -0.1944
12072W        W28333  10.413   2.031  14.081  0.0861  0.1990 -0.2035
12073W        W28334   8.597   9.426  16.638 -0.0279  0.1022  0.1674
12074W        W28335  10.679   5.298   2.815 -0.2024 -0.2241 -0.0070
12075W        W28336  15.384  17.570  13.596  0.1006 -0.1290 -0.0522
12076W        W28337   0.499  17.406  12.963  0.3544 -0.3012 -0.4703
12077W        W28338  13.057   8.419  13.760  0.1654 -0.0286  0.1594
12078W        W28339   8.369   9.970  15.012 -0.2203 -0.0612  0.1160
12079W        W28340  17.689  14.307  12.339  0.5178 -0.4771 -0.2721
12080W        W28341   6.600   0.440  12.619  0.0323 -0.0076 -0.0782
12081W        W28342  14.143   3.397   1.173  0.2240 -0.0838  0.3259
12082W        W28343  16.159  14.713   4.167 -0.1631  0.3523  0.0448
12083W        W28344   0.969   4.699   4.878  0.1089 -0.2943  0.1631
12084W        W28345  12.864   3.962  13.816  0.1412 -0.0262  0.0699
12085W        W28346   4.460  13.231  15.166 -0.0942 -0.2515  0.0371
12086W        W28347  14.584   4.332  13.309  0.1551  0.0984  0.0093
12087W        W28348  10.941   8.844  13.339 -0.2367  0.1219  0.2468
12088W        W28349  12.815   7.164  11.786  0.0555 -0.1017  0.3038
12089W        W28350  13.446   6.345   1.107 -0.0215  0.3048 -0.1182
12090W        W28351  13.638   0.803   3.381 -0.2418  0.1132 -0.0039
12091W        W28352   9.631   5.360   4.955 -0.1336  0.0420  0.1706
12092W        W28353  13.107  12.469  14.231 -0.2042  0.1346 -0.0284
12093W        W28354  10.969   6.801   4.807  0.0882 -0.1829  0.0143
12094W        W28355  13.191  14.218  15.408 -0.2403  0.1008 -0.1235
12095W        W28356   9.201  15.848   2.762 -0.0597  0.0001 -0.1388
12096W        W28357   6.369   3.744   5.618  0.0530  0.0297 -0.0357
12097W        W28358   3.488   9.164  14.862 -0.0156  0.1261 -0.0288
12098W        W28359  11.287   0.164   3.352 -0.0507 -0.1533  0.3426
12099W        W28360   1.804   2.509  11.523  0.0103  0.0852  0.0389
12100W        W28361   5.526  14.959  11.957 -0.1998  0.1631  0.2590
12101W        W28362  10.182  11.642  14.185  0.0852 -0.0889 -0.4432
12102W        W28363   1.135   0.435   5.491 -0.2818 -0.0684  0.1578
12103W        W28364   2.356   7.780  16.086 -0.0135 -0.0570 -0.0882
12104W        W28365   4.608  16.348   4.371 -0.1773  0.0829  0.1628
12105W        W28366   4.942  13.348   4.403 -0.1189 -0.2965 -0.2857
12106W        W28367  15.770   5.463  13.832  0.2478  0.1649  0.3463
12107W        W28368  16.268  17.312  13.468  0.0661 -0.0934 -0.0046
12108W        W28369  15.919   2.897  12.696  0.0213 -0.0482 -0.0954
12109W        W28370  13.392   0.011  13.367  0.1060 -0.2127 -0.0710
12110W        W28371   2.399   0.105  16.458  0.0856  0.2537 -0.0486
12111W        W28372   4.437   3.238  12.663  0.1560  0.0946  0.0990
12112W        W28373   2.559   7.217   0.883  0.2595 -0.0539 -0.0656
12113W        W28374   3.153   7.350   1.813  0.1231  0.0420  0.1045
12114W        W28375   5.820   3.712   2.753 -0.1370  0.0656 -0.0442
12115W        W28376   8.598   4.084   1.737 -0.0521 -0.2342  0.2674
12116W        W28377   7.947  16.769  16.380 -0.1441  0.1218 -0.1052
12117W        W28378   0.915  12.287  14.715  0.0459  0.1538 -0.0574
12118W        W28379   6.906   6.222   5.022  0.3517  0.1230 -0.1426
12119W        W28380   4.736  11.120  13.021  0.1714 -0.0090  0.2184
12120W        W28381  12.806   7.876   4.384 -0.4822  0.1766  0.0499
12121W        W28382   9.291  16.542  13.116 -0.1405  0.2064  0.1252
12122W        W28383   4.669   9.034  12.222  0.0229 -0.1465  0.0153
12123W        W28384  14.824  17.374  11.715 -0.0383  0.2194 -0.0403
12124W        W28385  11.756   7.095   3.852  0.0460  0.0433 -0.2592
12125W        W28386   5.726  12.523   2.123 -0.0423  0.0649 -0.1039
12126W        W28387   2.609   9.348   5.103  0.2562  0.1152  0.1647
12127W        W28388   9.049   4.837   3.325  0.3097 -0.0127  0.3948
12128W        W28389   3.924  15.357   0.632 -0.0878  0.1875 -0.0201
12129W        W28390   9.085  12.014  12.119  0.1872 -0.1128 -0.1727
12130W        W28391   5.198   3.601  15.592 -0.3606  0.0436 -0.0265
12131W        W28392  11.578  12.955  13.081 -0.1476 -0.2235 -0.1338
12132W        W28393  11.253   1.762   4.728  0.0521  0.1178 -0.3118
12133W        W28394   8.275   5.443   0.216  0.2497  0.1067 -0.0641
12134W        W28395  16.175  12.658  16.644 -0.2563 -0.1521 -0.2446
12135W        W28396  10.241  11.999  15.444 -0.3276  0.0364  0.0698
12136W        W28397   6.639   6.937   1.580 -0.2482 -0.1882  0.1400
12137W        W28398  16.362   3.822  15.537 -0.0285  0.1271 -0.3748
12138W        W28399  14.674  11.736  14.665 -0.0136  0.1845 -0.0786
12139W        W28400   6.640   8.164  12.676  0.1216 -0.3148 -0.0149
12140W        W28401   3.651   4.730  12.181 -0.2045  0.1586 -0.1340
12141W        W28402  14.265  15.246   1.630  0.2404  0.3221 -0.0359
12142W        W28403   2.360  15.880  14.540 -0.1139 -0.0891 -0.0846
12143W        W28404  15.813   2.707  13.176 -0.0246  0.0349  0.1890
12144W        W28405  13.696  15.877   5.032  0.1056 -0.2943 -0.1619
12145W        W28406  12.870  10.232   2.068  0.0186 -0.0685  0.0918
12146W        W28407   4.867  12.933   3.605 -0.0461 -0.1262 -0.0801
12147W        W28408   2.913   6.296  16.860  0.0418 -0.1388  0.1855
12148W        W28409   3.636   0.657  11.131  0.4907  0.1070  0.1756
12149W        W28410   0.062   9.442  16.502  0.0293  0.0895  0.0523
12150W        W28411  12.597   8.637   2.138  0.0848 -0.1202 -0.0722
12151W        W28412  14.916  17.705  16.272  0.1190  0.0154  0.1564
12152W        W28413  16.701  13.053  15.901  0.1930 -0.0885  0.3165
12153W        W28414  16.808   1.190   3.125  0.2444 -0.0228  0.1685
12154W        W28415  10.996   5.732  16.626  0.0087 -0.0107  0.0639
12155W        W28416  10.393   1.694   2.146  0.1546 -0.0639 -0.0709
12156W        W28417   7.443   3.313  15.680 -0.0646 -0.1220 -0.4153
12157W        W28418   4.738  16.135   2.816 -0.1405  0.3224 -0.1807
12158W        W28419   9.155   6.343  16.429 -0.1683 -0.2226 -0.0525
12159W        W28420  10.825  12.214   0.046  0.1522 -0.1314  0.1734
12160W        W28421  12.734   9.991   4.265 -0.0165  0.0741  0.3086
12161W        W28422  15.122  12.592  12.476 -0.0795 -0.1837 -0.0195
12162W        W28423  17.566   7.769  12.057 -0.0228  0.0571 -0.2018
12163W        W28424   4.661  16.301   5.953  0.2171 -0.3523  0.0161
12164W        W28425  16.669   2.623   4.906  0.0440 -0.0259  0.1605
12165W        W28426  14.741   0.698  12.461 -0.0197 -0.0282  0.1522
12166W        W28427   8.344   9.467  13.542  0.1516 -0.4390 -0.2856
12167W        W28428  17.632   9.600  12.339  0.0694  0.2158 -0.1078
12168W        W28429  14.163  15.504  16.010  0.0242  0.6086  0.2275
12169W        W28430  15.704   6.682   1.468  0.1472 -0.1036  0.3246
12170W        W28431   0.629   3.119   2.344 -0.1946  0.1419  0.1509
12171W        W28432  13.332   8.960   0.888 -0.1417  0.0013 -0.1633
12172W        W28433   0.913  15.257   0.121 -0.0518  0.1650 -0.2945
12173W        W28434  16.357   3.244   4.041  0.0888 -0.0912 -0.0044
12174W        W28435   2.623  11.355   1.546  0.3831 -0.0742 -0.0172
12175W        W28436   1.342   2.287   0.641 -0.1749 -0.0335 -0.0266
12176W        W28437  15.024   2.432  12.877  0.2389 -0.2112  0.1044
12177W        W28438  17.771   8.942  15.889  0.2354 -0.2583  0.2461
12178W        W28439   6.379  11.875  13.014  0.1719 -0.0653  0.0892
12179W        W28440   0.329   0.260   4.095 -0.0268 -0.3241 -0.1931
12180W        W28441   6.171   8.649   3.499  0.0274  0.0641  0.3570
12181W        W28442   8.705   6.530  14.137  0.0446 -0.2656 -0.1325
12182W        W28443   0.024  15.054   4.359  0.0245 -0.1717  0.3342
12183W        W28444  15.809   9.435  12.683  0.1504  0.1304  0.3575
12184W        W28445   1.735   7.347   4.262  0.3145  0.1488 -0.0827
12185W        W28446  14.200   2.789  15.747  0.2992 -0.0532 -0.1625
12186W        W28447  13.332   4.742   4.891 -0.1283 -0.2434  0.0774
12187W        W28448   4.637   3.528   2.673  0.3496 -0.2536  0.1679
12188W        W28449   0.008   3.732  16.681 -0.0959  0.1006 -0.0934
12189W        W28450  12.478   8.587   5.715 -0.0384 -0.1412  0.1130
12190W        W28451   0.894  13.310  14.855  0.2761 -0.1315  0.2681
12191W        W28452  13.043  14.323  13.936 -0.0682  0.1747 -0.1551
12192W        W28453  10.668  13.618  15.454  0.3733  0.0532 -0.5643
12193W        W28454  16.552  11.468  13.776 -0.0476 -0.0186 -0.0195
12194W        W28455  16.039   4.974  15.732  0.0403 -0.1920  0.0832
12195W        W28456  16.100  16.637   5.887  0.0665 -0.0352 -0.1619
12196W        W28457   4.292   1.104   0.189 -0.1235  0.1059 -0.0736
12197W        W28458   0.299  16.680  14.701  0.0301 -0.1474  0.1583
12198W        W28459   2.837   5.127   0.651 -0.1126 -0.1838 -0.0611
12199W        W28460   3.386  10.517  14.899  0.0448  0.1567  0.1358
12200W        W28461   8.663   0.912   3.269 -0.0926  0.0729  0.1093
12201W        W28462   9.508   1.317   5.210 -0.1538  0.1311 -0.1704
12202W        W28463   9.784  14.102   1.356 -0.0347  0.0108 -0.2242
12203W        W28464   7.120  15.274  12.427 -0.0021 -0.3221  0.3730
12204W        W28465   1.269   9.069   2.182  0.0609  0.1593  0.1576
12205W        W28466   3.639  13.429  11.004  0.1764  0.1833  0.0505
12206W        W28467  11.363   3.965  11.431  0.2115 -0.0651  0.0436
12207W        W28468  14.768  15.842   0.660  0.1868 -0.2942  0.0190
12208W        W28469  10.959  10.853  12.325 -0.0545 -0.1911  0.2981
12209W        W28470   4.413   4.378  14.815 -0.2554 -0.3679 -0.1045
12210W        W28471  11.291  10.652  12.571  0.0885  0.0924  0.0433
12211W        W28472  11.070   4.888  13.787 -0.0964  0.0924  0.1067
12212W        W28473   2.720   3.854   3.822 -0.0142  0.0962  0.2922
12213W        W28474   9.131   6.286  12.903  0.0817 -0.0120 -0.4798
12214W        W28475  17.794   2.140   2.896  0.0341  0.0176 -0.1437
12215W        W28476  12.349   9.764  15.523 -0.3231  0.2534 -0.1895
12216W        W28477  12.518  14.297  14.487 -0.1023 -0.1216  0.3000
12217W        W28478  14.560   0.464  14.957 -0.1215  0.0915 -0.0969
12218W        W28479   0.681   5.696   5.007  0.3048 -0.0803  0.1453
12219W        W28480  17.253  10.680   0.649 -0.1261 -0.1077 -0.1566
12220W        W28481  11.947  17.839  14.013 -0.4811 -0.0112  0.1268
12221W        W28482  17.105   0.192  16.147  0.0083 -0.2849  0.0640
12222W        W28483  13.299  13.323  13.634  0.0813  0.1741 -0.1300
12223W        W28484  14.403  13.598   1.417 -0.0949  0.0140 -0.2943
12224W        W28485   4.232   7.938   0.393 -0.4022 -0.5448  0.2405
12225W        W28486   8.693   8.276   0.273 -0.0813 -0.3826 -0.3621
12226W        W28487  10.070  10.041   1.960 -0.2005 -0.0917 -0.1760
12227W        W28488   8.763  13.369  14.069  0.0069 -0.1293  0.1842
12228W        W28489   7.262   4.761   4.287 -0.2520 -0.3306  0.0108
12229W        W28490  10.298   8.360   1.037  0.0415 -0.1718  0.1174
12230W        W28491  14.555   8.952   1.626 -0.2420  0.1385  0.2767
12231W        W28492   7.404  15.510  15.687  0.0530 -0.0532 -0.0807
12232W        W28493   0.950   2.029  15.637 -0.0519  0.0690  0.0481
12233W        W28494  14.888  14.454   0.387  0.1541  0.1134 -0.2785
12234W        W28495  14.582  13.786  11.820 -0.1266  0.2594  0.0018
12235W        W28496   2.276   3.015  16.838 -0.0127 -0.1050  0.0473
12236W        W28497   2.563  11.802   5.626 -0.0160  0.0734 -0.1912
12237W        W28498   5.499   1.150   1.771  0.2133 -0.2993 -0.1261
12238W        W28499  14.011   3.301   2.949  0.0672  0.0750  0.1098
12239W        W28500   2.429   4.870   0.810  0.4569 -0.4040 -0.0330
12240W        W28501  16.828  15.406   1.530  0.1404  0.3301  0.1988
12241W        W28502  13.282  10.832  13.842  0.2762  0.0782  0.1023
12242W        W28503  14.003   8.205  12.811 -0.2233  0.1928  0.0078
12243W        W28504   0.293  12.730  15.821 -0.0638 -0.1950 -0.0647
12244W        W28505  12.585   6.585   1.324 -0.0000  0.2435  0.3580
12245W        W28506   4.138  16.228  12.136  0.1049 -0.2212  0.0452
12246W        W28507   5.637   4.722  13.892  0.0600  0.1780  0.0006
12247W        W28508  10.136  14.202   2.121 -0.0044 -0.1729  0.0509
12248W        W28509   6.726  13.863  11.589  0.0137 -0.2496 -0.1077
12249W        W28510  13.450   8.330  14.653  0.0954  0.0257  0.1904
12250W        W28511  13.634  17.649   4.365 -0.1419  0.0650  0.1153
12251W        W28512  15.594   8.862   3.238 -0.0524  0.2698 -0.0048
12252W        W28513  11.530   6.553   5.462  0.0775 -0.0427 -0.0814
12253W        W28514   8.674   2.098  12.769  0.0533 -0.0595  0.1424
12254W        W28515   3.571  11.511   4.750 -0.1627  0.0382 -0.1606
12255W        W28516   4.805   0.148   3.699  0.2761  0.0623 -0.0648
12256W        W28517   9.797  11.029   1.868 -0.0057 -0.3520  0.1995
12257W        W28518  13.680   0.766   4.024  0.0174  0.1634  0.1341
12258W        W28519   6.190  14.051   3.874 -0.2131 -0.3050  0.0901
12259W        W28520   5.850   8.323  15.300 -0.0553 -0.2948 -0.1443
12260W        W28521   5.784  10.498   2.178  0.0983 -0.1089  0.0313
12261W        W28522  12.882   4.579   4.802 -0.3194  0.3541  0.1824
12262W        W28523   2.459  10.001   0.202  0.3500  0.2293  0.0155
12263W        W28524  15.844  14.699   1.625  0.1253  0.2052  0.0773
12264W        W28525  12.536  13.958   4.445  0.0545  0.0434 -0.0788
12265W        W28526   2.371   9.864  15.888 -0.1876  0.0382  0.1599
12266W        W28527  11.700  16.919  14.209  0.1911  0.1818 -0.0790
12267W        W28528   1.140   8.009   4.351 -0.3074  0.0150  0.0314
12268W        W28529  11.152  17.245   1.716 -0.0563 -0.0865  0.3341
12269W        W28530   9.555   1.711   0.930 -0.1449  0.2416  0.0651
12270W        W28531  14.602   4.028   3.527 -0.3341 -0.1706  0.0275
12271W        W28532  10.856   8.615   4.958  0.1615  0.0849 -0.3663
12272W        W28533   0.475   5.801   2.795  0.1065  0.2293 -0.1133
12273W        W28534   2.882   7.601   0.924 -0.0424  0.2235 -0.0678
12274W        W28535  17.274  14.859  13.694 -0.2236  0.2017  0.1142
12275W        W28536   3.193  16.837   1.339 -0.1942  0.0961  0.0302
12276W        W28537   9.204   5.620   2.852 -0.0032 -0.3373  0.0207
12277W        W28538  15.348   1.517   3.065  0.2007 -0.1916  0.0584
12278W        W28539   7.810   1.490   2.994 -0.1992 -0.3543  0.0734
12279W        W28540  16.275   8.469  14.930 -0.0485  0.1785 -0.0644
12280W        W28541  15.689  12.155   0.307 -0.1637 -0.2829  0.1584
12281W        W28542  10.480  12.236  11.587 -0.5520  0.3087  0.1902
12282W        W28543  17.475   5.137   2.519 -0.1717 -0.0560  0.2227
12283W        W28544  14.216   5.929   4.458 -0.0215  0.0493  0.1420
12284W        W28545  15.353  11.141  12.702 -0.0150 -0.0565 -0.3449
12285W        W28546   7.047   4.786  16.789  0.0046  0.1449 -0.0020
12286W        W28547  13.173  15.607   1.408 -0.0085  0.0839  0.3061
12287W        W28548   0.722  15.017   3.666 -0.1337  0.0352  0.2767
12288W        W28549   4.304   0.064   2.121  0.3157 -0.2753  0.1756
12289W        W28550  10.305  12.217   1.522  0.0515  0.1298  0.0287
12290W        W28551  11.186   6.493   2.614  0.1689  0.0737  0.1626
12291W        W28552  15.961   4.791   4.088  0.2067  0.0937  0.0138
12292W        W28553  11.617  12.991  16.807  0.1437 -0.1001 -0.1367
12293W        W28554  17.313  11.711  15.262  0.0153  0.2937 -0.4236
12294W        W28555   5.747  12.293   3.500 -0.0156  0.0934  0.0755
12295W        W28556   3.364   9.085  14.337  0.1296 -0.0373  0.0490
12296W        W28557  13.122   6.604   1.899  0.1473 -0.4527  0.3223
12297W        W28558  11.369  11.023  16.477  0.3566 -0.2025  0.0409
12298W        W28559  12.626   2.522  16.367 -0.0995  0.1203  0.1771
12299W        W28560  14.123   7.297   3.270 -0.1767  0.0431 -0.2465
12300W        W28561  16.683  13.597  14.774  0.1395 -0.2400 -0.1498
12301W        W28562   4.701   3.427   0.732  0.0882  0.5006 -0.0796
12302W        W28563  15.877  13.762  15.317 -0.1134 -0.1164  0.0795
12303W        W28564  15.516   4.327  13.303 -0.2091 -0.1499  0.0227
12304W        W28565  12.886   2.752   4.349 -0.0053 -0.0885  0.0196
12305W        W28566  14.122  14.131   0.800 -0.0362 -0.3153  0.2989
12306W        W28567   0.482  16.831  11.973  0.0189 -0.0829 -0.2357
12307W        W28568  14.902   2.626  15.940 -0.2053  0.3906  0.4398
12308W        W28569   6.033   7.088  13.658  0.0428  0.0808 -0.1441
12309W        W28570   2.402   9.726  12.494  0.1902 -0.1572  0.1396
12310W        W28571   3.817  14.628   1.499 -0.0920  0.0016 -0.1381
12311W        W28572   0.702  11.368   2.454 -0.1093  0.1232  0.0105
12312W        W28573  15.410  15.593  14.624 -0.1046 -0.2243  0.1880
12313W        W28574  12.252  10.472  12.968  0.0494  0.1193  0.0520
12314W        W28575  16.240   7.861   0.749 -0.0239  0.1533  0.1119
12315W        W28576  13.051  11.328  12.488 -0.0022 -0.0879 -0.1746
12316W        W28577  12.010   0.462  16.700 -0.0345 -0.0331  0.1283
12317W        W28578  13.436  11.014  16.113  0.0823 -0.2166  0.1866
12318W        W28579  13.596  12.220   3.606 -0.0178 -0.0168  0.2172
12319W        W28580  14.932  15.561   3.003  0.2491 -0.2752 -0.0462
12320W        W28581  16.670   1.902  13.062 -0.3331 -0.0390  0.0778
12321W        W28582   7.508   4.166   2.529  0.0865  0.4854  0.0085
12322W        W28583   7.793   1.789  16.644 -0.3491  0.3405  0.0201
12323W        W28584  16.446  12.521  13.059  0.3005 -0.3004  0.0535
12324W        W28585   4.200   6.545  14.512  0.1064 -0.2305 -0.0713
12325W        W28586   1.843  12.067  13.469  0.2187 -0.2244  0.0399
12326W        W28587   9.905  12.387  16.665 -0.0356 -0.0787  0.1857
12327W        W28588   7.865  10.694   2.295  0.0839 -0.1155  0.0571
12328W        W28589   2.355   3.101   4.330 -0.0994  0.1748 -0.2300
12329W        W28590   6.462   6.681   2.737  0.0149  0.1085 -0.2638
12330W        W28591  17.462   6.196   4.145  0.2725  0.0814 -0.1908
12331W        W28592   3.153   5.759  13.388  0.1397 -0.0784 -0.1526
12332W        W28593   4.666   9.845  13.423 -0.0938 -0.1755  0.3550
12333W        W28594   6.052  17.338   3.627 -0.1031 -0.1448 -0.2709
12334W        W28595   4.354   5.425   4.665 -0.1220 -0.0732 -0.0667
12335W        W28596  11.317  10.569  12.079 -0.1309  0.1258 -0.1443
12336W        W28597   5.206   4.731   2.137  0.1748  0.2966  0.2108
12337W        W28598   8.998   8.257  14.047 -0.4839  0.0020 -0.0670
12338W        W28599   5.040   5.875  15.333  0.2056  0.0859 -0.1424
12339W        W28600   1.372   2.872  15.166 -0.1604 -0.0729 -0.1551
12340W        W28601  13.546   1.926  14.377  0.3597  0.0954 -0.0026
12341W        W28602  13.489  15.101   5.632  0.4310  0.1164  0.1582
12342W        W28603   4.351  10.310  13.161  0.0673 -0.2070 -0.0008
12343W        W28604   9.808  15.707  14.793 -0.1431 -0.3589 -0.1895
12344W        W28605   0.072   6.191  15.633 -0.2047  0.0009  0.2845
12345W        W28606   1.697   5.779  12.814 -0.0235 -0.0559 -0.0381
12346W        W28607   6.010  12.219  16.213  0.1541 -0.1466  0.1383
12347W        W28608  14.070   1.303   5.119 -0.2065 -0.0564 -0.0535
12348W        W28609   5.066   7.033   2.964  0.2248 -0.1306  0.0709
12349W        W28610   0.417  12.180   4.899 -0.0256 -0.0932  0.0084
12350W        W28611   5.955   8.718  15.709  0.1480 -0.2619 -0.1449
12351W        W28612  12.954   3.587  11.504 -0.0796  0.1278  0.1384
12352W        W28613  10.272   6.968  14.572  0.1431  0.0669  0.4118
12353W        W28614   2.556  15.524   3.832 -0.2610 -0.0433 -0.3241
12354W        W28615  14.888   1.501  13.120  0.1168 -0.0204  0.0360
12355W        W28616   6.687  15.294   5.332  0.4131 -0.0118  0.0735
12356W        W28617   4.693   0.756   2.450 -0.1194 -0.3128 -0.1137
12357W        W28618   3.257  17.720   2.995 -0.3172  0.1706 -0.0972
12358W        W28619   1.423   3.724  12.650  0.2936  0.1281  0.1369
12359W        W28620   5.923   1.605  14.843  0.1775 -0.0988 -0.0042
12360W        W28621  12.471   8.313  12.998 -0.0347 -0.1037 -0.0512
12361W        W28622  15.431  16.898  14.051  0.0824 -0.0936 -0.3220
12362W        W28623  16.719  16.562  13.882  0.3024 -0.2633 -0.0890
12363W        W28624   5.527   9.640  14.963  0.0650 -0.5101 -0.1299
12364W        W28625   4.882   3.109   4.181  0.0776  0.0919  0.0619
12365W        W28626  13.407  17.392  16.756 -0.0590  0.1648  0.3285
12366W        W28627   6.808  10.599   3.033  0.1725 -0.2878  0.0801
12367W        W28628  13.581   2.644  13.141  0.3194  0.0572 -0.0379
12368W        W28629   5.098   4.270  12.446 -0.3370  0.1840 -0.0488
12369W        W28630  16.789   6.828  16.192  0.2577 -0.1875  0.2506
12370W        W28631  13.397   1.106   3.687  0.3280 -0.3473  0.0442
12371W        W28632  13.439   5.678  15.200  0.3045 -0.2023 -0.4276
12372W        W28633   5.791  13.848  14.831 -0.1297  0.1211  0.1392
12373W        W28634   9.628   0.687   1.188 -0.0249 -0.1538  0.1366
12374W        W28635   1.073  16.084  16.757 -0.0616  0.0700  0.1173
12375W        W28636  10.094  14.158   3.602 -0.2313 -0.0237  0.2559
12376W        W28637  12.089  11.906  15.155  0.3362  0.1900  0.1899
12377W        W28638   0.016  14.153   4.159  0.0019 -0.2956  0.0151
12378W        W28639   8.764  15.646  16.825 -0.2896 -0.2631  0.4543
12379W        W28640   5.800   2.290   2.981 -0.0897 -0.3800  0.0812
12380W        W28641   2.977   9.409  16.813  0.1602 -0.0492  0.4892
12381W        W28642   4.919   9.082   1.530  0.1797 -0.1183  0.1772
12382W        W28643  10.468   4.243  15.197  0.0301 -0.1064 -0.0961
12383W        W28644   1.186   7.929  13.748 -0.1774 -0.2016 -0.3584
12384W        W28645   8.161   1.032  14.472  0.0534  0.1155  0.0762
12385W        W28646   0.030   1.930   1.978 -0.0950 -0.3310  0.1445
12386W        W28647   4.680   2.376  12.777  0.0633 -0.0231  0.0620
12387W        W28648   4.395  17.635  12.121 -0.4051 -0.0241  0.0396
12388W        W28649   8.170   1.862   2.836  0.1143 -0.1743 -0.1586
12389W        W28650   6.146   4.786  16.390 -0.0930 -0.3363 -0.0261
12390W        W28651  10.785   3.301  15.525  0.0497 -0.0622  0.1575
12391W        W28652  13.094   6.257  11.656  0.1272  0.0626  0.2424
12392W        W28653  11.519  14.633  11.912  0.1478  0.1331 -0.0559
12393W        W28654   1.225  15.560   0.860 -0.1050  0.2829 -0.2048
12394W        W28655   5.151   7.378  16.248 -0.1464  0.1090  0.1784
12395W        W28656  13.098  13.390   2.377 -0.0991  0.0868 -0.1073
12396W        W28657  16.384  11.713  12.726  0.0898 -0.1845 -0.0137
12397W        W28658   4.985  14.614   4.571  0.0867  0.0792 -0.1330
12398W        W28659   1.024  17.825   2.502 -0.1319 -0.1533  0.0634
12399W        W28660  13.914   6.437   4.384  0.1450  0.0591  0.2786
12400W        W28661   3.240   1.129  15.937 -0.0813 -0.3151  0.1433
12401W        W28662   7.985  16.696  14.111 -0.0813 -0.1740  0.1253
12402W        W28663   5.030  12.652  12.057  0.1896 -0.1047 -0.0864
12403W        W28664   2.964  15.160   4.702  0.0531 -0.1256  0.1998
12404W        W28665  14.107   9.427   1.222  0.1193  0.3177  0.4318
12405W        W28666   8.647   0.311   5.345  0.0835  0.0093  0.0495
12406W        W28667  11.751   5.324  15.303  0.0311  0.1058  0.0636
12407W        W28668  15.384   4.666   2.710  0.1228 -0.0223  0.1986
12408W        W28669  13.191   5.111  16.304 -0.1736 -0.1828 -0.0242
12409W        W28670   8.902   7.758   5.109 -0.0290 -0.0756 -0.2080
12410W        W28671   9.806   9.104  15.495  0.2433  0.0735 -0.1650
12411W        W28672  14.395   9.217  16.497  0.2559  0.1351 -0.0875
12412W        W28673   8.362  16.511   4.311 -0.1160 -0.0126 -0.0855
12413W        W28674  16.309   6.138  12.854 -0.0602 -0.1172  0.3887
12414W        W28675   6.011   5.910   5.917  0.0255 -0.0316 -0.0323
12415W        W28676  16.338  14.133   5.125 -0.0007  0.1161 -0.2636
12416W        W28677  12.560   9.421   0.366  0.2034  0.0892 -0.0027
12417W        W28678   5.159   8.039  12.873 -0.1584  0.2294 -0.0082
12418W        W28679   8.737  14.921  16.621  0.0614  0.0200 -0.0670
12419W        W28680  13.443  13.175  16.398 -0.1238 -0.1002  0.1410
12420W        W28681   9.031  17.417   1.950  0.6137 -0.1227 -0.1019
12421W        W28682   7.006   4.735   0.288  0.0143  0.3482 -0.1418
12422W        W28683   1.629   5.792  14.863 -0.1606  0.3526  0.2317
12423W        W28684   9.405   3.591   3.961  0.2484 -0.1477  0.0522
12424W        W28685  15.759  16.917   3.595 -0.1585  0.0615  0.2893
12425W        W28686   9.855   5.161  15.135 -0.0188 -0.3174  0.0590
12426W        W28687   4.874  10.219   3.067  0.3557 -0.1685  0.1044
12427W        W28688  10.202   9.436  12.687 -0.5100  0.1326 -0.1013
12428W        W28689   6.760   2.818  16.274  0.0304 -0.1282  0.1939
12429W        W28690  12.179  16.342   5.813  0.2081 -0.1993 -0.0731
12430W        W28691   3.203  16.407  15.483 -0.0694  0.0466 -0.0927
12431W        W28692   7.262  10.428   3.975 -0.1336  0.0929 -0.3999
12432W        W28693  11.508  14.586   4.655 -0.0685  0.0155 -0.0591
12433W        W28694  17.645   6.701  13.662  0.3285  0.0406  0.1160
12434W        W28695  15.151  11.931   5.567  0.2039 -0.0331 -0.0107
12435W        W28696  12.778   4.345   1.184 -0.0991 -0.1925 -0.0259
12436W        W28697   3.671   8.630  15.500 -0.2237 -0.1012 -0.0334
12437W        W28698   3.564   2.940  13.508  0.2917 -0.2652  0.1580
12438W        W28699  14.006  12.906   1.089 -0.3216  0.4545  0.1026
12439W        W28700   0.163   8.181  14.864  0.0987  0.2265  0.0266
12440W        W28701   6.720   1.983   3.001  0.3412 -0.4420 -0.1412
12441W        W28702  13.461   6.778  12.968 -0.0915  0.0494  0.2039
12442W        W28703   7.976  15.405   0.176 -0.4376  0.2424  0.2055
12443W        W28704  13.053  10.498  13.060 -0.3516  0.2570  0.2781
12444W        W28705   2.292   0.615   3.527 -0.1932 -0.0519 -0.3018
12445W        W28706   2.474  13.499  14.469  0.1685 -0.2079  0.2176
12446W        W28707  14.521  17.816  15.976  0.0624  0.0591  0.0162
12447W        W28708   4.639   7.615   4.271  0.1370  0.0825  0.2569
12448W        W28709  12.494   4.739   4.319  0.0691  0.0973  0.0360
12449W        W28710  16.168   4.387   5.876  0.0176  0.1857  0.1503
12450W        W28711  16.647  10.484   3.101  0.0415  0.1148  0.0249
12451W        W28712   8.458   1.015  15.597  0.1916  0.1765  0.0686
12452W        W28713   8.023  15.280   6.176  0.0800  0.0095 -0.1156
12453W        W28714   7.201   8.169   5.417 -0.1886 -0.0357  0.2988
12454W        W28715  13.591   7.344  16.882  0.3134  0.0220 -0.0496
12455W        W28716   8.153   2.560  14.101 -0.0040  0.0097  0.0425
12456W        W28717   5.214   9.357  12.802  0.2816 -0.2400  0.2649
12457W        W28718  10.560   4.679  13.945 -0.0719 -0.0955  0.0381
12458W        W28719  14.008   9.904   4.781  0.0240  0.0001  0.2669
12459W        W28720   4.421   2.486   1.452  0.0797  0.0693 -0.0523
12460W        W28721  14.244   0.931  15.724 -0.2341  0.0780 -0.1182
12461W        W28722   0.876  12.242  16.431 -0.1456  0.0875 -0.1619
12462W        W28723   5.556   1.022   0.794 -0.0924 -0.0334 -0.0537
12463W        W28724   0.816   5.072   2.308  0.0737  0.1652 -0.0450
12464W        W28725   0.831   8.943  16.887 -0.3924 -0.1461  0.1270
12465W        W28726   3.673   0.491   5.363 -0.4007 -0.0639 -0.3156
12466W        W28727  13.989  13.289   1.412 -0.1760 -0.1637  0.1723
12467W        W28728   4.268  11.980   4.980  0.2574 -0.2126 -0.0765
12468W        W28729   4.495  12.360   5.718  0.0184  0.0304 -0.1129
12469W        W28730   3.247   5.181   2.480  0.1530 -0.0115  0.1978
12470W        W28731  10.618   5.118  13.669 -0.0672 -0.0276 -0.1753
12471W        W28732   0.979   8.303   1.860 -0.0994 -0.2741  0.0195
12472W        W28733  16.778   0.862  15.450 -0.2903  0.0406  0.0278
12473W        W28734   6.399   1.656  13.438  0.1047  0.1953 -0.1700
12474W        W28735   7.846   0.748   4.797  0.2020  0.0445  0.0416
12475W        W28736  10.840   9.505  15.499 -0.1188 -0.2490 -0.0480
12476W        W28737  15.843  12.403  16.888 -0.1295 -0.0754 -0.2945
12477W        W28738  15.536   8.242  12.017  0.0942  0.0641  0.0287
12478W        W28739  12.952  13.204   1.867  0.0100  0.1204 -0.0885
12479W        W28740   0.273  12.025  16.444 -0.1552 -0.1884  0.0516
12480W        W28741   8.765  17.264  16.793 -0.1232 -0.0142 -0.2057
12481W        W28742   9.565  14.217  16.100 -0.0850 -0.0229  0.0093
12482W        W28743  12.930   7.943  16.029 -0.0900 -0.2289 -0.2366
12483W        W28744   7.362  11.571  13.377 -0.1022 -0.2900 -0.0172
12484W        W28745   0.286   1.803   2.668  0.1477 -0.0122 -0.0450
12485W        W28746  14.602  12.083  16.085  0.0997  0.2112 -0.1354
12486W        W28747   3.643  16.351  15.772  0.0630 -0.1931  0.0724
12487W        W28748   0.944  10.249   6.333 -0.0012  0.4090  0.0644
12488W        W28749   0.770   4.650   0.604  0.0250 -0.1662 -0.0554
12489W        W28750   0.448  11.977  12.025  0.0501  0.5044 -0.0079
12490W        W28751   0.432   0.990   1.811 -0.0225  0.1403 -0.3163
12491W        W28752   4.322   5.269  16.088 -0.0820 -0.2831 -0.1264
12492W        W28753   6.904  17.719   4.191  0.0190 -0.1787  0.1705
12493W        W28754  14.854   2.801   0.785 -0.0158 -0.1003  0.0896
12494W        W28755  10.806  16.663   2.451  0.3165 -0.0786 -0.1511
12495W        W28756  15.428   3.400  14.474 -0.1691 -0.2267  0.0401
12496W        W28757   3.995   4.366  15.189 -0.1277  0.1639 -0.2338
12497W        W28758  11.009   7.934  11.987  0.0316 -0.0863 -0.2573
12498W        W28759   9.596   6.995  13.274  0.0171  0.1100  0.0118
12499W        W28760  12.600   1.514  12.567 -0.1423 -0.0287 -0.2629
12500W        W28761  15.417   4.874  15.830  0.1032  0.3264 -0.3120
12501W        W28762   3.809  15.221  16.802 -0.1004  0.3039 -0.1653
12502W        W28763  17.026   7.818   3.090  0.2109  0.0253  0.0635
12503W        W28764  11.164  17.154  12.581 -0.1962  0.3002 -0.0420
12504W        W28765  16.688   6.428  14.080  0.4276  0.2318 -0.0284
12505W        W28766  12.077  17.270  11.997  0.2157 -0.2000 -0.0456
12506W        W28767   1.489   9.962   4.628  0.2931  0.0239 -0.0729
12507W        W28768   6.871   6.214   3.554 -0.1260 -0.2029  0.1449
12508W        W28769   5.433  13.957   4.381 -0.0389 -0.0045 -0.0935
12509W        W28770   9.794   4.411   2.419  0.2505  0.0195  0.0038
12510W        W28771   6.890   5.415  15.227  0.0118 -0.2902 -0.0780
12511W        W28772  17.252   2.263   5.756 -0.2689 -0.0858 -0.3096
12512W        W28773   4.094  11.638  12.344  0.0493  0.0549  0.0664
12513W        W28774   8.232   9.716  16.716  0.1298 -0.1364  0.1451
12514W        W28775   1.066   5.370   0.545 -0.2863 -0.4477 -0.1165
12515W        W28776  13.760  11.862   1.016  0.1438 -0.1257  0.0829
12516W        W28777  13.639   4.547   2.693 -0.2154  0.3773 -0.0350
12517W        W28778   2.015   4.438   0.801  0.0364  0.0003 -0.5625
12518W        W28779   1.057   8.965   0.344  0.0223  0.0594 -0.0518
12519W        W28780  14.988  13.183   3.198 -0.2300 -0.2015 -0.0956
12520W        W28781  16.848  10.707   3.499 -0.0770  0.2064 -0.2058
12521W        W28782   7.186   7.894  14.192 -0.3545  0.0423  0.0050
12522W        W28783   8.247  11.033  16.364  0.0480 -0.0798 -0.0374
12523W        W28784   9.300  15.431   3.885  0.0853  0.0541 -0.1439
12524W        W28785  11.154   0.442  13.857 -0.1041 -0.3788  0.0508
12525W        W28786  16.360  11.711  16.156 -0.1126  0.2116 -0.4923
12526W        W28787   1.220  10.498  16.023  0.1274  0.4229  0.2205
12527W        W28788   9.771  12.560  12.595  0.0258  0.0384  0.0813
12528W        W28789   8.820   2.428   1.566  0.0651 -0.0839 -0.1460
12529W        W28790   1.801   4.856  14.982  0.0549 -0.0005 -0.2923
12530W        W28791   8.205  16.980   0.857 -0.0533 -0.0128  0.3635
12531W        W28792  17.103  12.448   2.780 -0.1814 -0.0137  0.1468
12532W        W28793   2.621   4.190  15.897 -0.1740 -0.0138 -0.0910
12533W        W28794   0.045  10.416  15.096  0.0683  0.0230  0.0857
12534W        W28795   3.154   5.101  12.957 -0.1248 -0.0192  0.0812
12535W        W28796   1.555   0.332   0.140  0.0947 -0.0343 -0.2872
12536W        W28797  13.494   2.658   1.431  0.2648  0.3059  0.3615
12537W        W28798  13.246   6.448  15.296 -0.0877 -0.1340  0.0451
12538W        W28799  16.258  10.400   4.742 -0.0979  0.1281 -0.0691
12539W        W28800   8.627  16.560  15.723 -0.2044 -0.0470  0.0128
12540W        W28801  12.314   2.555   2.753  0.3930 -0.2367  0.0472
12541W        W28802  10.676   9.597   4.238 -0.2906  0.0796  0.2523
12542W        W28803   4.567  15.401   5.095 -0.0734  0.3489 -0.3566
12543W        W28804   2.343   8.617  14.985 -0.0349  0.0481  0.0012
12544W        W28805  15.816  17.676  15.971 -0.0238 -0.1715  0.0347
12545W        W28806  15.429   2.768  14.186 -0.1697  0.0765 -0.0452
12546W        W28807   3.760   1.688  15.557  0.0584  0.2195  0.0352
12547W        W28808  14.641  12.394   2.162 -0.0519  0.0724  0.2594
12548W        W28809   5.821  15.476  11.659  0.2182 -0.0128  0.0477
12549W        W28810   9.848   3.686   4.169  0.1946  0.0920 -0.0840
12550W        W28811  15.191  14.685  13.152 -0.1099  0.0873 -0.0749
12551W        W28812   9.648  10.792  13.942 -0.2292 -0.1263 -0.0162
12552W        W28813   5.414  10.762  12.871 -0.0065  0.1325  0.1435
12553W        W28814  17.846   2.684  15.311  0.2952 -0.0255 -0.1398
12554W        W28815  15.064   4.305   3.456  0.1577  0.1354 -0.0016
12555W        W28816  10.730   0.229   2.080  0.1003  0.0418  0.1866
12556W        W28817  10.675   7.608  12.662  0.3739  0.2748  0.0263
12557W        W28818  10.820   6.054  13.311 -0.2717 -0.2450  0.2169
12558W        W28819  15.712   2.395   2.638 -0.0661 -0.0411 -0.0398
12559W        W28820  13.686  10.425   1.164 -0.1189 -0.0160 -0.2265
12560W        W28821  14.865   5.516  14.571 -0.0155 -0.0637  0.0107
12561W        W28822   0.604  17.496   6.339 -0.0712 -0.1417  0.2024
12562W        W28823  13.610  14.417  15.568 -0.1640 -0.2111 -0.1777
12563W        W28824   4.199  12.134  11.985  0.1464 -0.0325 -0.1988
12564W        W28825   2.675   9.604   3.860 -0.1423 -0.0176  0.1689
12565W        W28826  13.461   9.578   3.835 -0.3168 -0.2052 -0.0101
12566W        W28827   5.979  16.464  15.729  0.2458  0.0114  0.1124
12567W        W28828   4.710  11.943   2.686 -0.2479  0.0834  0.0309
12568W        W28829   1.817  11.710   0.492 -0.0550 -0.0971  0.0663
12569W        W28830   0.807  16.196   3.108 -0.2529 -0.0747  0.0610
12570W        W28831   1.481  14.914  11.831  0.2513  0.4133  0.0565
12571W        W28832  11.221   5.551   5.283 -0.0360  0.1581 -0.1159
12572W        W28833   7.640  10.253   4.483  0.1229  0.1545  0.0416
12573W        W28834   7.475  15.814   2.389 -0.0100 -0.1362  0.0247
12574W        W28835   9.411   4.325  12.338  0.1347  0.0530 -0.0305
12575W        W28836   7.653  11.262  16.444 -0.0621  0.0283  0.1770
12576W        W28837   1.913   3.123  14.180  0.1638  0.0159  0.0919
12577W        W28838  12.876  15.880  13.509 -0.3018  0.1137 -0.1427
12578W        W28839   8.850  14.997  14.578  0.0578  0.2705  0.1495
12579W        W28840  13.018  17.785   0.628  0.0325 -0.1666  0.0153
12580W        W28841   6.756   4.312  14.114  0.2297 -0.3315 -0.3031
12581W        W28842   3.977   4.969   4.802 -0.2154 -0.0081  0.0233
12582W        W28843  12.525   7.877   6.215 -0.0521  0.0478  0.2434
12583W        W28844   2.934   8.037   0.016 -0.0916  0.2533  0.1862
12584W        W28845  14.472  11.134  16.556  0.1449  0.1045 -0.0432
12585W        W28846   9.476   6.456   3.680  0.0157  0.0739 -0.2101
12586W        W28847  15.400   7.030  12.163  0.0858 -0.0433 -0.1380
12587W        W28848   9.370  13.799   0.068  0.1200 -0.0436  0.0877
12588W        W28849  14.605   9.208  13.438  0.2912  0.2058 -0.2990
12589W        W28850  11.191  14.752   0.761  0.1615  0.1660 -0.0040
12590W        W28851   6.884  11.908   2.681 -0.0822 -0.1383 -0.2261
12591W        W28852   3.543   7.221   3.629 -0.0832 -0.0157 -0.0526
12592W        W28853   8.138  15.812   1.231 -0.1996  0.1852  0.1127
12593W        W28854   1.980  16.691   4.304 -0.0401 -0.0497 -0.3350
12594W        W28855  13.098   6.668  16.899 -0.4447  0.1634  0.1029
12595W        W28856   7.974   0.253  16.797  0.2880  0.0390 -0.0611
12596W        W28857  12.792   6.663   2.728 -0.1335  0.3174 -0.2442
12597W        W28858  15.476   0.174   0.583  0.2043 -0.1220  0.0775
12598W        W28859  12.641  12.391  14.096 -0.2275  0.1204 -0.1406
12599W        W28860  17.684  15.785  15.139 -0.1565  0.4065  0.0203
12600W        W28861   1.748  16.649  11.924  0.2782 -0.2100  0.1857
12601W        W28862  12.736   5.469   4.444 -0.3358  0.0365 -0.0478
12602W        W28863  10.313   9.715  14.206 -0.2277  0.0726  0.0335
12603W        W28864   2.061  11.318  12.362  0.0029 -0.1483  0.0165
12604W        W28865   4.436  17.574   4.418  0.1490 -0.0696 -0.1875
12605W        W28866  12.041   6.574  12.036  0.2559 -0.0733  0.2592
12606W        W28867   9.465   6.049   2.703  0.2444  0.0095  0.2897
12607W        W28868   8.714  11.294  16.788  0.1302  0.1540  0.1345
12608W        W28869  14.468  12.108  13.003  0.1241  0.1077 -0.0869
12609W        W28870  13.556  11.339   1.849  0.0783 -0.1005 -0.1462
12610W        W28871  17.357  10.808  15.681  0.1910 -0.3896  0.0578
12611W        W28872  17.418   8.713  11.973  0.1572  0.0231  0.0408
12612W        W28873   0.313   1.478  14.518 -0.1913 -0.0190 -0.1328
12613W        W28874   1.744   9.352   5.326  0.0147 -0.0786  0.3056
12614W        W28875   0.800   8.837   2.134 -0.1240  0.2523  0.0774
12615W        W28876  17.811   2.399  12.440 -0.0997  0.1735 -0.3086
12616W        W28877  16.730   8.014   1.471  0.0105 -0.1636 -0.1614
12617W        W28878  14.041  13.460   5.605 -0.1636  0.2731 -0.1839
12618W        W28879  17.849  12.379  16.916 -0.2226  0.0227  0.2640
12619W        W28880  10.371  15.444  15.988  0.1666 -0.0998  0.1509
12620W        W28881   5.628  14.760   1.859 -0.2314 -0.1056  0.1563
12621W        W28882   6.165   5.665   1.495 -0.0926 -0.1778  0.1016
12622W        W28883  14.910  13.572  13.989 -0.2690 -0.0390 -0.0989
12623W        W28884   2.514   1.725   3.749  0.0213  0.0550  0.0559
12624W        W28885   3.201   6.306   6.635 -0.1513 -0.0219 -0.5277
12625W        W28886  13.823  13.294  14.785 -0.0065 -0.0086 -0.3310
12626W        W28887   6.467  12.304  16.476  0.0796 -0.2232 -0.2307
12627W        W28888   6.194   9.072   2.450 -0.2326  0.5306  0.1824
12628W        W28889  16.819   7.203  16.626 -0.1849 -0.1323  0.2736
12629W        W28890  10.391   5.107  14.180  0.1150  0.1594 -0.0237
12630W        W28891   0.383   2.698  14.482  0.0744  0.0523 -0.2170
12631W        W28892   7.105  13.119  14.804 -0.1630  0.0543 -0.2947
12632W        W28893   1.111  10.329   4.491 -0.4691  0.1036 -0.2256
12633W        W28894   9.311   9.026   1.829  0.2572  0.3047 -0.0570
12634W        W28895   9.240   2.427   2.391  0.2830 -0.1446  0.1152
12635W        W28896   9.726   2.208   2.270 -0.3166 -0.0437 -0.0449
12636W        W28897  13.862  15.458  13.693 -0.1018  0.2892 -0.2727
12637W        W28898   0.411  13.603  12.880  0.2750 -0.1368  0.1073
12638W        W28899  13.528  13.521  16.797 -0.3175  0.0075 -0.0480
12639W        W28900   4.821   1.390  16.444  0.1424 -0.1954 -0.2453
12640W        W28901   0.394   8.161  12.306  0.1957 -0.1345 -0.3958
12641W        W28902  10.126   9.813  12.956 -0.1313 -0.1899 -0.2519
12642W        W28903  13.764  10.594   0.631 -0.0155 -0.2954 -0.0103
12643W        W28904   4.734  15.749   3.718 -0.0489  0.0588  0.0636
12644W        W28905   8.839  10.699  13.719 -0.2328 -0.1291  0.1346
12645W        W28906   0.102   6.440   4.695 -0.0499  0.0941 -0.1120
12646W        W28907  14.767   1.419   1.921  0.1770  0.3045 -0.1392
12647W        W28908  16.301   1.115  15.485  0.2844  0.0404  0.1202
12648W        W28909  16.867   2.507  14.790  0.2047  0.2012  0.1612
12649W        W28910  15.686   9.762   4.198 -0.2615 -0.0291  0.0547
12650W        W28911   4.724  17.531  15.936 -0.2097 -0.2946 -0.0592
12651W        W28912  13.998   4.035   5.079 -0.1740  0.0529 -0.0331
12652W        W28913   1.697   6.877  12.651 -0.0246  0.3227 -0.3357
12653W        W28914   4.732  13.548  11.849 -0.0028  0.0878 -0.1360
12654W        W28915   3.233   2.631  12.380  0.2633  0.0295 -0.4606
12655W        W28916  12.001   3.389  13.495  0.0417  0.1664 -0.3842
12656W        W28917   5.459  14.829   6.220  0.2495 -0.0382  0.2590
12657W        W28918   7.521   6.728   3.684 -0.0273 -0.2918 -0.0262
12658W        W28919  16.148   9.869   2.409  0.1725 -0.1908  0.1164
12659W        W28920   0.021   7.844   2.667 -0.1589 -0.2500  0.1677
12660W        W28921   6.535   8.730  11.852  0.1255 -0.1531  0.3243
12661W        W28922   5.974  17.023   2.231 -0.2106  0.0610 -0.0543
12662W        W28923   0.253  15.989   5.794  0.0522 -0.2631 -0.2438
12663W        W28924   8.249  13.246   2.433  0.0880 -0.4632  0.2534
12664W        W28925  10.220   8.007   3.434  0.1301 -0.0377  0.1776
12665W        W28926  15.043  10.925   1.367 -0.1728  0.4001  0.2339
12666W        W28927  11.163  17.277  15.849  0.1390  0.3146  0.1505
12667W        W28928  15.570  15.746  16.564  0.1031 -0.1294  0.1200
12668W        W28929  17.670  17.716  16.821 -0.3094 -0.1612 -0.3377
12669W        W28930  16.830   1.554   5.599  0.0451 -0.1622  0.2464
12670W        W28931   9.876  14.257  14.387  0.1367 -0.0179 -0.0099
12671W        W28932  11.676  15.804   0.861 -0.2584  0.0861  0.2001
12672W        W28933  17.060   6.502   3.055 -0.2493 -0.1672 -0.0182
12673W        W28934   7.203   1.744   3.906 -0.1330  0.1635  0.1090
12674W        W28935   1.085   0.720  12.522 -0.3376 -0.4021 -0.1064
12675W        W28936  14.667   7.126  12.190  0.0059 -0.0355  0.1164
12676W        W28937   5.647   3.992  14.977  0.0926 -0.1633  0.0364
12677W        W28938  15.238  11.748  14.910 -0.1034  0.1508  0.0889
12678W        W28939   3.757  10.563   1.299  0.0280  0.0435  0.5037
12679W        W28940  17.528  13.190  14.939 -0.0401  0.1068  0.3751
12680W        W28941   3.290  11.143  12.619  0.0797  0.0884 -0.0811
12681W        W28942   2.124   7.006  15.795  0.2850 -0.1580  0.0245
12682W        W28943  17.339  16.598   2.702 -0.0190 -0.0428  0.1211
12683W        W28944   8.818  17.728  16.941  0.1338  0.0805  0.1401
12684W        W28945   5.163  13.180  14.944  0.0082 -0.1570 -0.0484
12685W        W28946   2.182  12.017  15.928 -0.1551 -0.1394  0.1314
12686W        W28947   2.638   7.705   4.360  0.0614 -0.0454  0.0492
12687W        W28948  17.220  13.383  14.578 -0.2117  0.3537  0.1220
12688W        W28949   1.263  10.011   2.734  0.0568  0.0751 -0.0473
12689W        W28950  17.754   0.282   1.255  0.3937 -0.0976 -0.4748
12690W        W28951   1.201   0.939   4.590  0.1577 -0.2096 -0.0126
12691W        W28952   1.211  17.451   1.365  0.0225 -0.1368  0.2051
12692W        W28953  10.386   8.131  13.402  0.2043  0.2174  0.1964
12693W        W28954   9.435  16.815  16.049 -0.0556 -0.0887  0.0194
12694W        W28955  11.949  16.180   4.311 -0.1079  0.1264  0.1067
12695W        W28956   2.766   1.371   0.451  0.1011  0.0809 -0.2187
12696W        W28957   7.148   8.896  15.446  0.0128  0.4085  0.1100
12697W        W28958   6.859   8.334  13.994 -0.0576 -0.1700 -0.1319
12698W        W28959   2.002  14.659   1.357 -0.1374  0.0332 -0.0505
12699W        W28960   4.982  11.948  15.175  0.0884 -0.1442  0.0959
12700W        W28961   6.231   7.877   4.150  0.0574 -0.4026 -0.0390
12701W        W28962   2.440  13.067  11.408  0.0108  0.0062 -0.5029
12702W        W28963   8.463  13.451  12.045 -0.4731  0.4818  0.0592
12703W        W28964  13.744   4.867  14.355  0.2446  0.1556  0.2354
12704W        W28965  14.777   3.883  12.550 -0.1615  0.1160 -0.0899
12705W        W28966  15.916   8.262   3.759  0.1701 -0.0293 -0.0028
12706W        W28967   2.379   7.960   1.547 -0.0081  0.1457  0.0428
12707W        W28968  17.675  17.592  14.920 -0.2151 -0.1624  0.1150
12708W        W28969   1.401   5.498  13.109  0.1418  0.1222 -0.2877
12709W        W28970  11.009  17.630  16.073 -0.0330  0.0905 -0.3571
12710W        W28971   7.484   6.359   5.027  0.4115  0.0917 -0.0270
12711W        W28972  14.787  13.599   3.669  0.3028  0.2821 -0.1113
12712W        W28973   8.062   9.507  16.245  0.2525 -0.0073 -0.2858
12713W        W28974   9.519   4.324   1.948  0.0004  0.1125  0.2119
12714W        W28975  10.830   6.555  12.732  0.0590 -0.1369 -0.0580
12715W        W28976   7.956  17.646   4.482  0.0872 -0.0199  0.0935
12716W        W28977  16.333  12.338   5.236  0.0451 -0.0780  0.4149
12717W        W28978  13.216  16.800   3.591  0.0960  0.0414  0.0543
12718W        W28979  14.763   6.765  14.958 -0.0757 -0.0319 -0.1520
12719W        W28980   0.032  14.994  14.228 -0.0200 -0.3773  0.1936
12720W        W28981   2.102  13.525  15.460 -0.2573 -0.1500 -0.1543
12721W        W28982  12.313   8.971   1.263  0.2476 -0.1597 -0.0794
12722W        W28983   2.309   2.430  13.864  0.2219 -0.0914 -0.1163
12723W        W28984   1.067   1.749  16.220  0.0623 -0.2254  0.2801
12724W        W28985  14.650   2.695   0.277  0.3116  0.2655 -0.3216
12725W        W28986   8.919  16.015   3.118  0.2805 -0.3415 -0.0026
12726W        W28987  12.818   3.906   4.283 -0.1505  0.1007 -0.1361
12727W        W28988  14.774   6.354   1.615  0.0995 -0.1450 -0.2203
12728W        W28989   9.441  13.656   5.423 -0.0289  0.0431  0.1009
12729W        W28990   3.195   4.675  16.817 -0.1579  0.2496  0.0177
12730W        W28991   3.175   5.683   1.873  0.0029  0.0270 -0.0982
12731W        W28992  14.968   4.049  15.874  0.1638  0.3484  0.0125
12732W        W28993   2.859  14.805  14.221 -0.1022 -0.0227  0.3176
12733W        W28994   0.827  10.906   1.531 -0.1600  0.0709  0.1088
12734W        W28995   3.511   6.922  16.627  0.1818 -0.0733  0.0184
12735W        W28996   0.967   3.316   2.709 -0.1052  0.4452  0.2763
12736W        W28997  12.849   4.671   0.697  0.1583 -0.0673  0.0094
12737W        W28998   1.931   4.794  16.941  0.0685 -0.0387 -0.1310
12738W        W28999  14.786  12.412  13.313  0.2739  0.1155 -0.1093
12739W        W29000  15.805  11.048  12.391  0.1213 -0.0496  0.0961
12740W        W29001  12.748  15.880   4.089 -0.1792  0.3593 -0.0108
12741W        W29002  15.019   9.620  12.263 -0.1909  0.0242  0.1194
12742W        W29003   8.507  11.254   0.440  0.1469 -0.0466  0.0594
12743W        W29004  15.462   0.709   0.418  0.0884 -0.0831 -0.1851
12744W        W29005   3.485  17.221   1.303 -0.0444  0.0077 -0.1829
12745W        W29006  10.948   7.792   2.952 -0.4400  0.0784  0.1549
12746W        W29007  17.096   1.506  14.981 -0.0361  0.3395 -0.1028
12747W        W29008   6.782  14.234   5.095  0.1704 -0.2616  0.0148
12748W        W29009   4.581   6.596   3.395 -0.0037 -0.3805  0.3774
12749W        W29010   1.108  13.789  16.035 -0.2783  0.0358  0.1146
12750W        W29011   6.444   1.743   1.619 -0.0722 -0.1125 -0.0807
12751W        W29012   3.825   2.479  15.201 -0.1955  0.1451 -0.0691
12752W        W29013  13.543   6.125   4.150  0.1949 -0.1867 -0.0238
12753W        W29014  17.500   7.786  15.507  0.0056  0.0583  0.0688
12754W        W29015   1.411  16.558  12.350 -0.1739  0.1410 -0.0975
12755W        W29016  17.440  16.955   3.997  0.0671 -0.2871  0.1093
12756W        W29017   9.309   3.050  16.081  0.2047  0.1100 -0.1713
12757W        W29018  16.721   5.875   3.717  0.3493  0.2873  0.2941
12758W        W29019  13.401  11.364   1.063 -0.0117 -0.0433  0.0640
12759W        W29020  10.578   6.175  12.446 -0.1596  0.1930  0.1268
12760W        W29021  11.376   8.431   1.844 -0.2632  0.3157  0.5662
12761W        W29022  14.979  14.279   5.405 -0.0528  0.1113  0.1994
12762W        W29023   1.226   2.143   0.072  0.0860 -0.1443 -0.2101
12763W        W29024  11.610  12.510  14.696 -0.1466  0.0239  0.3700
12764W        W29025   0.196  17.729   3.694 -0.0339  0.0912 -0.1791
12765W        W29026   4.268  12.345   1.097  0.0427  0.1883 -0.1794
12766W        W29027  11.103   3.332   0.479 -0.1616  0.0250  0.3164
12767W        W29028   4.020   3.817  13.327  0.2810  0.3192 -0.1451
12768W        W29029  12.645   1.816   4.212 -0.3465 -0.1819  0.1063
12769W        W29030   8.487   7.382   3.207 -0.2287  0.3327 -0.0325
12770W        W29031  11.317  11.559   1.061 -0.1423 -0.0965  0.1196
12771W        W29032   2.246   2.555   2.675  0.2708 -0.0709  0.0668
12772W        W29033   6.747   2.692   1.560  0.2716  0.3728 -0.0243
12773W        W29034  12.663   0.665   0.810  0.0660  0.3047  0.0930
12774W        W29035   0.695   0.987  15.600 -0.3162 -0.1564  0.2029
12775W        W29036   9.739   7.026   3.620 -0.1456 -0.0349  0.3108
12776W        W29037   1.662  16.289   6.239 -0.3746  0.1851 -0.0530
12777W        W29038  14.428   1.078   2.016  0.2171  0.2226 -0.0358
12778W        W29039   5.865   9.863   4.890  0.0423  0.0520  0.1248
12779W        W29040  13.018  11.911  12.243  0.0743 -0.1191 -0.2466
12780W        W29041   2.265  10.380   2.916 -0.0884  0.2601 -0.2750
12781W        W29042   5.484   5.965   3.656  0.0791 -0.1967 -0.2090
12782W        W29043  11.185   7.370  12.681  0.0612 -0.0695  0.0428
12783W        W29044  16.447   3.721   3.517 -0.4148 -0.0251  0.2902
12784W        W29045  14.535   9.758  15.239 -0.0630 -0.0970 -0.0507
12785W        W29046  16.719   1.984  12.391 -0.0126  0.0258 -0.1293
12786W        W29047   8.937   4.141   4.406 -0.0787 -0.0267  0.0123
12787W        W29048   5.874  15.816  16.821 -0.0291  0.1305  0.0090
12788W        W29049   9.229  10.141   4.109 -0.0647  0.3009 -0.1031
12789W        W29050  16.681   1.272  15.753 -0.0780  0.2370 -0.0665
12790W        W29051   6.058  10.846   2.614  0.0278 -0.2089 -0.5178
12791W        W29052  11.157   0.290  14.426 -0.1380 -0.0510  0.0302
12792W        W29053  16.428  12.502   4.663 -0.0444 -0.0273 -0.2372
12793W        W29054  15.767  11.812  16.876 -0.2971  0.2232 -0.1936
12794W        W29055  14.898  15.749  13.887  0.0622 -0.1266 -0.2757
12795W        W29056   1.225   7.741   2.690 -0.0896  0.1755 -0.0639
12796W        W29057  13.168   3.163   1.814  0.3741 -0.0502  0.2760
12797W        W29058  12.547   6.856  15.528  0.0634 -0.2537  0.2314
12798W        W29059  13.171  10.590  15.501  0.0201 -0.0044 -0.0827
12799W        W29060  15.005   5.656   1.063 -0.0168  0.0786  0.0004
12800W        W29061  12.999  11.856   1.862  0.4437  0.1111  0.2521
12801W        W29062   7.386   0.777   0.079  0.1527  0.0043  0.0387
12802W        W29063   8.763   7.986   3.466  0.2556  0.2630  0.0317
12803W        W29064   3.328  15.244  14.672  0.0835 -0.3543  0.1425
12804W        W29065  13.555   7.526  12.188  0.1097 -0.3260 -0.4340
12805W        W29066   9.135   8.800   5.163 -0.0126 -0.1306  0.1142
12806W        W29067   7.448   4.763   0.074  0.3015 -0.1262 -0.2626
12807W        W29068  14.427   4.954   4.262 -0.0068 -0.2347 -0.0560
12808W        W29069  15.236   7.729  13.541  0.2980  0.1919 -0.0708
12809W        W29070  12.907   9.750   0.267 -0.1868 -0.0555 -0.0387
12810W        W29071   1.233  16.051   5.768 -0.0315  0.4038 -0.1433
12811W        W29072  13.683   0.077  16.073 -0.0341  0.1725 -0.2590
12812W        W29073  16.182  10.064   6.354  0.1988 -0.0953 -0.0420
12813W        W29074   6.339   9.689   5.859 -0.2263  0.1259 -0.2077
12814W        W29075  10.941   4.309   0.568 -0.2077  0.3124 -0.1815
12815W        W29076  10.916  11.449   5.693 -0.4019  0.0582  0.0053
12816W        W29077  10.334   5.154   3.181 -0.0521  0.0204  0.4039
12817W        W29078   0.146  11.601  11.825 -0.1090 -0.1462  0.1475
12818W        W29079   6.020   8.381   1.717  0.0976 -0.0953  0.0703
12819W        W29080   2.908  13.043   1.177  0.0161 -0.1026 -0.1790
12820W        W29081  12.935  16.632   2.418  0.4077  0.1019 -0.0545
12821W        W29082   9.470   0.561   4.912  0.0443 -0.1916  0.2286
12822W        W29083  10.234  10.664  14.772  0.0315 -0.0931  0.2042
12823W        W29084  10.056   0.902  13.118 -0.0008  0.0228  0.2609
12824W        W29085   6.341  15.831   3.508  0.1885  0.0756 -0.0484
12825W        W29086   4.972  17.208   2.251  0.3415  0.0238 -0.1253
12826W        W29087   6.110   1.252   1.802 -0.1521  0.1383  0.0126
12827W        W29088   2.804   2.424  12.564  0.2080 -0.1117 -0.0325
12828W        W29089   3.794   1.570  12.192  0.0898 -0.2693  0.0624
12829W        W29090   1.375  17.751  15.366 -0.1237 -0.1002 -0.0460
12830W        W29091  11.954  12.120  11.997  0.0435  0.0285  0.1300
12831W        W29092  14.293  11.936  14.390  0.0065  0.1292 -0.0863
12832W        W29093   0.889   8.283  12.543  0.0476  0.3332  0.0297
12833W        W29094  13.057  10.053  15.446 -0.2107  0.0763  0.1754
12834W        W29095  10.175   0.713   2.815  0.0016  0.0824 -0.1121
12835W        W29096  12.403   9.914  16.684  0.0760  0.2559 -0.2341
12836W        W29097   4.086  10.405   5.976  0.0361 -0.1334  0.0364
12837W        W29098  16.345   5.550   0.640  0.0342 -0.0145 -0.0043
12838W        W29099  10.817   7.574  14.923 -0.1721  0.1217  0.1049
12839W        W29100  15.427   5.565   3.730 -0.1326 -0.0717  0.0572
12840W        W29101  12.474  10.859   4.031  0.0682  0.2249  0.1177
12841W        W29102   5.526  15.064   1.409  0.1337  0.1625 -0.0925
12842W        W29103  10.187   2.156   2.026 -0.1566 -0.3224  0.2213
12843W        W29104  17.187  10.157  12.712  0.0785 -0.0308 -0.0195
12844W        W29105  13.465   3.210   0.392 -0.0987  0.3188 -0.2081
12845W        W29106  17.196  14.047   3.720 -0.4251  0.0686  0.0708
12846W        W29107   4.336  16.586   0.523 -0.0982  0.0082  0.0822
12847W        W29108  14.093  16.151   1.868  0.1060  0.3046  0.1944
12848W        W29109   1.771  14.792  14.973  0.1761  0.3149  0.0029
12849W        W29110   0.061   6.584   5.254 -0.0081  0.1602  0.3140
12850W        W29111  10.686   2.623   5.952  0.1734  0.3141  0.2390
12851W        W29112  11.042  11.653  13.943  0.2657 -0.3669  0.0782
12852W        W29113   5.149   7.430   1.227  0.0994  0.4261 -0.3020
12853W        W29114   4.336   8.709  15.303  0.3205 -0.0708  0.1293
12854W        W29115   3.585   4.035   1.433  0.1293  0.0498  0.4350
12855W        W29116  13.242  10.153   0.255 -0.0706  0.0274 -0.2442
12856W        W29117  17.114   9.302  16.234  0.1910  0.2053  0.0475
12857W        W29118   6.757   0.178  14.767  0.0669  0.0600  0.0012
12858W        W29119   4.885   0.343   4.166  0.0244 -0.1127  0.1680
12859W        W29120  10.193   5.265   5.016 -0.0800  0.2862  0.2927
12860W        W29121  10.097   4.469  13.070 -0.0293 -0.0946 -0.1020
12861W        W29122   1.176  12.714  16.975  0.0995  0.2210 -0.3832
12862W        W29123  13.713  11.054   2.759 -0.0804 -0.1107 -0.0484
12863W        W29124   3.995   0.552   5.792  0.0187  0.0867  0.0865
12864W        W29125  11.484   6.700  15.186  0.1270  0.0413 -0.0218
12865W        W29126   9.714  15.412   6.173 -0.3606 -0.1092 -0.0723
12866W        W29127  15.998   5.933   3.167  0.1952  0.3081 -0.0192
12867W        W29128  15.628  13.609  14.583  0.5717  0.1430 -0.1081
12868W        W29129  16.634   2.877   0.861 -0.0177  0.0393  0.4376
12869W        W29130  14.634  10.662   0.537 -0.3516  0.0532 -0.3551
12870W        W29131   2.037   8.930   5.097  0.0679  0.0329 -0.0583
12871W        W29132   6.552  13.921  13.272  0.1059 -0.0520 -0.1755
12872W        W29133  11.571  10.801  14.404 -0.2466 -0.0572 -0.0197
12873W        W29134  14.551   8.089   2.108  0.1986 -0.1797 -0.0987
12874W        W29135   1.300  16.081   3.038  0.0793 -0.0394  0.0422
12875W        W29136  17.358   7.384   1.134  0.2224 -0.0250  0.1169
12876W        W29137   2.574  10.586   5.605 -0.1432  0.0480 -0.1778
12877W        W29138   9.206  11.019   2.757 -0.1079  0.2958  0.0126
12878W        W29139  13.188   5.689  14.715  0.3136 -0.1010 -0.0885
12879W        W29140   2.090  14.032   2.944  0.2225 -0.1403 -0.0935
12880W        W29141  14.024  14.972   1.208  0.0449 -0.1516 -0.3053
12881W        W29142   8.971   9.784  14.541  0.0101 -0.1334 -0.1435
12882W        W29143   2.154   6.538  13.752  0.1149  0.2377 -0.0037
12883W        W29144   1.690   5.250  15.346 -0.1514 -0.1515 -0.0891
12884W        W29145  10.809   7.254   3.931  0.0132 -0.1450  0.1213
12885W        W29146   5.107  12.678  14.847  0.1427 -0.1859 -0.3008
12886W        W29147  13.018   9.651   5.510  0.1803  0.0023 -0.5465
12887W        W29148  12.474   7.965   0.973 -0.1961 -0.2506 -0.1209
12888W        W29149  10.312   9.898  15.936 -0.2332 -0.0379 -0.3319
12889W        W29150  11.899   2.043   3.563 -0.1969 -0.2845  0.0650
12890W        W29151   4.773  13.961   3.449  0.0467  0.0109 -0.2304
12891W        W29152  10.634   8.881  14.542  0.0243  0.0321 -0.0136
12892W        W29153   6.123   0.021   1.942  0.0837 -0.0367 -0.0710
12893W        W29154   6.008   6.987  16.234  0.1378 -0.0306 -0.0515
12894W        W29155   3.185  14.326   2.649 -0.2866 -0.0703 -0.2999
12895W        W29156   0.987  15.219  11.335 -0.1514  0.2378  0.0027
12896W        W29157   6.305   0.271  14.451 -0.1080  0.0198 -0.0110
12897W        W29158   3.896  12.319   4.991 -0.1611  0.0720  0.4977
12898W        W29159  10.310   8.454  11.146  0.1181 -0.0500  0.1866
12899W        W29160  16.310  17.597   0.402  0.1100  0.2181  0.5116
12900W        W29161   0.772  16.717   0.390  0.0384  0.0890  0.0094
12901W        W29162   8.266   5.161  15.781 -0.0265 -0.2056 -0.1775
12902W        W29163   5.269   2.389   4.777  0.1094  0.1400  0.2238
12903W        W29164   1.603   2.593  12.507 -0.0624 -0.1332  0.0371
12904W        W29165   6.708   0.455  16.336 -0.4115 -0.2572 -0.0249
12905W        W29166   6.956   6.558   2.580 -0.1413 -0.0768 -0.3955
12906W        W29167  16.891   3.719   0.553 -0.0412 -0.1443  0.0018
12907W        W29168   2.506   8.561   4.469  0.1777  0.1404 -0.1850
12908W        W29169   5.293  14.161  15.734  0.1714  0.0439 -0.1408
12909W        W29170  12.348  10.269  11.952 -0.0136 -0.4358  0.3083
12910W        W29171   2.644   5.878   3.206 -0.2002 -0.2353  0.1720
12911W        W29172  11.773  16.028  13.661  0.1165  0.1444  0.0320
12912W        W29173   1.186   5.344  15.966  0.5293  0.0803  0.1568
12913W        W29174   7.840  10.214   2.209  0.0965 -0.1682 -0.0351
12914W        W29175   2.992   9.616   2.865 -0.0356  0.2150 -0.1865
12915W        W29176  17.751  12.472  16.165 -0.2044 -0.2358 -0.1896
12916W        W29177  13.712   5.257  13.998  0.0446 -0.1961  0.4171
12917W        W29178   4.829  16.604   1.687 -0.1675  0.0428 -0.0573
12918W        W29179   9.276  14.420   1.424  0.0447 -0.0147 -0.0389
12919W        W29180   9.135   2.558   1.889 -0.0630  0.1584  0.0533
12920W        W29181   5.114  10.873   4.515  0.0541 -0.4243 -0.0252
12921W        W29182  10.504   7.899   0.215 -0.0586  0.1609 -0.4752
12922W        W29183   1.658   7.121  14.993 -0.0851 -0.0017 -0.1313
12923W        W29184  12.362  15.762  12.337  0.0753 -0.1232 -0.1324
12924W        W29185  15.328  12.714  15.782  0.1439  0.0921 -0.0054
12925W        W29186   8.214   4.893  13.906  0.2791  0.1224 -0.2359
12926W        W29187   3.200   9.999  15.195 -0.2426 -0.0884 -0.0949
12927W        W29188  14.457   2.674   5.352 -0.0369 -0.3264  0.0088
12928W        W29189  17.370   4.275   0.955  0.4012 -0.1818  0.1211
12929W        W29190  13.601   5.435  15.620 -0.0970  0.1585  0.1274
12930W        W29191  14.522  16.357   1.421  0.1516 -0.0294  0.2961
12931W        W29192   2.310   2.511   5.056  0.0567 -0.0833  0.0159
12932W        W29193  17.758  15.556   3.639 -0.3487 -0.0540 -0.1219
12933W        W29194   9.990   0.457   4.327 -0.1466  0.3177  0.0711
12934W        W29195   5.020   9.358  15.455  0.2063 -0.1137  0.2315
12935W        W29196   7.813   9.862  14.610 -0.0251 -0.2697 -0.1722
12936W        W29197   2.302  16.751   2.979  0.2187 -0.2035  0.3138
12937W        W29198   1.655  16.368   0.495  0.1550  0.0621  0.0145
12938W        W29199   8.913  17.542   0.421 -0.1793  0.0305  0.2377
12939W        W29200  16.759  14.642  12.339  0.0001  0.1684  0.1016
12940W        W29201   8.233  14.962  16.463  0.1384 -0.1486  0.0554
12941W        W29202  13.962  13.844  15.646 -0.0158  0.0102 -0.0637
12942W        W29203  12.672  17.291   2.801 -0.2743 -0.3523 -0.3691
12943W        W29204  11.883   4.235   3.874 -0.1588 -0.0433 -0.0206
12944W        W29205  13.081   9.851   2.299  0.1272  0.0005 -0.3309
12945W        W29206   7.288   5.477  15.484  0.1074  0.0826 -0.2087
12946W        W29207  17.564   9.833   1.239 -0.1582  0.0545  0.0904
12947W        W29208  12.636  13.822   0.102  0.0093 -0.1519  0.0693
12948W        W29209   7.292   5.116   5.125 -0.2196 -0.1960  0.1641
12949W        W29210   3.217  17.183  14.725 -0.2185  0.2559 -0.0573
12950W        W29211   8.075  13.619  12.912 -0.0616  0.3732 -0.2799
12951W        W29212  14.743   4.493   2.682 -0.1867 -0.0991  0.0246
12952W        W29213  13.258  16.990   0.357 -0.2519 -0.0986 -0.1144
12953W        W29214   2.283   4.480  16.599 -0.0062 -0.0433 -0.1108
12954W        W29215  16.806   9.223  16.589  0.1734  0.0564  0.2414
12955W        W29216   4.884   2.980  11.668 -0.0993 -0.0687  0.0688
12956W        W29217   0.339   0.327   5.163  0.2897 -0.0529 -0.1011
12957W        W29218  14.696  17.560  16.704 -0.0801  0.0639 -0.2567
12958W        W29219   4.345   9.581   2.449  0.1135  0.0681 -0.3912
12959W        W29220   5.878  14.389   5.120  0.2758  0.2643  0.2481
12960W        W29221  10.824  11.952  13.479 -0.3029  0.2695 -0.1850
12961W        W29222  14.508   1.702  13.892  0.1941  0.0301 -0.3635
12962W        W29223  10.686  15.098   1.274  0.2280 -0.2274 -0.1788
12963W        W29224  10.280  14.490   0.614  0.1797 -0.1417 -0.1003
12964W        W29225  12.079   8.590  13.240 -0.0233 -0.0703  0.3611
12965W        W29226  13.853   5.702  12.726  0.0757  0.0070 -0.2435
12966W        W29227  15.200  14.789   3.478  0.0619  0.1550 -0.0359
12967W        W29228   9.809   9.677   5.312  0.0592 -0.1118  0.4658
12968W        W29229   3.543   3.093  14.959  0.1053  0.0748  0.0601
12969W        W29230   7.738  14.688   1.816  0.1785  0.2146 -0.2639
12970W        W29231  12.424  12.397  15.182 -0.0463  0.1899 -0.2315
12971W        W29232  15.524  16.836   4.553 -0.0090 -0.0433  0.2431
12972W        W29233   4.820  17.715   0.674 -0.0509 -0.1172  0.1463
12973W        W29234  12.272  14.486   3.427  0.1467  0.1232 -0.2230
12974W        W29235   0.271   9.791  11.834  0.1144  0.3147  0.2015
12975W        W29236   4.047   1.155   1.135 -0.0758 -0.1453 -0.2320
12976W        W29237  17.258   5.704   6.525 -0.0574  0.3993 -0.2040
12977W        W29238   5.679   4.863  16.672  0.0344 -0.1955 -0.0441
12978W        W29239   3.897   6.842   5.102 -0.0558 -0.0627  0.1310
12979W        W29240  16.938  13.520   0.807  0.2688 -0.2747 -0.3618
12980W        W29241  14.453   1.362   0.331  0.1077  0.3749 -0.1850
12981W        W29242  13.708  15.503   3.733 -0.0126  0.2419 -0.1440
12982W        W29243  17.273   9.448   1.134 -0.0707 -0.0697 -0.2758
12983W        W29244   6.541  12.540   2.333 -0.4241  0.1465 -0.0197
12984W        W29245   9.456   8.692  10.264  0.0285 -0.3107 -0.2389
12985W        W29246  10.436  12.698   1.584 -0.1831  0.0464 -0.0862
12986W        W29247   0.475   7.846  13.260  0.0161 -0.0704  0.0997
12987W        W29248  15.484   3.478   3.694  0.0773  0.2251 -0.2254
12988W        W29249   4.409   4.120  15.290 -0.0221 -0.0646 -0.0595
12989W        W29250  16.143   0.945   5.599  0.0362 -0.4444  0.0575
12990W        W29251  15.021   3.080  14.520  0.3179  0.2096  0.1153
12991W        W29252  16.045  13.193  16.575 -0.1206  0.2734 -0.0095
12992W        W29253  15.577  12.608   4.613  0.0299  0.4550 -0.0686
12993W        W29254   1.661   5.134   3.155 -0.1716  0.0298 -0.3782
12994W        W29255   0.487   4.449  12.724  0.0117 -0.0220  0.1610
12995W        W29256   3.375   1.983  11.704 -0.0136 -0.2337 -0.2335
12996W        W29257  12.948   7.657  13.117  0.0608 -0.0310  0.0370
12997W        W29258  11.785  13.610   4.784 -0.1283  0.3343  0.0697
12998W        W29259  14.027  10.334   5.120 -0.0773 -0.1621  0.0435
12999W        W29260   4.535   7.972   2.100 -0.0576 -0.3436  0.0582
13000W        W29261   3.936   0.017   6.115  0.1868  0.1518 -0.0835
13001W        W29262  10.032  16.061   3.387  0.0247 -0.1785 -0.1576
13002W        W29263  16.524  14.187  12.376 -0.0609  0.0009  0.1673
13003W        W29264  13.031   6.370   2.347  0.1884  0.0608 -0.1088
13004W        W29265   4.762  11.917   1.954  0.1966 -0.0036  0.2805
13005W        W29266   1.918  14.793   3.910 -0.3671 -0.0459  0.1891
13006W        W29267  16.841  16.248  16.637 -0.0797 -0.2918  0.2426
13007W        W29268   3.383   1.201   5.616 -0.1162 -0.0058  0.1265
13008W        W29269   0.012  12.874   1.109 -0.2065 -0.0534 -0.1264
13009W        W29270  15.606  14.572   4.190 -0.1166  0.1511 -0.1081
13010W        W29271   3.911   6.386  13.645  0.1168  0.3530 -0.0428
13011W        W29272  10.938   9.082   0.835 -0.2157  0.0247  0.1105
13012W        W29273   7.565  10.552   1.868  0.1338 -0.1269 -0.3661
13013W        W29274  13.599   5.596   2.085  0.2147 -0.0652  0.1626
13014W        W29275  12.110  11.582  12.913 -0.0237 -0.2260  0.2270
13015W        W29276  13.481  13.838  13.298  0.2739  0.1227  0.2156
13016W        W29277  13.591  10.127   0.706  0.2353 -0.1197  0.3302
13017W        W29278  16.861   5.892   5.126 -0.0213 -0.2416  0.2094
13018W        W29279  14.760   9.144   5.621  0.0053 -0.0785  0.1747
13019W        W29280   8.901   3.827  15.078 -0.1929  0.2263 -0.2898
13020W        W29281  15.988  12.371   4.418 -0.1778 -0.0259 -0.0836
13021W        W29282   8.600   2.834   6.069  0.0472 -0.1627 -0.4197
13022W        W29283  14.297   5.625  16.017 -0.0951  0.2371 -0.1260
13023W        W29284   8.860  10.008   3.812  0.1044  0.0793 -0.0598
13024W        W29285   1.652   8.965   1.713 -0.2625 -0.2201 -0.1509
13025W        W29286   4.813  16.732   4.692  0.1265  0.2451  0.2188
13026W        W29287   5.885  12.141   4.523  0.0807  0.1381  0.2702
13027W        W29288   8.863   6.776   1.313  0.4043  0.0593 -0.1579
13028W        W29289   7.493  14.016   1.069  0.0427  0.4219  0.0566
13029W        W29290   7.809   8.386   0.247  0.0523  0.0023  0.0519
13030W        W29291   4.522  12.977   4.246  0.1559 -0.0314 -0.0244
13031W        W29292   1.370  14.424   5.035 -0.2083  0.0968  0.0628
13032W        W29293   0.932   6.974  11.236 -0.3078  0.0661  0.0357
13033W        W29294  10.364  12.929   0.292 -0.2482  0.0306 -0.1038
13034W        W29295   1.938   9.815   4.552 -0.2900 -0.2451  0.2025
13035W        W29296   3.835   1.560  16.224 -0.1109  0.3799 -0.0781
13036W        W29297  13.906  10.136  15.829 -0.0277  0.0164  0.0949
13037W        W29298  11.429   3.893  10.565  0.0659  0.1058  0.1192
13038W        W29299  11.193  12.774   5.310 -0.0589  0.1278  0.0428
13039W        W29300  12.151  10.372  11.499  0.0711 -0.0197  0.4397
13040W        W29301  14.842   5.251  14.984 -0.0574 -0.1404 -0.0775
13041W        W29302  15.397   9.451  15.740  0.1855  0.0224 -0.0384
13042W        W29303   6.343   3.023   4.325 -0.1139 -0.1488 -0.0036
13043W        W29304   4.607  15.845  12.098 -0.0497 -0.1383 -0.2378
13044W        W29305   7.247  12.724  12.331 -0.0737 -0.1743 -0.1643
13045W        W29306   9.700   6.739  13.683  0.1448 -0.0048 -0.0261
13046W        W29307   5.911  15.571   3.185  0.1723 -0.3312 -0.1043
13047W        W29308  14.120   1.155  15.199  0.1245 -0.3227 -0.0007
13048W        W29309   4.424  10.525   2.088 -0.0278 -0.0434 -0.2725
13049W        W29310  15.054   8.341   5.869  0.3623 -0.0177 -0.1992
13050W        W29311  15.651  14.780   0.014  0.0825  0.2250 -0.0225
13051W        W29312  12.986  13.418  16.130 -0.1957  0.0826  0.0980
13052W        W29313   6.205   6.424  12.342  0.0913 -0.0004  0.3346
13053W        W29314   3.055   0.577  12.727 -0.1318  0.0290  0.1747
13054W        W29315  12.446  16.711   6.028 -0.0050  0.1302 -0.0869
13055W        W29316   5.584  13.689   5.605 -0.2712 -0.0600  0.1592
13056W        W29317  11.178   9.831   3.583 -0.0261 -0.0034  0.1940
13057W        W29318   7.799   2.151   3.906  0.0398  0.0843  0.0382
13058W        W29319  10.817   3.491  16.137 -0.1845  0.1459 -0.1098
13059W        W29320  16.015  11.774   5.892 -0.1108  0.0108  0.2198
13060W        W29321  16.020   5.818   0.260  0.0559  0.3239 -0.1542
13061W        W29322   0.292   2.253   5.230 -0.0359 -0.1406 -0.0446
13062W        W29323   9.491   1.586   4.332 -0.1687 -0.1017 -0.1154
13063W        W29324   7.345   0.621   4.904  0.1294 -0.1332  0.3181
13064W        W29325  15.700  11.629   4.968 -0.1718 -0.0184  0.0763
13065W        W29326  12.945   6.907   2.302  0.0648 -0.0936 -0.1029
13066W        W29327   1.560   3.594   0.434 -0.1146 -0.2519  0.0957
13067W        W29328   5.735  17.666   3.107  0.0067  0.1055 -0.0910
13068W        W29329   1.421  15.306  14.614 -0.1509 -0.2171 -0.0202
13069W        W29330   3.174   0.742   5.455 -0.2750  0.0167  0.1080
13070W        W29331  14.636   4.617  16.914  0.0044  0.0670  0.0525
13071W        W29332   9.270   4.763  12.462  0.0543  0.0184 -0.3431
13072W        W29333   4.757   1.467   4.250  0.0284  0.1889  0.0461
13073W        W29334   2.115   9.764   2.272  0.1337 -0.1044  0.0809
13074W        W29335  11.870  17.585  13.647  0.0529 -0.0573  0.0750
13075W        W29336   7.263   8.959   6.096 -0.0763 -0.0379  0.0904
13076W        W29337   0.638   6.142   3.728 -0.1521  0.1051 -0.2911
13077W        W29338  10.427  13.228   1.793  0.4510 -0.0640  0.0206
13078W        W29339   9.401   5.085   2.395 -0.1868  0.3321  0.3237
13079W        W29340   5.061   4.197   1.909  0.0507  0.1042  0.1219
13080W        W29341  16.127   6.366   2.436 -0.0395  0.2870 -0.2271
13081W        W29342   3.429  11.248   2.893  0.2528  0.1060  0.0692
13082W        W29343  13.253   1.096  15.513 -0.2296  0.0222  0.0823
13083W        W29344   0.530   9.840  16.387  0.3798 -0.0342 -0.4065
13084W        W29345  10.383   8.489  13.007 -0.1061 -0.4945 -0.0966
13085W        W29346  14.494  15.380   6.138  0.0935  0.0648 -0.0772
13086W        W29347   6.589  12.996  14.895  0.0819  0.3664  0.2771
13087W        W29348   2.278  10.264  15.205 -0.1459 -0.1151 -0.0575
13088W        W29349   7.769   6.581  16.847  0.1007  0.2464  0.0297
13089W        W29350  14.982   5.640   5.967  0.0650  0.1454 -0.1692
13090W        W29351  11.290  17.165   0.832 -0.2642 -0.2932  0.0598
13091W        W29352  10.970   2.021   0.862  0.1024  0.1959 -0.2081
13092W        W29353   4.086   5.849  12.172  0.1475  0.1106 -0.2080
13093W        W29354   7.599   9.483   2.993 -0.0598  0.1513  0.0082
13094W        W29355   2.847  17.040  15.951 -0.0412 -0.0192 -0.1898
13095W        W29356   2.652   8.575  16.766 -0.0720 -0.0616 -0.2829
13096W        W29357  17.546   5.868  13.124 -0.0386 -0.3302  0.0785
13097W        W29358   4.608   7.473  15.498  0.1863 -0.1474  0.1500
13098W        W29359   9.190  17.451  16.095  0.3209  0.1901  0.0765
13099W        W29360   4.849   5.071  15.239  0.1063  0.3552 -0.2893
13100W        W29361   7.517   0.024  11.421  0.0912  0.4127 -0.2111
13101W        W29362  16.743   3.116   3.114 -0.1399  0.1344 -0.0409
13102W        W29363   3.004  10.520  13.467  0.0958  0.1008  0.0181
13103W        W29364  12.642   7.937   2.623 -0.4605  0.1198  0.1457
13104W        W29365   5.072  11.510   5.198 -0.1952  0.0058 -0.1631
13105W        W29366  16.367   8.050   4.807  0.0616  0.2110 -0.2969
13106W        W29367  12.564  14.498   0.122  0.0976  0.2996 -0.0353
13107W        W29368   1.373  16.990  12.649  0.4942 -0.0316 -0.1019
13108W        W29369  14.144   1.026  13.647  0.0082  0.3499 -0.0869
13109W        W29370   6.687   2.428  16.536  0.3582 -0.0011  0.1343
13110W        W29371   2.739   3.960  12.286  0.2734  0.0615 -0.3523
13111W        W29372   6.130  11.269  15.051  0.4206  0.0099 -0.2293
13112W        W29373  11.792   0.734   0.672 -0.1642  0.1692  0.1185
13113W        W29374  10.588   1.151   5.905  0.0501 -0.1463  0.2917
13114W        W29375  16.809   7.169   2.039  0.3007 -0.2157  0.0679
13115W        W29376   4.447  10.813  16.126 -0.3121  0.0556 -0.1262
13116W        W29377   0.569  13.083   5.218 -0.1216  0.0690  0.2236
13117W        W29378  14.603   2.589   2.516 -0.1860 -0.1661 -0.1030
13118W        W29379  16.934  10.900  14.569 -0.0967 -0.0251 -0.3542
13119W        W29380  10.174   9.520   0.323  0.0638 -0.1115  0.1137
13120W        W29381   6.417   3.383   3.381  0.0232  0.1383 -0.0620
13121W        W29382  12.829   9.736  15.824  0.0699  0.0674 -0.2197
13122W        W29383   9.845   5.277   5.381  0.2534  0.1227  0.1785
13123W        W29384  11.560  10.850  15.548 -0.1618  0.1260 -0.2049
13124W        W29385   6.084   9.609   3.212  0.3367 -0.1957 -0.3459
13125W        W29386   3.326   2.124   3.568  0.1810  0.1103 -0.0038
13126W        W29387  16.037   1.206   5.155  0.1484 -0.0919  0.2535
13127W        W29388  12.423   6.456  16.560  0.1407  0.1630  0.0636
13128W        W29389   8.493   4.151  13.431 -0.0740 -0.1745 -0.0332
13129W        W29390   8.003  10.704  13.681 -0.0096  0.0109 -0.0116
13130W        W29391  11.723   5.418   0.294  0.1354  0.0451 -0.2341
13131W        W29392  12.462  10.197   2.485 -0.1874  0.1691  0.0988
13132W        W29393  14.711   5.078  16.622  0.0822  0.2902 -0.3071
13133W        W29394  17.409  14.428   0.519  0.2025 -0.0986 -0.1109
13134W        W29395  12.000   0.149   2.265 -0.1621 -0.0312 -0.0346
13135W        W29396  16.647  16.844  15.581  0.1095  0.0479  0.0716
13136W        W29397  17.315  13.001  12.788  0.3752 -0.0669 -0.0358
13137W        W29398   6.712   3.648  16.714 -0.1684 -0.1231  0.1130
13138W        W29399   5.046  15.204   6.241 -0.2474  0.0737  0.2487
13139W        W29400  13.283   5.298  13.696  0.1143 -0.1940  0.1015
13140W        W29401   1.860  15.232  11.406 -0.0810 -0.1524  0.3817
13141W        W29402   3.089  15.469  16.359 -0.1916  0.1419  0.2484
13142W        W29403   7.026   7.663   1.528  0.0090  0.1633  0.0694
13143W        W29404   6.258  11.650   4.475 -0.3714  0.1450  0.1522
13144W        W29405   8.727   7.026   3.544  0.1395 -0.1267 -0.3573
13145W        W29406   3.601   5.026   5.264  0.0518 -0.0456 -0.0383
13146W        W29407  11.072  11.042   1.758  0.1149 -0.0533 -0.1497
13147W        W29408   4.837   8.188   1.115 -0.2116  0.0346 -0.1655
13148W        W29409   7.914   3.328   1.602 -0.1231  0.2587 -0.2065
13149W        W29410   0.213  13.960  13.270 -0.3040  0.1571 -0.1221
13150W        W29411   1.091   1.320   1.262  0.1462 -0.2286  0.3654
13151W        W29412  16.591   8.043  13.229  0.0371  0.1004  0.2346
13152W        W29413   7.794   0.196  13.244 -0.1848  0.3559  0.1516
13153W        W29414  11.373   7.891   5.617  0.0103 -0.0867 -0.2865
13154W        W29415   7.056  16.498  11.693  0.1169 -0.3154 -0.2420
13155W        W29416   3.373  10.058   0.757 -0.0496 -0.1418 -0.2366
13156W        W29417   7.772  14.488   0.309 -0.0267 -0.0339 -0.1366
13157W        W29418   8.692   2.337  13.218  0.1545  0.0602 -0.3631
13158W        W29419   5.381  15.429   1.145 -0.0272 -0.1558  0.4346
13159W        W29420  10.444  12.202   5.222  0.1063  0.2789 -0.1333
13160W        W29421   6.881   5.291   5.362 -0.2980  0.0371  0.1089
13161W        W29422  10.895   9.896  12.976 -0.3069 -0.1495 -0.0444
13162W        W29423  13.751   6.115   0.036 -0.0882  0.2922  0.0891
13163W        W29424  14.914  16.538  16.624  0.0561 -0.0875  0.2870
13164W        W29425  16.413   1.742  14.900 -0.1576  0.2128  0.0890
13165W        W29426  16.560  11.759   5.693 -0.0869  0.1397 -0.3218
13166W        W29427  10.673  14.889   5.412 -0.0865  0.2966 -0.0545
13167W        W29428   4.624  16.368   5.456  0.3526  0.0984  0.2381
13168W        W29429   8.107   3.898   4.544 -0.2673  0.0641 -0.0708
13169W        W29430   0.089   1.032   1.230  0.0437  0.0459 -0.4841
13170W        W29431   2.655  16.813   1.170 -0.2951  0.1046 -0.1592
13171W        W29432   6.910  12.442   1.177 -0.0833  0.0157 -0.0196
13172W        W29433   1.565   0.872   5.620  0.2479  0.2024  0.0541
13173W        W29434   5.515   0.766   2.175 -0.1657  0.1861  0.3217
13174W        W29435  11.871   4.111  16.114 -0.0705  0.2016 -0.1574
13175W        W29436   8.327   0.318  12.994 -0.1371 -0.3584  0.3395
13176W        W29437   2.861   3.727  15.246  0.1900  0.1736  0.0952
13177W        W29438   5.063  16.233   4.577 -0.0162  0.3795 -0.1905
13178W        W29439   3.428   4.570   3.165 -0.0163 -0.2378 -0.1112
13179W        W29440  11.336   3.485   5.019  0.0668 -0.2538 -0.0316
13180W        W29441   9.467  10.266   3.148 -0.0895  0.0657  0.1212
13181W        W29442   4.960   9.452   4.124 -0.3575 -0.3093  0.0444
13182W        W29443  12.789   6.004   5.401  0.1739  0.0097 -0.1603
13183W        W29444   8.520  16.908  14.105 -0.1606  0.0647  0.0322
13184W        W29445   5.289   8.047  14.528 -0.0347 -0.0245  0.3889
13185W        W29446   7.452   0.843   2.274  0.0947 -0.0110  0.1595
13186W        W29447   5.250   3.882  16.949 -0.2919 -0.0408  0.0359
13187W        W29448  16.022   3.663  12.264 -0.1053  0.1514  0.1909
13188W        W29449  12.315   7.119   2.793  0.1223  0.2379  0.0688
13189W        W29450  12.209   7.049  13.400  0.2044 -0.4312 -0.1577
13190W        W29451   6.475   7.119   4.596 -0.3150 -0.0345 -0.0810
13191W        W29452   9.000  13.202  14.723 -0.2448 -0.1947 -0.2962
13192W        W29453   8.592   8.588   6.133 -0.0977  0.2224  0.0382
13193W        W29454   4.329   8.214   2.997  0.1478  0.1690 -0.2868
13194W        W29455   9.747   4.973   3.966 -0.0310  0.2235 -0.0076
13195W        W29456  13.653  10.059  11.790  0.3416 -0.0585  0.1117
13196W        W29457   4.251  16.919  13.835 -0.4207  0.0689 -0.0645
13197W        W29458   2.910  16.230  15.844 -0.0343  0.1597  0.1770
13198W        W29459   0.052  10.017  16.533  0.0635  0.0154 -0.1228
13199W        W29460  11.084  15.990   1.402 -0.1716  0.1068 -0.2918
13200W        W29461   3.744  13.241   0.887 -0.2589 -0.0380  0.1136
13201W        W29462   0.092   1.531  12.611  0.0340 -0.2760  0.2148
13202W        W29463   0.644  11.199  12.500 -0.2191  0.1090  0.4806
13203W        W29464  14.706  10.186  14.337  0.0641 -0.1159  0.0654
13204W        W29465  12.578   6.797   3.172  0.2370  0.1004 -0.4659
13205W        W29466  10.802  15.688  16.789 -0.0579 -0.3806  0.1058
13206W        W29467   3.822   5.641   0.803 -0.4388  0.0684  0.3394
13207W        W29468   0.487   2.882  16.071 -0.1835 -0.3901 -0.0475
13208W        W29469  13.882   0.506   4.423 -0.1691  0.1355 -0.0686
13209W        W29470  13.456  11.957  14.042 -0.0019  0.0012  0.1790
13210W        W29471  12.907   4.737  13.921  0.2125 -0.0986 -0.1492
13211W        W29472   8.100   3.827  14.852  0.0675  0.1176  0.3473
13212W        W29473  12.657   5.069  16.888 -0.4102  0.5645 -0.1303
13213W        W29474  15.535   0.912  14.311 -0.0091  0.0383  0.1784
13214W        W29475   7.797   6.816   3.299  0.1685 -0.0868 -0.2917
13215W        W29476   9.694  16.999   0.362 -0.1185  0.0338  0.0384
13216W        W29477   5.631  10.874  14.187  0.0958  0.1302 -0.0115
13217W        W29478   2.949  10.696  14.716  0.0140  0.0538 -0.1711
13218W        W29479   0.056   2.328  11.601  0.1673  0.0115  0.0327
13219W        W29480  10.511  10.175   1.641  0.0665  0.2837 -0.2051
13220W        W29481   6.104   4.373  16.000  0.0075 -0.3308 -0.4575
13221W        W29482  11.783  17.725   4.013  0.1935  0.2095  0.1100
13222W        W29483   6.099  11.144   0.040 -0.0507  0.0303  0.2225
13223W        W29484   1.487  13.389  14.265 -0.2233 -0.0724 -0.0357
13224W        W29485   3.079  13.739   4.412  0.0595 -0.0314 -0.1460
13225W        W29486  15.817   0.390   2.531 -0.1368 -0.1353 -0.0799
13226W        W29487   5.435   5.287   3.960 -0.1550 -0.1722  0.0399
13227W        W29488  15.410  10.678  12.294  0.0973 -0.4591 -0.0385
13228W        W29489  15.393  12.348   5.502 -0.3025  0.2015 -0.0335
13229W        W29490   8.697   5.962  11.910 -0.1040  0.1180  0.0454
13230W        W29491  15.733   5.577  14.629 -0.0023 -0.1638  0.0834
13231W        W29492  14.927  16.187  12.496  0.2757 -0.1743  0.1395
13232W        W29493  16.303  11.805  14.679 -0.3066  0.1379  0.1890
13233W        W29494  14.353   4.080   5.452  0.0587  0.1785 -0.1782
13234W        W29495  14.432   1.764  15.851 -0.0669  0.0089 -0.0062
13235W        W29496   5.707   7.969  13.778  0.1767  0.0604 -0.1161
13236W        W29497  11.731   0.714   5.200  0.1932  0.1004 -0.0760
13237W        W29498  13.289   4.253  16.200 -0.0900  0.1275 -0.0472
13238W        W29499   0.214  12.921   4.479  0.1109  0.0850 -0.0319
13239W        W29500  15.205   9.444  16.170 -0.1769  0.0634  0.1569
13240W        W29501   2.129   6.076  12.016 -0.2540  0.2834 -0.1196
13241W        W29502   2.936   9.265   5.987 -0.0381  0.0415  0.0536
13242W        W29503  10.615   1.067   2.815 -0.2923 -0.2151 -0.1344
13243W        W29504   5.118   8.482   4.757  0.0402  0.0588 -0.1959
13244W        W29505   8.786  13.923  15.738  0.0558  0.1222 -0.0163
13245W        W29506  15.463   8.434  15.410 -0.2562 -0.1501 -0.3621
13246W        W29507  17.427  11.496  16.111 -0.3341 -0.0258  0.0801
13247W        W29508   9.553  16.719   2.301  0.0033 -0.0889  0.0389
13248W        W29509   4.905   5.293  13.290  0.1289  0.0121  0.0395
13249W        W29510   6.221  10.319  16.928 -0.0081  0.2885 -0.0415
13250W        W29511   5.411  16.491   1.238  0.0774 -0.0505 -0.1748
13251W        W29512  11.453  16.248   0.645  0.0993 -0.0856 -0.1433
13252W        W29513  15.635   2.151   4.345  0.0426  0.1134 -0.2547
13253W        W29514   8.212   8.827   0.107 -0.1818  0.2155 -0.2764
13254W        W29515   4.304   0.525   2.820 -0.1343 -0.2277  0.1130
13255W        W29516   2.211  10.677   3.715  0.1495 -0.2787  0.1235
13256W        W29517   4.820  15.925   3.239  0.1250  0.1014  0.2386
13257W        W29518   5.760   4.047  16.718  0.0701  0.0694  0.3287
13258W        W29519  16.886   4.376  15.413 -0.0265 -0.0998  0.0088
13259W        W29520  17.340   9.534   5.146 -0.1517 -0.0853 -0.1452
13260W        W29521   2.164   5.913   5.506 -0.0469  0.2191  0.2719
13261W        W29522   7.752  10.161  16.013  0.2135 -0.2887  0.0049
13262W        W29523   8.259   0.649  12.445 -0.1520  0.2429 -0.1237
13263W        W29524   5.087   9.615  13.378  0.1807  0.0529  0.1366
13264W        W29525  12.437   8.373  14.751 -0.0684  0.0687 -0.0484
13265W        W29526   7.863  12.979  15.521  0.0810 -0.0340 -0.2685
13266W        W29527   4.017  17.600   2.860  0.1920 -0.1203  0.1453
13267W        W29528   4.154  10.320   4.792  0.5400 -0.0935 -0.1515
13268W        W29529   8.073   4.875   2.551 -0.0488 -0.0251  0.1243
13269W        W29530   9.536   2.570   4.469 -0.1172  0.0960 -0.4616
13270W        W29531  12.577   0.210   0.549 -0.1455  0.0257 -0.0257
13271W        W29532   0.844   2.626   4.961 -0.1192 -0.0354 -0.0395
13272W        W29533   9.641  17.509   4.616 -0.0640  0.2962 -0.0513
13273W        W29534  13.272   0.889  13.095  0.2114 -0.0742 -0.3762
13274W        W29535   5.796   9.917  14.108  0.2367 -0.0222 -0.0261
13275W        W29536  11.557   8.324   6.350 -0.1877 -0.2144 -0.0885
13276W        W29537   5.268  15.633   0.732  0.0568  0.0806  0.3715
13277W        W29538   9.424  17.388   0.543 -0.2472  0.0382 -0.1456
13278W        W29539  10.797   0.876   2.092  0.1965  0.0913 -0.0321
13279W        W29540   1.542  16.641   4.046  0.0386 -0.1653  0.0636
13280W        W29541   6.367  14.911  12.467 -0.0107  0.0557  0.2555
13281W        W29542  11.289   1.582  15.949  0.2295 -0.0199  0.0882
13282W        W29543   6.994  17.546  12.304 -0.1080  0.0639  0.2898
13283W        W29544  13.907   7.700  16.114  0.0044  0.2364  0.2212
13284W        W29545   9.031   6.285   2.149  0.1360  0.1312  0.1224
13285W        W29546  10.775  16.938  12.970 -0.0186 -0.2291 -0.1221
13286W        W29547  12.354   7.411   0.935  0.0639 -0.3516 -0.0365
13287W        W29548   4.862  11.360   1.807 -0.2524  0.1973 -0.0191
13288W        W29549  10.147   3.620   1.955  0.0364 -0.1460  0.1198
13289W        W29550  14.759  11.916   2.301  0.1227  0.2630  0.3074
13290W        W29551  11.885  11.116  12.517  0.3014  0.0478  0.0621
13291W        W29552  10.024   0.256   3.870 -0.0332 -0.1572 -0.0899
13292W        W29553  12.750   5.429   0.218 -0.1353  0.1391 -0.1601
13293W        W29554  12.678   9.302   5.310  0.1210  0.0692 -0.0120
13294W        W29555   1.774  12.499   3.072 -0.1849 -0.0715  0.2778
13295W        W29556   9.058   3.630  13.345  0.1809  0.1227 -0.1041
13296W        W29557   9.502   1.427   1.776  0.1486  0.0016  0.2590
13297W        W29558  14.418  11.908   3.278  0.2696  0.2432 -0.0820
13298W        W29559  16.511   0.383   2.081 -0.1298  0.2203  0.1123
13299W        W29560   8.054  16.584   3.399 -0.0486  0.2568  0.1065
13300W        W29561   6.232   6.826   5.475  0.0437 -0.1484  0.0638
13301W        W29562  16.129  13.548  12.129  0.2296  0.2049  0.1108
13302W        W29563   0.932  13.306  16.183 -0.1522  0.1839  0.0375
13303W        W29564   2.322   1.725   4.805 -0.0660 -0.0074  0.0094
13304W        W29565   1.194  17.407  11.819 -0.1130 -0.0454  0.3736
13305W        W29566   7.110   4.322   4.514 -0.2923  0.0536  0.1998
13306W        W29567   5.954  16.351   3.912 -0.0030  0.1948  0.1309
13307W        W29568  11.459  10.070   3.956  0.2384  0.0580  0.0103
13308W        W29569  17.756   7.810   1.092 -0.0032 -0.0214  0.1225
13309W        W29570   3.555   2.916   3.598 -0.2057 -0.0921  0.1901
13310W        W29571   9.843  13.147   2.904 -0.3200  0.2717 -0.1344
13311W        W29572   0.061   9.558   2.408 -0.0802  0.2393 -0.0488
13312W        W29573   3.969   2.549  13.677  0.0761  0.0980 -0.0035
13313W        W29574  10.547   4.276  14.258  0.0092 -0.0830  0.0371
13314W        W29575   4.389   5.353  15.132 -0.0110  0.1684 -0.1973
13315W        W29576  16.094  13.594   0.827 -0.1007 -0.2560 -0.3758
13316W        W29577  17.761   3.103  12.431  0.1529 -0.1220 -0.2276
13317W        W29578  12.275  13.695   0.489 -0.1846  0.1738 -0.2330
13318W        W29579  13.271   9.656   0.727 -0.3207  0.0605  0.0486
13319W        W29580   2.929  12.793   6.074 -0.1170  0.3498  0.1326
13320W        W29581   1.862  12.070   2.692  0.0100  0.0987 -0.1870
13321W        W29582  14.550   5.842  15.596  0.2827 -0.0914 -0.0564
13322W        W29583   8.427   9.722   4.131 -0.0934  0.1167  0.3122
13323W        W29584   5.109   0.535  16.672  0.3842 -0.0629  0.2580
13324W        W29585  12.467   7.342   1.791  0.1540 -0.1472  0.2547
13325W        W29586  15.885   2.290  13.508  0.0446 -0.1322 -0.2093
13326W        W29587  13.350  11.176  14.827  0.2223  0.0301  0.0313
13327W        W29588   1.460  14.742   2.995  0.0323 -0.1142  0.0184
13328W        W29589   6.856   1.541  13.283 -0.1065  0.1737 -0.3628
13329W        W29590   8.086   5.477  15.386  0.1591 -0.0248 -0.0891
13330W        W29591   3.891  17.489  11.981  0.1697  0.0950 -0.0529
13331W        W29592  12.214   1.759  16.806  0.3179 -0.0382  0.1715
13332W        W29593   7.650   5.564  10.551  0.2173 -0.0002  0.0746
13333W        W29594   8.227  14.969   0.820 -0.0224  0.0727  0.0336
13334W        W29595  13.150  16.770   0.987 -0.1486 -0.2142  0.2099
13335W        W29596  14.668  11.720   4.359  0.2128  0.0398 -0.0337
13336W        W29597  12.858   1.567  15.002 -0.2142  0.2182 -0.1875
13337W        W29598   4.026  13.767  16.918 -0.0203  0.0544 -0.0770
13338W        W29599   0.885   2.633  13.741 -0.1067 -0.1887  0.3142
13339W        W29600   8.422   9.085  14.544  0.1504 -0.1697 -0.0666
13340W        W29601   7.592   0.118   2.795  0.0415  0.2281 -0.1627
13341W        W29602  10.947   2.811   4.680  0.2187 -0.0152  0.2166
13342W        W29603   1.258   0.314  14.125 -0.1315  0.0904 -0.0024
13343W        W29604  10.010  17.563   3.664  0.0215  0.0944 -0.0908
13344W        W29605   8.264  10.031  11.568  0.1916  0.1770  0.4620
13345W        W29606   1.255  16.599   1.275 -0.0558  0.0289 -0.0770
13346W        W29607   7.571   9.961  12.703  0.1772 -0.1205  0.0880
13347W        W29608   5.261   8.975  13.111  0.2165  0.4457  0.1965
13348W        W29609  16.222  10.870   5.274  0.1469 -0.2007 -0.2030
13349W        W29610  12.586   8.244  12.086  0.1061  0.1131  0.2698
13350W        W29611  11.770  15.126  15.411  0.1260  0.0615 -0.0759
13351W        W29612  17.171   8.898   4.414  0.3012 -0.0096 -0.1139
13352W        W29613   2.997   0.311   2.988 -0.3878 -0.0754 -0.0229
13353W        W29614  16.774   0.218   0.254  0.0126 -0.1555 -0.1628
13354W        W29615   9.680  13.958  15.641 -0.0602  0.2001  0.1557
13355W        W29616   2.818   3.305   4.087  0.1081 -0.1135 -0.1386
13356W        W29617   5.200   5.490  12.868  0.1319  0.2336 -0.0033
13357W        W29618   1.779   7.640   4.832 -0.2007  0.2498 -0.4301
13358W        W29619   9.858   8.520  12.706  0.1794 -0.0714 -0.0104
13359W        W29620   8.856  17.254  13.214  0.0566 -0.2144  0.2531
13360W        W29621   4.913   9.322   5.832  0.4182 -0.1960  0.0274
13361W        W29622   1.281   1.655  16.863 -0.2901 -0.1918  0.2550
13362W        W29623  13.109  13.334  15.649 -0.0972  0.3455  0.2579
13363W        W29624   8.889   9.053  15.169 -0.2007  0.1873 -0.2509
13364W        W29625  16.785  13.145   1.391 -0.0714  0.2814  0.1276
13365W        W29626   3.427   4.785  12.601 -0.5251  0.1062  0.2109
13366W        W29627   9.843   7.517   1.042 -0.0664 -0.1114 -0.1372
13367W        W29628  14.788  15.689  13.277  0.1066 -0.3706  0.0254
13368W        W29629   8.719  12.901   2.274  0.1582  0.1477  0.1307
13369W        W29630  11.645   7.217   3.215  0.2281 -0.2944  0.0452
13370W        W29631   9.278  14.933  14.793 -0.2213 -0.0224 -0.0688
13371W        W29632   8.558  10.264   1.960 -0.1256  0.2377  0.1578
13372W        W29633  13.740  17.222   5.346 -0.1182 -0.0060  0.0853
13373W        W29634  10.687  11.363   6.726  0.0555  0.0536 -0.1348
13374W        W29635  12.879  16.203   1.851 -0.3744  0.0958 -0.2226
13375W        W29636   4.251  16.569   5.663 -0.1172  0.2298  0.0608
13376W        W29637   7.526  14.213   4.083 -0.2577 -0.0154  0.0451
13377W        W29638  15.286  14.424  11.921  0.2519 -0.1804 -0.1706
13378W        W29639  17.351  15.544   3.928  0.3782 -0.0804 -0.0926
13379W        W29640   9.305  10.003  12.624 -0.1394  0.1497 -0.1443
13380W        W29641  14.878  14.326  12.979  0.0016 -0.0243  0.4389
13381W        W29642  13.658   8.353   4.563  0.1374  0.0236 -0.0908
13382W        W29643   9.173  17.346   4.682  0.1855 -0.0856 -0.0847
13383W        W29644   1.113   0.267   3.277 -0.0018 -0.0378  0.2841
13384W        W29645  12.271   0.928   3.846 -0.1006  0.0385  0.2161
13385W        W29646  12.135   9.489   4.507  0.0839 -0.1344 -0.1106
13386W        W29647   4.821   8.061   4.433 -0.2775  0.1558  0.0342
13387W        W29648  10.211  11.573   4.386 -0.1092  0.0310 -0.0687
13388W        W29649  13.660   6.059  13.110 -0.0246  0.1986  0.2125
13389W        W29650   8.925   9.964   4.868  0.0291 -0.3468  0.1192
13390W        W29651  14.815  15.068   6.615  0.0974 -0.0222  0.1619
13391W        W29652   4.893   2.299  13.352 -0.0797 -0.6921  0.1004
13392W        W29653  13.393   3.804  13.729  0.0738  0.1145 -0.1795
13393W        W29654   3.366  11.845  14.031  0.1348  0.2228 -0.2676
13394W        W29655   9.156   9.372   2.295  0.0071 -0.0703  0.3647
13395W        W29656   5.901   9.169   3.088 -0.3371  0.2289 -0.2629
13396W        W29657  14.947   0.015  13.720  0.1477 -0.0889 -0.1210
13397W        W29658   5.510  17.801   3.548 -0.0673  0.1531 -0.1537
13398W        W29659   8.902   8.384   0.749 -0.0785  0.2372  0.3284
13399W        W29660  13.764   5.894   5.444  0.0248  0.1412 -0.1748
13400W        W29661   3.687  15.807   4.437 -0.1166 -0.2495  0.0753
13401W        W29662   0.755   7.022  16.339 -0.1085  0.0523  0.0868
13402W        W29663   3.900   8.084   5.479 -0.0015 -0.0695 -0.0867
13403W        W29664   2.940  10.952   5.492 -0.1021 -0.3402  0.2155
13404W        W29665  13.042  14.362   5.084 -0.1490 -0.1644 -0.0811
13405W        W29666   7.949  15.149  11.788 -0.0786 -0.0267 -0.3503
13406W        W29667   8.517   6.427   2.776  0.1734 -0.0878  0.2253
13407W        W29668  13.743   2.636   5.933 -0.0514  0.1187  0.2477
13408W        W29669  16.647  15.872  11.952  0.2960  0.2829  0.2717
13409W        W29670  16.406   1.440   3.123  0.0908 -0.0267  0.1963
13410W        W29671  15.513   7.636  16.442  0.1644  0.0241 -0.0022
13411W        W29672   9.766  14.645   2.240 -0.1052  0.0760 -0.0763
13412W        W29673   9.232  14.972   1.398  0.0086 -0.1736 -0.1111
13413W        W29674  13.387   8.889  13.862 -0.3835  0.0726  0.2910
13414W        W29675   8.516   5.709  14.061  0.0302  0.1643  0.0370
13415W        W29676   7.244   1.285  13.508  0.0505  0.0702  0.3455
13416W        W29677  17.169   9.660  12.520 -0.2359  0.0589 -0.2247
13417W        W29678  12.226   1.485   1.242  0.0149 -0.2554 -0.0648
13418W        W29679   2.429   4.629   4.358 -0.0610 -0.0248  0.2523
13419W        W29680   1.218   4.329   3.698 -0.1366 -0.2236  0.0124
13420W        W29681   0.853  12.040   1.062  0.2932 -0.0572 -0.0355
13421W        W29682  13.270   8.405  16.004 -0.0360 -0.0822 -0.0685
13422W        W29683   9.272   0.481  12.680 -0.3069 -0.1541 -0.0895
13423W        W29684   3.508  12.815   6.342  0.2216  0.1411  0.2127
13424W        W29685   1.717  17.749  14.997 -0.0470 -0.2504 -0.3549
13425W        W29686  15.078   5.305   5.072  0.2225 -0.3327  0.2143
13426W        W29687  10.642  10.816   0.968  0.1014  0.2606  0.0035
13427W        W29688  10.684  13.597   0.175 -0.0041 -0.0248  0.1913
13428W        W29689  10.298  13.862   2.605  0.3070  0.1271 -0.0813
13429W        W29690  15.180  13.729  14.374 -0.0765 -0.2051 -0.0052
13430W        W29691  15.406   1.476  16.289 -0.4098 -0.1824  0.0418
13431W        W29692   3.348   1.778  12.163  0.1822 -0.0891  0.1454
13432W        W29693   7.172  17.500  13.844 -0.0091  0.0439  0.1615
13433W        W29694   3.810  12.365   2.756 -0.2105  0.1252 -0.0267
13434W        W29695   7.704  17.575  14.487 -0.2466 -0.0168  0.2704
13435W        W29696   5.729  13.012   2.003 -0.1235 -0.1539  0.2602
13436W        W29697  17.621   3.616  12.103  0.0054  0.1624 -0.0407
13437W        W29698  13.730  17.535  13.423  0.1589  0.0761  0.2950
13438W        W29699  13.356   5.429   2.501 -0.0754  0.1911  0.1211
13439W        W29700  16.608  17.134   5.864 -0.0373 -0.0042 -0.2412
13440W        W29701  15.737   9.488   0.523 -0.2609 -0.2043  0.2432
13441W        W29702  15.185  10.366  14.575 -0.2445 -0.0623 -0.1336
13442W        W29703   5.150  11.828  13.307  0.0752  0.3024 -0.1559
13443W        W29704   0.134   8.404   4.254 -0.2063  0.1716 -0.1742
13444W        W29705  10.119  14.771   2.758 -0.0462 -0.1106 -0.1761
13445W        W29706   3.128   6.747  16.954  0.1452  0.0386  0.0389
13446W        W29707  13.182  11.725   0.679 -0.1556  0.0128  0.1708
13447W        W29708   0.320   8.522  16.230 -0.0720  0.3425 -0.3849
13448W        W29709  12.809   4.171  16.230 -0.2456 -0.1950 -0.1371
13449W        W29710  11.502  10.353  15.804 -0.1911 -0.0481  0.0111
13450W        W29711   3.473   0.480   4.909 -0.1482  0.0303 -0.0619
13451W        W29712   0.343   4.826  11.486  0.0749  0.0345 -0.1712
13452W        W29713   2.160  16.035  16.308  0.1473 -0.0659  0.1380
13453W        W29714  13.675   3.941   4.731 -0.0892  0.0169  0.4365
13454W        W29715  17.118  16.458  14.262 -0.0527 -0.0772  0.0550
13455W        W29716  14.604  16.634  13.192 -0.0076  0.1244  0.2846
13456W        W29717   2.545   3.635   2.782 -0.1155  0.4246  0.0633
13457W        W29718  13.480  13.303   3.332 -0.1152 -0.3659  0.1095
13458W        W29719   0.035   9.843   4.941  0.0737  0.1850 -0.1638
13459W        W29720   7.743   9.253  15.953 -0.0334  0.2479  0.2107
13460W        W29721  16.837   3.844  15.586 -0.1555 -0.6081  0.0015
13461W        W29722  12.184  11.297   4.080 -0.0500 -0.0136  0.1548
13462W        W29723  14.566  11.686   0.077 -0.1353 -0.0380 -0.0224
13463W        W29724   9.435   5.968  16.800  0.0923  0.3473  0.1772
13464W        W29725  17.749   5.497   5.189  0.6072 -0.2723 -0.1087
13465W        W29726  15.902   2.906  13.995 -0.4127  0.1717  0.2224
13466W        W29727   2.353   3.078  14.375 -0.2992  0.0288 -0.0404
13467W        W29728   4.912   0.613   6.327 -0.1662 -0.0773  0.1220
13468W        W29729   5.413  10.274   2.426 -0.2724 -0.0097 -0.2977
13469W        W29730  15.855   4.253   4.711  0.0856 -0.1685 -0.0512
13470W        W29731   9.009   8.411   3.386  0.3086 -0.1587  0.0059
13471W        W29732  10.383  10.389  15.586  0.0767  0.2042  0.0391
13472W        W29733   4.313  17.108   6.388 -0.0948 -0.0437  0.2283
13473W        W29734   2.480   7.308  13.885 -0.2970  0.3099  0.0202
13474W        W29735   5.913  15.144   1.095  0.0467 -0.0553 -0.1826
13475W        W29736   7.252  15.450   5.440 -0.0375 -0.0352  0.0022
13476W        W29737   8.614   3.548   3.194 -0.0041  0.0305 -0.1973
13477W        W29738   7.233   1.065  14.979 -0.0868  0.1848 -0.0599
13478W        W29739  14.108   9.904  16.218  0.0056 -0.0476 -0.1104
13479W        W29740  11.325   2.043  14.504 -0.3566  0.2101  0.1500
13480W        W29741   4.599   1.091   1.204 -0.1464  0.3047  0.0545
13481W        W29742  12.986   2.690   2.399  0.1269 -0.4900 -0.3375
13482W        W29743   0.695   7.132   1.236 -0.1036  0.2499 -0.2768
13483W        W29744  14.181   4.765  14.476 -0.2094 -0.1023 -0.0908
13484W        W29745   3.925   6.277  11.856 -0.1962 -0.1843  0.2715
13485W        W29746   6.245   3.270   4.927 -0.0353 -0.1469  0.4833
13486W        W29747  10.210   2.384  13.321 -0.0080 -0.1184 -0.2645
13487W        W29748  10.617   5.015   0.236  0.3080 -0.0278 -0.1182
13488W        W29749  14.971   4.514   4.611 -0.0713 -0.0194  0.2197
13489W        W29750   5.934  10.670   0.795  0.0704  0.0311  0.0464
13490W        W29751   4.512  16.420   1.374  0.5439 -0.2659 -0.1247
13491W        W29752   2.485   9.215   5.792 -0.3203 -0.0160  0.0303
13492W        W29753   7.562   7.026  13.296 -0.5241  0.0146  0.0801
13493W        W29754  15.169   2.457  13.832  0.0786 -0.0380 -0.2373
13494W        W29755   7.022  13.007  13.641  0.0623 -0.1342 -0.0183
13495W        W29756   8.864  16.454  14.716  0.2094 -0.4144  0.0494
13496W        W29757  11.169   7.919   2.039 -0.1037 -0.1518  0.0220
13497W        W29758  12.102  14.631  16.137 -0.0321  0.0908  0.1887
13498W        W29759  13.554  11.130  15.611  0.0449 -0.0732 -0.1830
13499W        W29760   9.587  11.415  16.160  0.0809  0.2071 -0.2156
13500W        W29761   4.054  16.281   0.215  0.3934 -0.0450  0.1591
13501W        W29762  17.690  11.464  14.504  0.1605  0.1373  0.1759
13502W        W29763  12.085  15.354  13.453 -0.0243 -0.2197  0.0996
13503W        W29764   7.292  11.660  16.513  0.3492  0.1050 -0.2342
13504W        W29765   6.970  12.069  15.846  0.3735  0.2459  0.3699
13505W        W29766   2.986   6.431   1.817 -0.0197 -0.0995  0.1331
13506W        W29767  16.713  15.446  16.760  0.2519 -0.0834  0.1817
13507W        W29768  17.181  17.018   2.543 -0.2123 -0.0982 -0.0247
13508W        W29769   4.114   4.306   2.725 -0.0992 -0.3265  0.0364
13509W        W29770  14.667  17.308  16.138 -0.0254  0.1146 -0.1988
13510W        W29771   6.630  16.221  12.381 -0.1990  0.0172 -0.0163
13511W        W29772  17.594   3.136  14.138 -0.0407 -0.3742  0.0066
13512W        W29773   2.661   2.881   1.900  0.0788  0.0119 -0.0470
13513W        W29774   2.466  14.798  15.651  0.0063  0.0551 -0.0048
13514W        W29775  12.604   4.693   1.902 -0.1616  0.4066  0.1606
13515W        W29776   8.909  14.434  14.550 -0.0942 -0.1350 -0.3451
13516W        W29777   4.815  15.813   2.249  0.1768 -0.1367 -0.0949
13517W        W29778   1.395   6.638  15.112  0.0443  0.2231 -0.1901
13518W        W29779   3.557  13.667  15.303 -0.0240  0.1941  0.0743
13519W        W29780  11.482   2.185  11.916  0.0170 -0.2810  0.0559
13520W        W29781  14.885   1.802  11.674  0.1448  0.3028 -0.1643
13521W        W29782  15.725  11.037   2.412  0.0515  0.0008 -0.2014
13522W        W29783   1.925   0.954  11.378  0.0278 -0.0425 -0.3328
13523W        W29784  17.272   1.194  16.262  0.2026  0.1061 -0.0907
13524W        W29785  11.462   1.256   1.357  0.2870 -0.1055  0.0685
13525W        W29786   2.707  10.609  12.594  0.0703  0.1662  0.1968
13526W        W29787   8.457  17.409  12.800  0.2308  0.1944  0.0157
13527W        W29788   8.053   4.496  13.723  0.3518  0.0250  0.1358
13528W        W29789   6.643   8.197  15.772 -0.1467  0.0254 -0.1382
13529W        W29790  16.793  14.939   1.385  0.2198  0.1035 -0.1858
13530W        W29791   5.467  10.657   3.884 -0.0754 -0.3125  0.0281
13531W        W29792   2.869  16.657  16.244  0.1059  0.0382 -0.1281
13532W        W29793  17.566   0.998   4.384  0.1188 -0.0524  0.3037
13533W        W29794   7.654  14.934  15.108  0.0444  0.0918  0.0689
13534W        W29795  12.816   4.054  11.358 -0.0501  0.0847  0.1322
13535W        W29796   4.216   6.333  14.071 -0.1250  0.2590 -0.1144
13536W        W29797   3.949   5.234   5.881 -0.0547  0.2471 -0.1279
13537W        W29798  12.007   5.020   5.480 -0.3971  0.0807 -0.2201
13538W        W29799  16.314   6.026   2.781 -0.0213 -0.1025 -0.3563
13539W        W29800   0.504  10.926  15.683  0.1307 -0.0591  0.1807
13540W        W29801  16.989   7.322   4.948 -0.1162  0.1681  0.1429
13541W        W29802   2.956  17.428  15.608  0.0264  0.2197  0.1312
13542W        W29803   2.696  10.012   2.943 -0.1729  0.3781 -0.0889
13543W        W29804   7.460  14.010   3.418 -0.1634 -0.0629 -0.0912
13544W        W29805  11.508  14.252   2.124  0.0931  0.0274 -0.0345
13545W        W29806   7.516   7.502   0.428  0.1213 -0.1053 -0.3000
13546W        W29807  14.123   5.419   4.864 -0.0368  0.0477  0.0305
13547W        W29808   7.876  14.223  15.611 -0.0420  0.1666  0.0745
13548W        W29809   5.358  11.779  14.545 -0.0577  0.1108 -0.1212
13549W        W29810  15.729   3.611  13.732  0.0505  0.0305  0.2172
13550W        W29811   2.513   8.988   0.594 -0.1100 -0.0186  0.1194
13551W        W29812  14.069  12.621   2.330  0.2020 -0.4033 -0.2630
13552W        W29813   8.826  15.897  14.793  0.0150 -0.1181  0.0757
13553W        W29814   9.495  11.857   1.237 -0.0728 -0.1086 -0.3450
13554W        W29815   2.319   8.273   3.492 -0.1314  0.2385 -0.1117
13555W        W29816   8.145  12.820  15.895  0.0816  0.1669  0.0452
13556W        W29817   8.908   7.836   1.358 -0.1536  0.0228 -0.2408
13557W        W29818   1.653   8.998  16.556 -0.3976  0.0372 -0.1182
13558W        W29819  10.957   9.545  14.728 -0.3955 -0.0229 -0.3088
13559W        W29820  14.532  12.433   3.185  0.2205 -0.2877  0.1322
13560W        W29821  16.532  14.035   3.262  0.0533 -0.2334  0.3084
13561W        W29822   7.740  14.534   2.611  0.2095 -0.0600  0.0797
13562W        W29823  12.385  13.263   0.683 -0.0782 -0.2740 -0.1813
13563W        W29824   9.080  12.499   5.305  0.0026 -0.1593  0.1775
13564W        W29825  12.655   7.095  13.188 -0.1929 -0.0788  0.0755
13565W        W29826   4.202   6.736  13.317  0.0217  0.0058  0.1790
13566W        W29827   4.463  16.083  12.529 -0.1518 -0.0107  0.2286
13567W        W29828  12.876  17.696  13.502 -0.0216 -0.0873 -0.0147
13568W        W29829  13.698  12.898  13.659  0.2439  0.3752 -0.1316
13569W        W29830   9.363  13.959   6.164  0.2366 -0.1623 -0.1187
13570W        W29831  15.475   9.790  12.412 -0.1688  0.0322  0.0591
13571W        W29832   0.307   1.801   4.617 -0.0043 -0.3208  0.0241
13572W        W29833   5.386   4.352   4.561  0.0952  0.0388  0.1550
13573W        W29834  13.705   6.242  12.047  0.1002  0.0367  0.0820
13574W        W29835   9.837   4.314  15.865 -0.0303 -0.0091 -0.1257
13575W        W29836   4.332   1.954  12.769  0.0710 -0.3808  0.2727
13576W        W29837  13.351   3.809   4.289  0.0042  0.0594 -0.0371
13577W        W29838   0.097   5.976   4.048 -0.2601 -0.0631  0.1657
13578W        W29839   6.831  13.684   3.890 -0.1169  0.0541  0.0245
13579W        W29840   3.550  17.090   0.234 -0.1857 -0.1353 -0.0937
13580W        W29841  11.222   9.131  16.768 -0.3033 -0.1594  0.0664
13581W        W29842   1.992   1.793  16.166  0.1113  0.0026  0.1426
13582W        W29843   1.259  13.032   5.855 -0.1707  0.0526  0.1856
13583W        W29844  12.748  17.618   2.319 -0.2834  0.1180 -0.0886
13584W        W29845   6.999   3.291   5.004  0.0600  0.0162 -0.0628
13585W        W29846   2.562  14.304  13.009  0.4203 -0.0438  0.1926
13586W        W29847  17.310  15.501  12.768  0.0047 -0.2561 -0.0059
13587W        W29848   3.875  17.008   5.461 -0.0721 -0.1354 -0.3326
13588W        W29849  15.920   7.065  16.751 -0.0318  0.0854  0.1696
13589W        W29850   3.913  10.033  13.306  0.0744  0.1143 -0.1179
13590W        W29851   1.711  17.067   4.628 -0.1362 -0.2333 -0.0370
13591W        W29852  15.220   1.920  12.101  0.0180  0.1150  0.2267
13592W        W29853   5.704   4.058   4.932  0.4996  0.0501 -0.0804
13593W        W29854   3.463  13.299  13.157  0.1345 -0.1173  0.1144
13594W        W29855   9.973  15.355   1.762  0.1346  0.2834 -0.0139
13595W        W29856   8.495  17.346   5.188 -0.1707  0.0318 -0.3930
13596W        W29857  13.343  15.691  11.655 -0.0509  0.1014 -0.0280
13597W        W29858   5.986  13.547  14.462 -0.1387 -0.0702  0.0487
13598W        W29859  17.146   0.459  11.862 -0.0845 -0.1883 -0.3055
13599W        W29860   0.019   6.079   0.777 -0.0230 -0.1473 -0.0114
13600W        W29861  17.284  14.703  12.457  0.0985  0.3049 -0.0938
13601W        W29862  11.459  17.656   1.664 -0.3205  0.2892  0.0887
13602W        W29863  16.549  14.147  16.057 -0.0544 -0.2096 -0.2923
13603W        W29864  13.734  11.911   5.249 -0.0059 -0.0782  0.0731
13604W        W29865   9.809   1.533  11.943  0.1217  0.0392  0.0187
13605W        W29866   4.678  13.533  13.764 -0.2427  0.0504 -0.0506
13606W        W29867  17.740   4.327   0.521 -0.1027  0.0588  0.4462
13607W        W29868  13.109   5.100   0.510  0.3992  0.2080  0.1993
13608W        W29869   4.803   9.043  14.607  0.3702  0.0197 -0.1204
13609W        W29870  11.149   0.314  12.274 -0.1224  0.1219  0.0910
13610W        W29871   7.141  15.917   4.219 -0.0167  0.1326 -0.1146
13611W        W29872   4.407   6.187  12.005  0.1531 -0.0790 -0.1494
13612W        W29873   2.294   6.644   5.602 -0.1686 -0.1486 -0.3742
13613W        W29874   1.715  16.931   2.387  0.2697 -0.1911 -0.1037
13614W        W29875  15.149  13.851   2.493  0.1712  0.2891 -0.0641
13615W        W29876  11.698   9.539   2.343  0.1732 -0.0037 -0.2448
13616W        W29877  16.614  13.588  15.513  0.0825 -0.2649  0.0974
13617W        W29878  11.262   0.698  12.972  0.0435 -0.3307  0.0590
13618W        W29879  12.829   0.147   5.921  0.1365 -0.2085 -0.1242
13619W        W29880  12.918   8.295   4.028 -0.1226 -0.0570 -0.6172
13620W        W29881  11.969   5.764   5.027  0.1089  0.1758 -0.1100
13621W        W29882   6.433  15.797   1.767 -0.0609  0.0044  0.2541
13622W        W29883   6.119  12.817   2.205 -0.1427 -0.0388  0.3348
13623W        W29884   4.343   0.678  16.169 -0.2765  0.1969 -0.1814
13624W        W29885   9.562  10.636   4.042  0.0461  0.1273  0.0320
13625W        W29886   0.755   7.334  14.158 -0.1994 -0.2948 -0.0034
13626W        W29887  12.859   5.089  15.897 -0.0086 -0.0024 -0.0026
13627W        W29888   1.172   7.380  13.829 -0.2055 -0.0452 -0.2860
13628W        W29889   6.238  14.094  12.061 -0.1807 -0.0142 -0.1564
13629W        W29890  16.151   7.567   1.783 -0.2012 -0.1705 -0.0482
13630W        W29891   0.381   1.552  12.236 -0.1187 -0.2759 -0.1244
13631W        W29892  15.682   7.151  16.270 -0.0980  0.0592  0.1426
13632W        W29893  12.249  16.479   4.107  0.0227 -0.0716 -0.2158
13633W        W29894  14.313  12.618  13.071 -0.0172  0.0260 -0.1232
13634W        W29895   1.543  10.066   3.630 -0.2364  0.0577 -0.0892
13635W        W29896   7.453   2.200   5.699 -0.0744 -0.1675 -0.0007
13636W        W29897   3.443  15.786  16.382  0.0156  0.0361 -0.0857
13637W        W29898  14.379   6.977  16.713 -0.0843 -0.0067 -0.2036
13638W        W29899  16.225  17.829  15.748 -0.0846 -0.1750 -0.0818
13639W        W29900   5.546   4.528   2.501 -0.0239  0.0374  0.2434
13640W        W29901  14.445   1.522  12.939  0.1449  0.1774  0.1212
13641W        W29902   5.355   0.334   1.351 -0.0146 -0.0258  0.0961
13642W        W29903  14.913   3.135   1.472  0.0430  0.2307 -0.0765
13643W        W29904  11.168  16.982   3.357 -0.0344 -0.0951  0.1238
13644W        W29905   9.595   8.214  14.939  0.0694 -0.2560 -0.0062
13645W        W29906   9.192   8.092  12.243  0.0708 -0.0064  0.1137
13646W        W29907  13.543   2.282   3.720 -0.2173  0.1659  0.1089
13647W        W29908   1.947  12.719   4.048  0.5122  0.0819  0.1171
13648W        W29909   6.441  16.399  16.059  0.0542  0.0417 -0.1033
13649W        W29910   3.933   5.454  15.087 -0.0557 -0.0290  0.0715
13650W        W29911  17.536   6.823   2.044  0.0644  0.0277  0.1430
13651W        W29912  12.878   2.649   1.925  0.1125 -0.4219  0.0228
13652W        W29913   1.731  12.938   0.737  0.2520  0.0488 -0.2451
13653W        W29914  11.965  13.195  12.821  0.0346 -0.1474  0.0027
13654W        W29915  16.705   2.620   1.815 -0.0063 -0.1933 -0.0083
13655W        W29916  16.134   6.563  13.433  0.0514 -0.0254 -0.1782
13656W        W29917   8.696   0.813   0.288 -0.0411  0.1500 -0.2037
13657W        W29918  11.484   7.058  16.593 -0.2293  0.0195 -0.0311
13658W        W29919  11.681   7.459   5.757  0.1914  0.2139 -0.2125
13659W        W29920   4.257  10.043  13.619 -0.1012 -0.0987  0.2068
13660W        W29921  10.086   0.840  12.426 -0.0973 -0.0873 -0.1411
13661W        W29922  17.175   5.077  13.104  0.2784 -0.0964 -0.1358
13662W        W29923  11.269   8.890   1.190  0.1606 -0.0518 -0.2448
13663W        W29924   1.952  11.442  16.777 -0.3205 -0.1203  0.1477
13664W        W29925   8.445   1.894   3.291 -0.2693 -0.2068 -0.0020
13665W        W29926  10.060  13.740  15.344  0.1189  0.2285  0.2098
13666W        W29927   2.459   8.388   1.296  0.4346 -0.3288  0.0689
13667W        W29928   6.037   8.583   4.790 -0.2186 -0.0949  0.2938
13668W        W29929  12.361   7.855  11.792 -0.4508 -0.3898  0.1314
13669W        W29930   6.151   2.079  16.456 -0.0292 -0.1346  0.1044
13670W        W29931  13.356   7.597  12.705 -0.0816  0.0772  0.2070
13671W        W29932  16.531   5.894  14.064  0.1537 -0.1162  0.1229
13672W        W29933  11.763  10.645  13.184 -0.0997 -0.0367 -0.2178
13673W        W29934  11.552  17.118   6.184  0.0657  0.2217 -0.1950
13674W        W29935  15.930  16.011  15.595 -0.0997 -0.0363  0.0040
13675W        W29936  17.324   1.315   0.593 -0.2334  0.1012  0.0232
13676W        W29937   5.375   8.308   3.921 -0.1529 -0.1140  0.2058
13677W        W29938   1.871   1.300  15.986 -0.0991  0.1043 -0.1591
13678W        W29939  12.972  15.049   2.230 -0.3032 -0.0198  0.0558
13679W        W29940   9.618   3.711  11.746 -0.0993  0.2560  0.1256
13680W        W29941  11.502  11.569   1.557  0.0886 -0.2247  0.3285
13681W        W29942  15.518   7.256  13.433 -0.0185  0.0366 -0.3244
13682W        W29943  16.931   3.842   4.665 -0.2707  0.2093 -0.6712
13683W        W29944   2.534  12.349   5.337  0.0596 -0.2467 -0.0929
13684W        W29945   7.203  12.759  16.412 -0.0120 -0.0028  0.2799
13685W        W29946   1.617  10.563  13.618  0.1501 -0.1384  0.0646
13686W        W29947   9.322   8.940  16.424  0.0067 -0.0891  0.1206
13687W        W29948   2.380   9.025  15.321 -0.0018 -0.2978  0.0035
13688W        W29949  15.856   0.123   1.140 -0.0330  0.0490 -0.3820
13689W        W29950   9.949  15.635  13.721 -0.1217 -0.1290 -0.0681
13690W        W29951   9.254  17.503   1.000 -0.1527  0.4885 -0.1005
13691W        W29952   7.501  17.527   0.998 -0.3484  0.2344 -0.1446
13692W        W29953  13.281   3.106   2.351 -0.1219  0.1740  0.1437
13693W        W29954   4.298   1.414  12.615  0.2196 -0.0776  0.0615
13694W        W29955  14.615   4.480   3.284 -0.0774 -0.1239  0.2370
13695W        W29956   0.643  16.507   1.960 -0.0575 -0.3051  0.0484
13696W        W29957   0.210   3.995   0.314 -0.0443 -0.1291 -0.1604
13697W        W29958  12.283   1.779  14.288 -0.0700 -0.0418  0.1199
13698W        W29959  10.490   7.923  11.919 -0.0086 -0.3234  0.0806
13699W        W29960  16.317   4.579  15.905 -0.0413  0.2919  0.3249
13700W        W29961  15.114  14.359   2.271 -0.1936 -0.1163 -0.0212
13701W        W29962   6.778   0.825   3.802 -0.0078  0.3111 -0.0485
13702W        W29963  11.685  10.340   3.570  0.2312 -0.0903 -0.0653
13703W        W29964  11.876   8.089  11.800  0.1408  0.2086  0.2159
13704W        W29965  17.738  13.364   1.384  0.0606  0.0754  0.3037
13705W        W29966   3.554   0.512  14.284 -0.0308  0.0008 -0.2350
13706W        W29967  10.647   8.224   0.680  0.2181 -0.3573  0.0587
13707W        W29968   9.236  16.638   4.292 -0.1435  0.0277 -0.0406
13708W        W29969  16.279  16.771   0.009 -0.3574 -0.0922 -0.1969
13709W        W29970  15.939  12.849  15.075 -0.0128  0.0270 -0.1840
13710W        W29971   9.776  16.359   3.867 -0.1829 -0.2878 -0.1001
13711W        W29972   1.448   7.661   5.911  0.3973  0.0193 -0.0808
13712W        W29973  10.128   5.592   4.630 -0.1988  0.3400 -0.0472
13713W        W29974  15.004   7.845   0.304  0.0208 -0.0695 -0.0821
13714W        W29975   8.184   8.178  15.960  0.2010 -0.0513  0.0829
13715W        W29976   0.461  12.022   1.487  0.0475  0.3448  0.0496
13716W        W29977  10.879  12.101   1.152 -0.2104  0.1251  0.0912
13717W        W29978  13.106  10.173   5.528  0.0637 -0.2952  0.2203
13718W        W29979  12.015   6.139  13.231 -0.0940 -0.1353 -0.1498
13719W        W29980  11.607  10.817   3.406  0.0371  0.3581  0.1374
13720W        W29981   4.320  17.752  13.941 -0.0886 -0.0015 -0.1720
13721W        W29982   2.226  17.501  15.153  0.1947  0.4637  0.0315
13722W        W29983   3.207   1.065   1.790  0.0548 -0.0569  0.0483
13723W        W29984   4.369   4.229  13.131 -0.0780  0.0893  0.2050
13724W        W29985   1.364   6.108  15.091  0.3523  0.2855  0.1241
13725W        W29986  13.159  12.031   5.113  0.2662  0.3013  0.1162
13726W        W29987   1.178  15.654  15.434  0.0765 -0.2677 -0.0376
13727W        W29988  13.130   4.994  12.199 -0.3014  0.0724 -0.1193
13728W        W29989   2.922  13.560  14.192  0.2015 -0.1300 -0.0047
13729W        W29990  14.857   7.848  16.440  0.0150  0.0957 -0.1086
13730W        W29991   6.998   3.069  12.275  0.1180 -0.1002  0.1815
13731W        W29992   5.562   1.927  16.500 -0.0403 -0.0773 -0.0151
13732W        W29993   0.177  10.890   1.981 -0.1732  0.2197 -0.1912
13733W        W29994  15.431  15.105  15.515 -0.0601  0.1343 -0.0327
13734W        W29995  16.343  16.215  13.861 -0.0718 -0.0073  0.0388
13735W        W29996   4.570   6.776   4.269  0.0422 -0.0367  0.2562
13736W        W29997   3.246  11.491   5.729  0.1201  0.3111 -0.1612
13737W        W29998   4.248  14.632   1.821  0.3223  0.0429  0.0367
13738W        W29999  10.540  14.661   1.891 -0.1930 -0.0335  0.1848
13739W        W30000  13.720  14.316  14.813  0.0091  0.0509  0.0608
13740W        W30001  11.364   8.978   3.485 -0.1738  0.0201  0.0820
13741W        W30002   6.562   8.237  11.802  0.0490 -0.1510 -0.1206
13742W        W30003   5.882  16.818   4.870  0.3376  0.1004  0.1189
13743W        W30004  13.596   4.657  16.971 -0.2386  0.0029  0.3269
13744W        W30005   4.878   3.566  15.154  0.0010  0.1984  0.1287
13745W        W30006   5.303  17.782  11.959 -0.1989 -0.2102  0.0670
13746W        W30007  14.286  10.477   5.514 -0.1970 -0.2927 -0.0635
13747W        W30008   9.085  10.319  15.689 -0.0485 -0.2658 -0.0756
13748W        W30009  14.154   4.960  13.073  0.1251  0.0762  0.0493
13749W        W30010  14.806  15.154  14.743  0.0197 -0.0081  0.2011
13750W        W30011  14.871   8.039   1.691 -0.2012  0.0061 -0.2210
13751W        W30012  14.943   2.901  14.092 -0.2562  0.2599 -0.0342
13752W        W30013  10.158  14.939   0.491 -0.1311  0.1423  0.0384
13753W        W30014  12.680   2.337  13.666 -0.0306 -0.0004 -0.0665
13754W        W30015   2.210   5.984  13.489  0.0168 -0.1030 -0.1559
13755W        W30016   5.377   4.411  15.251 -0.0499 -0.1701 -0.1840
13756W        W30017   8.630  17.662   3.897 -0.1493  0.0452  0.0284
13757W        W30018   4.244  10.141  11.932  0.2007  0.1268  0.1986
13758W        W30019   3.908   6.163   5.807  0.1249 -0.0314  0.0612
13759W        W30020   5.870  14.978   2.221 -0.1369  0.1750  0.2121
13760W        W30021  15.446  10.574  14.126  0.1646  0.0867 -0.0246
13761W        W30022   5.808  16.308  14.373  0.0413  0.0053 -0.0649
13762W        W30023   8.349  13.014  14.083 -0.5782  0.1693 -0.0727
13763W        W30024   0.869   7.816   0.656  0.0631 -0.2518  0.2206
13764W        W30025  12.028   3.746  13.999 -0.3171 -0.2025 -0.1154
13765W        W30026  16.334   7.914  16.244  0.2027  0.0314  0.4482
13766W        W30027  17.507   1.584   5.134 -0.2713  0.2078 -0.0394
13767W        W30028   0.726   8.944  13.323  0.1047 -0.3174  0.2158
13768W        W30029   9.265   5.678   4.871  0.2506 -0.0791 -0.1887
13769W        W30030   3.225  14.168   4.234 -0.1663 -0.2218 -0.1154
13770W        W30031  13.828   4.353  11.891  0.1147 -0.1670  0.1144
13771W        W30032  13.269  14.081  14.921 -0.0540  0.1310  0.2955
13772W        W30033   1.841   6.954  14.551 -0.0305  0.0354 -0.1290
13773W        W30034   0.180   7.516   5.431  0.0996  0.2593 -0.1300
13774W        W30035  12.199   9.626   0.626  0.1114  0.3336 -0.1477
13775W        W30036   4.141   7.649   4.384 -0.0753 -0.1449  0.1266
13776W        W30037   4.273   0.730   0.954  0.0943  0.1730 -0.1222
13777W        W30038  17.530  14.161   4.514  0.1856 -0.4220 -0.1142
13778W        W30039   7.160   9.097  12.516 -0.2184  0.0306 -0.1267
13779W        W30040  14.632  14.838  13.784 -0.0705  0.2056  0.2204
13780W        W30041   7.246  14.340   1.719  0.0873  0.3640  0.1252
13781W        W30042  12.530   7.118  13.742  0.0000 -0.1076 -0.0758
13782W        W30043   6.599  14.194   0.606 -0.0342  0.0576 -0.2084
13783W        W30044   9.687   9.440   4.517  0.0287  0.1287 -0.1653
13784W        W30045  16.516   3.883  16.405 -0.2138  0.1889 -0.3376
13785W        W30046  15.310   7.095  14.361 -0.1636  0.1809  0.1644
13786W        W30047   1.972   7.049   3.923 -0.1028 -0.1531  0.1230
13787W        W30048   8.935   5.414  13.543  0.2444 -0.0753  0.1032
13788W        W30049  15.051   2.045   0.091  0.1437 -0.1718  0.1938
13789W        W30050  11.236   1.746  12.760  0.1591 -0.1602  0.1187
13790W        W30051  14.742  13.869   5.163 -0.1759 -0.1325  0.3015
13791W        W30052  12.227   2.667  12.267  0.1075  0.0047  0.1874
13792W        W30053  11.020  16.145   3.325  0.0399  0.1334  0.1670
13793W        W30054   5.961  14.810  15.132 -0.1276  0.0856 -0.4512
13794W        W30055  17.803  16.846  15.888 -0.2195 -0.2093 -0.2053
13795W        W30056   0.389   7.890   3.004  0.0306 -0.0256  0.0781
13796W        W30057  12.362   4.700   4.865 -0.0918 -0.0167 -0.1769
13797W        W30058   9.122   4.385   3.139  0.2179  0.1222 -0.0827
13798W        W30059   7.481   7.284   2.436 -0.2132  0.2629 -0.2002
13799W        W30060   8.768   4.982  14.639  0.2735  0.1860  0.3510
13800W        W30061   3.694  10.579   0.087 -0.1342 -0.3506  0.0971
13801W        W30062  14.817   3.190  16.712 -0.0860 -0.0695 -0.1219
13802W        W30063   7.572   6.294  15.114  0.0550 -0.1614  0.3863
13803W        W30064  11.448  15.913   5.875 -0.1551  0.0002  0.3139
13804W        W30065  14.206   2.021   0.424 -0.1685 -0.0725 -0.2901
13805W        W30066   5.321  13.651  15.032  0.2205 -0.3254 -0.0262
13806W        W30067  13.781   7.788  12.954 -0.0191  0.0554  0.0042
13807W        W30068  15.121   3.678  12.161  0.2318 -0.0492 -0.2155
13808W        W30069  14.051  10.064  11.489 -0.0212 -0.0807  0.0042
13809W        W30070  13.335   5.082  13.175  0.1284 -0.0273 -0.1820
13810W        W30071  16.058   2.435   4.412  0.0909  0.0008  0.0605
13811W        W30072  11.560  16.922  12.620 -0.2054 -0.1779  0.0840
13812W        W30073   1.120   1.677   2.500  0.4869  0.0974  0.0696
13813W        W30074   0.178  10.414   1.756 -0.1395  0.1770 -0.1400
13814W        W30075   9.735   5.523  12.226 -0.1866 -0.1871  0.1035
13815W        W30076   9.917  13.707  16.010  0.1213 -0.2995 -0.2023
13816W        W30077   2.334  17.234  12.460  0.0135  0.0385 -0.3322
13817W        W30078   8.256   9.321   5.214 -0.4479 -0.0870  0.1096
13818W        W30079   7.294  12.816   2.509 -0.0567  0.0532 -0.0139
13819W        W30080   0.699  16.378   4.604 -0.1824  0.0786 -0.0427
13820W        W30081   6.198   7.244   2.061  0.0792 -0.0038  0.1562
13821W        W30082   2.433  12.657   4.943  0.2055 -0.1219  0.3354
13822W        W30083   7.317   5.503  14.935  0.2333 -0.0890 -0.0906
13823W        W30084   6.921  14.022   1.898  0.2314 -0.0551 -0.0923
13824W        W30085   1.692  15.369  16.621  0.2383 -0.0745  0.0502
13825W        W30086   5.442   8.088   5.204 -0.2388 -0.0537  0.1955
13826W        W30087  12.941   5.322  12.550 -0.0379 -0.0020  0.5231
13827W        W30088   2.396  13.155  15.274  0.1342  0.0324  0.0962
13828W        W30089   1.820  13.609  13.937  0.1334 -0.1319  0.0431
13829W        W30090  10.858   7.224  13.630  0.0670  0.0482 -0.0383
13830W        W30091   7.369   9.303   1.255  0.0476  0.0165 -0.1751
13831W        W30092  10.225   3.051   2.191 -0.0209  0.1648 -0.0312
13832W        W30093  10.955  15.186   4.354 -0.1410  0.2384  0.3449
13833W        W30094   9.665   3.179   0.749 -0.0376 -0.1357  0.0408
13834W        W30095   2.453   5.174   2.145  0.0288  0.0536  0.0402
13835W        W30096  11.283   7.387  16.266 -0.3666  0.0132  0.2858
13836W        W30097   6.428   4.100  15.624  0.0672  0.0259  0.0539
13837W        W30098   8.784  10.293  12.082  0.0054 -0.1239  0.0107
13838W        W30099   7.292   9.618   0.163  0.0496  0.1209 -0.0598
13839W        W30100   3.920  11.816   3.204  0.0824  0.0115  0.0890
13840W        W30101   7.087   9.609   2.470  0.2737 -0.0439 -0.1756
13841W        W30102  14.932  12.233  14.871 -0.1632 -0.0680 -0.0604
13842W        W30103   8.840  17.364  14.552  0.0057 -0.1466 -0.0778
13843W        W30104   1.401  13.933  11.631  0.2881 -0.1769  0.2040
13844W        W30105   9.930   4.019  11.533 -0.0634  0.0986  0.1085
13845W        W30106   9.254  12.447   2.900  0.0984  0.1637 -0.0138
13846W        W30107  12.852  16.685  16.295  0.0693  0.1219  0.0859
13847W        W30108  14.916  10.216   0.389 -0.2198  0.1662  0.0870
13848W        W30109   1.877  16.264  13.264 -0.3545 -0.0699  0.0352
13849W        W30110  15.660  16.945  15.539 -0.0339 -0.2028  0.2620
13850W        W30111   8.739  15.183  13.353  0.0191 -0.0883 -0.1478
13851W        W30112  10.438  11.701  13.314 -0.0093 -0.2636 -0.1256
13852W        W30113   9.940   9.975  14.526  0.1887 -0.0900  0.2305
13853W        W30114  14.095  12.698   1.592  0.1247  0.3445  0.3716
13854W        W30115   2.001  10.957  11.935 -0.0431  0.0518 -0.0559
13855W        W30116   7.967   5.741   4.922 -0.2396 -0.1717 -0.1964
13856W        W30117   2.505  16.913   3.550  0.2273 -0.0451 -0.1351
13857W        W30118   0.637   1.206  12.457 -0.0128 -0.0686 -0.2000
13858W        W30119  17.801  15.576   5.645 -0.2738  0.3456  0.1307
13859W        W30120   0.994   7.590   1.219  0.2129  0.2192 -0.1891
13860W        W30121   2.410  10.184   3.361  0.3217  0.0029  0.1041
13861W        W30122  10.264   3.826  14.924 -0.1640  0.0280  0.2938
13862W        W30123  15.270   8.015   3.712 -0.1300 -0.0955 -0.0635
13863W        W30124   9.701  14.355   1.814  0.3510 -0.1401  0.3109
13864W        W30125   2.417   5.475   5.597  0.0150  0.2109  0.3335
13865W        W30126   0.816   1.536   1.680  0.0572  0.1280  0.0783
13866W        W30127   8.121   4.305   1.748  0.2856  0.1762  0.0069
13867W        W30128  16.223   2.352  11.363  0.0608  0.0679  0.0736
13868W        W30129   4.890   6.387  15.610 -0.4338  0.1942  0.0850
13869W        W30130  17.057   2.902  12.185  0.0142  0.0804 -0.3589
13870W        W30131   6.186   9.185  12.670  0.1341  0.2969  0.0751
13871W        W30132  14.613  15.534  16.798  0.1506  0.1240 -0.0028
13872W        W30133   7.194   4.753   1.363  0.3481 -0.1313  0.0252
13873W        W30134   1.138  11.004  13.363 -0.0608  0.1298 -0.0033
13874W        W30135  11.729   6.249  11.918  0.1879  0.1134 -0.0709
13875W        W30136  12.748   8.728   5.307 -0.2300  0.1306 -0.0804
13876W        W30137   2.767   0.409   5.575 -0.1691  0.2339 -0.3007
13877W        W30138   8.493   4.669  14.949  0.0614  0.1177  0.1041
13878W        W30139  17.779   9.731  16.146  0.2945 -0.1398  0.2815
13879W        W30140   0.057   4.078   0.931 -0.3915  0.0846 -0.0840
13880W        W30141   6.189  11.378   2.842 -0.2364  0.0702 -0.0496
13881W        W30142  14.812  15.769  12.757  0.0631 -0.0429 -0.0767
13882W        W30143  13.106   0.680  15.757 -0.3790  0.1546  0.3296
13883W        W30144   2.473   9.875   6.351 -0.0580 -0.0221 -0.1452
13884W        W30145   0.071   7.876  12.988  0.4047  0.1002 -0.3711
13885W        W30146   9.312   9.954   3.590 -0.0016  0.2064 -0.5021
13886W        W30147   5.424   8.650   4.293 -0.0435  0.1313 -0.2191
13887W        W30148  13.235   3.515   2.142 -0.4343  0.0660 -0.1076
13888W        W30149  16.213   1.455  15.919  0.2468  0.0562 -0.0746
13889W        W30150   7.066  15.476  12.855 -0.2947  0.1603 -0.1888
13890W        W30151  14.849  15.152  16.614 -0.0383 -0.1301  0.1527
13891W        W30152   3.033   4.690   0.360 -0.1238 -0.1687 -0.3286
13892W        W30153  11.553   8.649   2.230  0.1364 -0.1110 -0.1114
13893W        W30154   6.768  13.285   0.903 -0.3319  0.1183 -0.3388
13894W        W30155   8.553  15.118  12.095  0.0843  0.0514 -0.2540
13895W        W30156   8.436   7.205   1.498 -0.3474 -0.0461 -0.1004
13896W        W30157   6.215   3.271   3.914 -0.1231 -0.1268 -0.2468
13897W        W30158   6.825   2.013   5.318 -0.5125 -0.0083  0.0379
13898W        W30159  15.133   2.442   6.060  0.2624  0.0247  0.0364
13899W        W30160  13.192   0.188  15.372 -0.3095  0.1249 -0.1122
13900W        W30161  12.632  11.920   1.430  0.4669 -0.0063 -0.0205
13901W        W30162  15.453  17.410  11.697 -0.1802 -0.3293  0.3630
13902W        W30163  12.634  15.042   5.936 -0.4426  0.6722 -0.0059
13903W        W30164  13.183   7.974   6.057  0.2476  0.0518 -0.1128
13904W        W30165   3.182   6.680   4.390  0.2389  0.0602 -0.0669
13905W        W30166  17.794   4.843  15.414 -0.1207  0.0118  0.5022
13906W        W30167   3.211   2.239   1.895  0.0736  0.0660 -0.1746
13907W        W30168   9.770  16.775   3.523  0.2739  0.2819 -0.0085
13908W        W30169  12.590  11.325  15.785  0.2366 -0.0061  0.0756
13909W        W30170  10.230  14.592  12.479 -0.1716 -0.0113  0.1481
13910W        W30171  11.704  15.437   3.357 -0.4265  0.0065 -0.2315
13911W        W30172  15.180   7.797  14.035  0.1193 -0.3987  0.1461
13912W        W30173  10.661   7.331   1.706  0.1085  0.2018 -0.1034
13913W        W30174  15.153   1.083  14.724 -0.4862  0.0742 -0.2190
13914W        W30175   1.123   0.983   2.972  0.0225  0.3928  0.0284
13915W        W30176  10.068   3.530   1.406  0.0466 -0.4253 -0.0969
13916W        W30177  11.155   8.398  12.841  0.2034  0.1196 -0.0845
13917W        W30178  10.149  12.450   4.371  0.2848 -0.1680  0.0442
13918W        W30179   0.586  10.404   2.498 -0.0243  0.1558 -0.0828
13919W        W30180   7.584   1.818   1.765 -0.1781 -0.0046  0.2886
13920W        W30181  16.370  17.558  10.732 -0.1852 -0.1072 -0.0534
13921W        W30182  13.911   7.633  14.215  0.1402  0.0136  0.0077
13922W        W30183   5.834  12.754  15.251 -0.0767 -0.3644 -0.1819
13923W        W30184   5.953   5.559   0.639  0.1605 -0.1908 -0.0095
13924W        W30185   7.949   8.132  13.043  0.1061  0.0169  0.0294
13925W        W30186   6.497  17.556   1.926 -0.3233  0.0271  0.0282
13926W        W30187   7.692   1.185   2.038  0.0582  0.0518 -0.0723
13927W        W30188   4.381  10.659  13.874 -0.2112  0.2779  0.0020
13928W        W30189  15.000   2.814   4.607  0.0598  0.1632  0.3295
13929W        W30190   7.839   1.230   4.868 -0.2317  0.2372 -0.3421
13930W        W30191   8.979   2.280  14.031  0.0156 -0.4237 -0.1422
13931W        W30192  16.658   9.877   2.376 -0.1553 -0.3335  0.2577
13932W        W30193   6.897  10.853  14.685  0.1363 -0.0152  0.2393
13933W        W30194   5.771   9.345   0.041 -0.2107  0.1762  0.0090
13934W        W30195  17.613   9.972  15.196  0.4059  0.1484 -0.2987
13935W        W30196   3.449  14.070   2.116 -0.4373  0.0543  0.2054
13936W        W30197  11.241   9.889   2.557 -0.2011  0.1500 -0.0647
13937W        W30198   0.444   5.350  12.017  0.0492 -0.0891 -0.1797
13938W        W30199  10.922  10.596   4.043  0.0118 -0.0080  0.2206
13939W        W30200  16.808   0.879  16.034  0.3271  0.0851 -0.2195
13940W        W30201   5.239   3.961  11.532 -0.1585 -0.0217  0.0141
13941W        W30202  13.150  14.885   6.238 -0.0418  0.1349 -0.0232
13942W        W30203   6.698  11.689  15.711  0.0686 -0.1335 -0.3187
13943W        W30204  14.841   1.947   3.720 -0.0363  0.1277  0.0637
13944W        W30205  14.902  16.174   6.172 -0.0387 -0.1744  0.0158
13945W        W30206   7.738  15.533   1.207 -0.0520  0.0219 -0.0606
13946W        W30207  12.906   3.091   2.686 -0.1770 -0.2850  0.0932
13947W        W30208   9.384  12.623   6.176  0.1707 -0.1540  0.0502
13948W        W30209   7.770  17.470  16.587 -0.1154  0.0783  0.0629
13949W        W30210  12.006  14.467  12.244 -0.1468  0.0125 -0.3567
13950W        W30211   8.963   7.218   1.385 -0.1702 -0.0899  0.0005
13951W        W30212   1.475  11.674   1.315  0.1218  0.2081  0.0242
13952W        W30213  12.806   6.019  16.793 -0.0776 -0.2528  0.1365
13953W        W30214   0.163  11.388   3.878 -0.0361  0.3646  0.1045
13954W        W30215  15.786  13.702   1.384 -0.2579 -0.2496  0.0490
13955W        W30216  13.101  13.837  12.894 -0.2387  0.1215  0.0280
13956W        W30217  14.199  17.092  16.518 -0.0665  0.0912  0.1177
13957W        W30218   7.429   3.278   1.818  0.0221  0.0570  0.2535
13958W        W30219   9.415  11.413   5.964 -0.1000  0.1760 -0.0080
13959W        W30220  14.514  17.798   4.999 -0.3250  0.1540 -0.0796
13960W        W30221   0.412  17.149   1.178 -0.0971  0.0415  0.0248
13961W        W30222   0.689  15.120   2.893 -0.0051  0.1119  0.0958
13962W        W30223   3.865  16.358   3.232  0.2400 -0.0733  0.0091
13963W        W30224  14.709  10.085  16.813  0.0852 -0.2895 -0.0836
13964W        W30225  17.207  17.405  16.654  0.0297 -0.1971 -0.1122
13965W        W30226   5.251   4.623   1.648 -0.0357  0.0625  0.0449
13966W        W30227  17.611  15.298  15.124  0.0470 -0.3296 -0.0098
13967W        W30228   0.065   2.969  16.277 -0.5246 -0.0627  0.0026
13968W        W30229   7.251   6.796   2.985 -0.1676  0.1499 -0.2885
13969W        W30230   5.639   2.718   3.727  0.1745 -0.2292 -0.4258
13970W        W30231   9.422  10.068   5.069  0.2051  0.0144 -0.0235
13971W        W30232  14.419   5.038   1.774  0.0980  0.0092  0.2412
13972W        W30233   3.488   7.582  14.659  0.0272 -0.2236  0.2769
13973W        W30234  12.455   5.071   5.130  0.1811 -0.0680  0.2197
13974W        W30235   9.076  11.852  13.335  0.1922  0.0723 -0.0858
13975W        W30236   6.929   0.955  12.016 -0.3095 -0.0754 -0.1685
13976W        W30237   7.495   1.964   3.566  0.1294  0.0005  0.2020
13977W        W30238  16.876  16.172   2.091  0.0747  0.1751  0.2476
13978W        W30239   5.806   7.905   6.080  0.2517  0.1907 -0.0235
13979W        W30240   7.485  15.359  14.906 -0.1077  0.0592  0.2929
13980W        W30241  11.563  17.002  15.892  0.0836  0.1255  0.1522
13981W        W30242  14.025   4.804  11.820 -0.2744  0.0590 -0.0366
13982W        W30243  16.278   8.693  14.421  0.2088 -0.3740 -0.1402
13983W        W30244  13.347   8.556   4.204 -0.0840 -0.0189 -0.0246
13984W        W30245  10.244   2.479  16.966  0.0409  0.2783 -0.0188
13985W        W30246   8.304  10.569   2.531  0.1480 -0.2792  0.0604
13986W        W30247   0.955  15.956  12.085  0.1787 -0.5425 -0.0161
13987W        W30248   9.285   0.998   1.616 -0.2059  0.3059 -0.0289
13988W        W30249   0.499   2.344   5.895  0.3412 -0.0339  0.3092
13989W        W30250  15.140  12.083  13.419  0.1771  0.1020 -0.2236
13990W        W30251   3.785   4.098   5.330 -0.3896 -0.0197  0.0882
13991W        W30252   5.833  11.051   4.920  0.0656  0.2327  0.2461
13992W        W30253   2.861   5.238  15.342  0.1633 -0.1612 -0.2859
13993W        W30254   4.334   8.622  12.388  0.0395 -0.0644  0.0214
13994W        W30255   1.448  17.333  12.240 -0.1466 -0.2712  0.0275
13995W        W30256   6.074   8.576  16.223  0.3084  0.2452  0.0998
13996W        W30257  17.407   3.246   0.190 -0.1284 -0.1455  0.3061
13997W        W30258  10.746  11.909  16.379 -0.0395 -0.1033 -0.2571
13998W        W30259  10.499   5.882  14.848  0.2210 -0.1886 -0.0157
13999W        W30260  16.817   5.016  14.385 -0.1240  0.1865 -0.0800
14000W        W30261   9.091  12.145   1.904 -0.2513  0.1940  0.0853
14001W        W30262  17.045   6.250   3.913  0.3426 -0.2155  0.4354
14002W        W30263   2.035   8.374   4.303  0.1130  0.1184  0.1075
14003W        W30264  10.603  11.696   3.210 -0.0808 -0.1751  0.1318
14004W        W30265   9.817  10.251  11.134  0.0244 -0.1451  0.0637
14005W        W30266  15.899   0.101   6.015 -0.0982 -0.1301 -0.0244
14006W        W30267  15.464  10.840  14.741 -0.0616  0.1402 -0.0950
14007W        W30268  14.209  17.742   2.832  0.1385 -0.1796  0.1910
14008W        W30269  12.001   6.556   4.009 -0.2271  0.2283 -0.1884
14009W        W30270   8.613  16.742   2.054 -0.1779  0.0785  0.0258
14010W        W30271  15.914   1.423  14.234 -0.1407 -0.2068  0.2782
14011W        W30272   2.590   5.840  12.688 -0.0229  0.4211 -0.2453
14012W        W30273  11.692  11.880   2.735 -0.0478 -0.1705 -0.1109
14013W        W30274  13.907  15.472   4.653 -0.3322 -0.1351 -0.1111
14014W        W30275  12.413   0.024   5.363  0.1483 -0.1081  0.1046
14015W        W30276   1.599  11.733  14.827  0.2506  0.1655 -0.1733
14016W        W30277  16.962   7.927  12.788 -0.0023 -0.2355 -0.3041
14017W        W30278   0.372   0.090  12.116  0.1777 -0.0973  0.0423
14018W        W30279  10.810   6.959  11.554  0.0424  0.1355 -0.0024
14019W        W30280  11.252   5.812  13.448  0.0098 -0.0094  0.3808
14020W        W30281  14.116  15.362  16.466 -0.1718 -0.0858 -0.1401
14021W        W30282  11.802  17.263   4.402  0.3508 -0.1082  0.0330
14022W        W30283   1.984   4.863   2.854  0.0424  0.1196 -0.0223
14023W        W30284  13.857   7.736   3.741  0.5091  0.1072  0.0199
14024W        W30285   3.443   7.102   4.220  0.0810  0.1546  0.1593
14025W        W30286  17.167   2.473   0.169  0.0777 -0.0577 -0.0947
14026W        W30287  10.573   8.613  15.864 -0.0550  0.0397 -0.5326
14027W        W30288   6.240  14.133  14.071  0.0569  0.0744 -0.2101
14028W        W30289   5.385   6.987  10.655 -0.0914 -0.2922  0.0055
14029W        W30290  14.942   4.038   1.703 -0.6287 -0.2024 -0.0172
14030W        W30291   3.037   4.101   4.743 -0.0428  0.2329 -0.0950
14031W        W30292   7.192  10.047   2.248 -0.0320  0.1711  0.1629
14032W        W30293   2.939   9.041   6.455 -0.1191 -0.2004 -0.1174
14033W        W30294   0.666   3.541  13.848 -0.1044 -0.0786  0.2273
14034W        W30295  14.175  11.495  13.450  0.0858 -0.2591 -0.0668
14035W        W30296   3.106  15.848   1.662  0.1465 -0.1453  0.0599
14036W        W30297   2.699   3.788  14.310 -0.0701  0.1452 -0.2300
14037W        W30298   7.938   9.020  14.275 -0.3305  0.3047  0.1395
14038W        W30299   9.636   0.700  12.360  0.1191 -0.0606  0.0046
14039W        W30300   4.447  15.012  16.787 -0.3105 -0.2728 -0.2526
14040W        W30301   4.084  17.541   5.388  0.0022  0.0556 -0.2376
14041W        W30302   3.197  15.789   4.841  0.2397  0.2001 -0.1279
14042W        W30303   1.995  13.780  16.334  0.0809  0.1088  0.0484
14043W        W30304   9.829   6.762  15.492  0.0938  0.2197  0.2729
14044W        W30305  12.478  17.459   5.013 -0.0870  0.1666 -0.0378
14045W        W30306  17.816  12.454   1.395  0.0141  0.1748 -0.1036
14046W        W30307  16.470   2.802  14.063  0.1050 -0.0406 -0.0476
14047W        W30308  17.605  10.494   1.988  0.0346 -0.0293 -0.1258
14048W        W30309   5.168   8.997  12.289  0.0493  0.1421 -0.0895
14049W        W30310  17.633  13.730   2.465 -0.1127  0.0400 -0.0082
14050W        W30311  11.236   1.225  15.654 -0.1892  0.0264 -0.0107
14051W        W30312   9.586  14.828   4.272  0.0972 -0.1610 -0.0853
14052W        W30313  12.961   0.882  14.335  0.1827 -0.0372  0.2092
14053W        W30314  11.802  16.650  14.930  0.3864  0.1873  0.1730
14054W        W30315   7.728   2.093   2.928  0.0612  0.1279 -0.1042
14055W        W30316  14.172   4.770   1.134  0.0148 -0.1099 -0.2744
14056W        W30317   1.197  10.944  14.840 -0.0000 -0.0268 -0.3073
14057W        W30318   8.529  12.803  13.195  0.0860 -0.0448  0.3559
14058W        W30319   9.934   4.016   1.145  0.1183 -0.2206  0.0677
14059W        W30320   0.688   5.049  13.474  0.2821  0.1244  0.1553
14060W        W30321  13.310   0.321  16.713  0.0379 -0.0068  0.1323
14061W        W30322  10.718   8.673   5.511  0.1179 -0.1105  0.0953
14062W        W30323   5.949   5.326   1.232 -0.3834  0.0453 -0.0994
14063W        W30324   9.361   1.882  13.994  0.1455  0.0192  0.1258
14064W        W30325  14.432   2.764  16.234  0.3111  0.0990  0.1372
14065W        W30326   2.456   4.079   3.073 -0.1939 -0.0552 -0.0764
14066W        W30327   7.326  17.206   3.934 -0.0768 -0.0300 -0.0753
14067W        W30328   5.642   5.913   0.359  0.4373  0.1214  0.2904
14068W        W30329  11.409   4.712  16.760 -0.0295 -0.1581  0.2116
14069W        W30330  10.987  16.731  11.155  0.2952 -0.0818 -0.1297
14070W        W30331  13.497  12.899   3.038  0.1438 -0.2516 -0.0442
14071W        W30332  15.356  11.421   2.239 -0.1339  0.0088  0.2514
14072W        W30333  16.120  12.037   4.885  0.0656 -0.0731 -0.0985
14073W        W30334  15.240  13.628   5.120 -0.4283  0.2700 -0.1125
14074W        W30335   6.841  15.643  14.546  0.0851  0.1244 -0.1021
14075W        W30336  16.248  11.821   1.501 -0.1151  0.0171  0.1035
14076W        W30337   8.131  10.088   4.457  0.0400 -0.1709  0.0228
14077W        W30338   1.721   8.590  16.209 -0.2464 -0.1073 -0.1026
14078W        W30339  16.245   9.220  13.888 -0.1150 -0.2730  0.1414
14079W        W30340   0.343   0.130  14.233  0.4080 -0.2312 -0.0760
14080W        W30341   5.329  16.782  11.680 -0.2485 -0.0694 -0.4225
14081W        W30342   2.561   3.640   5.989  0.0449 -0.0345 -0.1468
14082W        W30343  16.720   8.314   4.442  0.3050  0.1328 -0.4128
14083W        W30344   4.775  16.845   0.776  0.0950 -0.0667  0.1596
14084W        W30345   6.780  10.431  13.853  0.1993  0.0369  0.0568
14085W        W30346  12.529  13.841  15.510  0.2259 -0.3314  0.2788
14086W        W30347   0.238  17.214  13.404 -0.0972  0.2055 -0.3610
14087W        W30348   6.217  14.524   1.518  0.0138 -0.0575  0.0841
14088W        W30349  12.417  17.770   5.825  0.2406  0.1274 -0.0736
14089W        W30350  16.497  15.442  13.564 -0.1075 -0.0542  0.2288
14090W        W30351  15.707  14.672  12.516 -0.2567 -0.0227 -0.1273
14091W        W30352   0.726  11.461  14.931 -0.1742  0.0960  0.1085
14092W        W30353   1.431   6.026   0.034  0.0737 -0.3057  0.1452
14093W        W30354  11.257   2.006   3.320  0.1391  0.0353 -0.0746
14094W        W30355  12.534   5.529  13.467  0.1316  0.0479  0.0081
14095W        W30356  16.801   5.755  12.527  0.0373 -0.1702  0.0386
14096W        W30357   2.359  11.412   2.001  0.1809  0.1631  0.2292
14097W        W30358   3.368   5.342  16.545 -0.0522  0.1074  0.0102
14098W        W30359   1.936   0.059  13.585  0.0894  0.1467  0.3891
14099W        W30360   9.016   6.713  12.622  0.5253  0.3770  0.0808
14100W        W30361  14.351  17.583   0.895  0.0619  0.2161 -0.2796
14101W        W30362  13.123   1.820   2.456  0.0207 -0.0634  0.0377
14102W        W30363   6.157   2.345   2.094  0.2878 -0.1169 -0.2801
14103W        W30364   0.955   2.784  15.804 -0.0913  0.0831 -0.1293
14104W        W30365   8.551  11.860  16.696 -0.0779  0.1162 -0.2017
14105W        W30366   8.340   7.117  16.334  0.1875 -0.0459 -0.1075
14106W        W30367   5.388  17.466  16.585  0.1702  0.2702 -0.1994
14107W        W30368   8.039   6.213  13.471 -0.3071  0.2869 -0.5339
14108W        W30369   8.136   9.774  11.966 -0.5426  0.3138 -0.0611
14109W        W30370   1.565  17.182  16.738 -0.0524  0.0240  0.2181
14110W        W30371  17.108   8.904  12.968 -0.1070  0.1767  0.4076
14111W        W30372  11.325  17.344   2.729 -0.2112 -0.0650  0.1800
14112W        W30373   0.128  17.324  11.409  0.1047 -0.1311  0.1321
14113W        W30374   8.575   7.648  10.137  0.1254 -0.1485 -0.1752
14114W        W30375  13.140   5.732  13.590  0.1263 -0.3924  0.1503
14115W        W30376  16.202  10.945   2.064 -0.2255  0.1940 -0.1824
14116W        W30377   3.234  17.368   3.958  0.2361 -0.0632  0.1737
14117W        W30378  15.337  13.750   0.096  0.3559  0.0025  0.0752
14118W        W30379   4.091   5.541   4.052  0.2827 -0.0440 -0.2809
14119W        W30380  15.254  14.877   4.434  0.3089  0.2140 -0.2167
14120W        W30381   8.363  16.054  14.138 -0.0565  0.1190 -0.3499
14121W        W30382  12.538  12.043  15.474 -0.2764  0.1463 -0.0358
14122W        W30383  12.700   5.457   1.259 -0.0336 -0.0716 -0.0956
14123W        W30384  14.089   3.299   4.324 -0.0091  0.3013  0.2854
14124W        W30385   7.839  11.595   4.451 -0.1381 -0.0230  0.2777
14125W        W30386   8.888  16.731   3.017  0.0072  0.3026 -0.0697
14126W        W30387  11.642  13.846  16.020  0.2340 -0.0531 -0.0096
14127W        W30388  11.061  12.434   2.741  0.4305 -0.1665 -0.1533
14128W        W30389   3.607   7.550  11.757  0.3601  0.0545 -0.0585
14129W        W30390   8.524   2.066   0.500 -0.0942 -0.2225  0.3164
14130W        W30391  14.201   9.872   1.359 -0.2659 -0.1066  0.1360
14131W        W30392   1.080  10.465   2.376 -0.0322  0.1409  0.2505
14132W        W30393   0.628   9.646  14.903  0.3257 -0.0587  0.4043
14133W        W30394  11.359  12.295   3.259  0.3777  0.1035 -0.0875
14134W        W30395   0.181  11.103  12.605  0.0193  0.0738  0.0411
14135W        W30396   6.076   5.116   3.845 -0.0958  0.4272 -0.0740
14136W        W30397   4.587  17.209  16.315  0.1375  0.0156 -0.0559
14137W        W30398   1.832  15.986  15.871 -0.0778  0.1052  0.2033
14138W        W30399  13.514  12.926  14.867 -0.0287  0.2073 -0.1890
14139W        W30400   0.619   4.499  11.951  0.0452  0.1067  0.1268
14140W        W30401   8.428  10.775  13.421  0.2137 -0.1198  0.1145
14141W        W30402   6.657   7.920  14.186 -0.0545  0.0866 -0.1111
14142W        W30403  13.303   6.311  12.827  0.0449  0.2210  0.1350
14143W        W30404   7.269  12.686   1.447  0.2273  0.0668  0.4803
14144W        W30405  16.608  11.209  14.843 -0.1687 -0.1771 -0.1442
14145W        W30406   3.309   6.739   2.439  0.1808  0.0284  0.1789
14146W        W30407   9.891   9.719   3.823 -0.1210  0.1522  0.1785
14147W        W30408   4.727  16.091  13.359 -0.0680  0.0006 -0.3826
14148W        W30409  13.630  12.573   2.585 -0.0930 -0.2802 -0.0353
14149W        W30410   0.225   7.566  16.226 -0.0686  0.0583  0.0333
14150W        W30411  15.576  10.271  16.312 -0.0178 -0.0871  0.0923
14151W        W30412   9.996   9.280   1.312  0.1020 -0.0566 -0.2361
14152W        W30413   9.747   3.967   3.753 -0.0907 -0.0831  0.0831
14153W        W30414  15.449   6.356  16.474 -0.0034 -0.0754  0.0455
14154W        W30415   9.602  16.799   1.488 -0.0181 -0.0647  0.1406
14155W        W30416   0.571  12.211   2.829  0.0568  0.0572 -0.4424
14156W        W30417   5.354  10.301   2.964  0.1953 -0.2554  0.0456
14157W        W30418  17.613  10.966   4.646 -0.1243 -0.1740 -0.0410
14158W        W30419   3.241   5.792   6.590  0.1221 -0.1077 -0.2873
14159W        W30420  13.487  16.409   2.523 -0.3188  0.3483 -0.1278
14160W        W30421   2.419  11.218   4.391 -0.0084 -0.3510  0.0424
14161W        W30422   2.539  16.787  16.823  0.0539 -0.0051  0.2211
14162W        W30423  12.072  15.973   0.538  0.0759 -0.0416  0.1593
14163W        W30424   1.074  11.202  12.263  0.0575  0.2773 -0.0887
14164W        W30425  12.086   0.596  11.596 -0.1998 -0.0104  0.1125
14165W        W30426   3.715  10.645   3.755 -0.1333  0.3888  0.0504
14166W        W30427   3.752   2.481  14.132 -0.0572 -0.0342 -0.1473
14167W        W30428   3.664  13.243   3.804  0.2173 -0.2534 -0.5647
14168W        W30429  14.005  16.528  11.942  0.2986 -0.1434 -0.2827
14169W        W30430   0.130   3.915  12.657 -0.0165 -0.1629 -0.0236
14170W        W30431   1.188   4.460   0.435 -0.1506  0.2378 -0.3018
14171W        W30432   8.498   6.244   1.331  0.1170  0.1127  0.0590
14172W        W30433  15.430  14.562  11.441 -0.1576 -0.0236  0.0404
14173W        W30434   3.937   0.665  12.179  0.0503  0.0344 -0.0159
14174W        W30435   5.808   4.758  16.047  0.2529  0.1279  0.0438
14175W        W30436   0.500   2.145   1.227  0.0755  0.0839  0.5472
14176W        W30437   9.239   5.480  15.436 -0.0955  0.1697 -0.2067
14177W        W30438  11.073   6.514   3.322  0.0365  0.0346 -0.1860
14178W        W30439  14.315   0.539  16.623  0.2226 -0.1673 -0.1144
14179W        W30440   6.748   5.288   3.579 -0.0591  0.3344 -0.0548
14180W        W30441   1.848   7.310  11.970 -0.1505  0.3144  0.1043
14181W        W30442  15.520   5.923  16.168 -0.1633  0.1512  0.0439
14182W        W30443   4.154  10.293   0.015 -0.0623  0.1589 -0.1368
14183W        W30444  11.655   6.580  14.490  0.0656 -0.0260 -0.1370
14184W        W30445   4.235   2.278  14.175 -0.0018  0.2244 -0.1940
14185W        W30446  14.827   8.734   1.967  0.1010 -0.0453  0.4390
14186W        W30447  17.432  12.872   1.404 -0.1546 -0.0596 -0.0928
14187W        W30448  14.032   2.668  14.722  0.2624  0.0854  0.2531
14188W        W30449  12.522   8.889  12.805 -0.1386  0.0241  0.1255
14189W        W30450  15.918   5.928   5.113 -0.1550  0.1529 -0.1521
14190W        W30451   4.892  16.785   5.599  0.2923 -0.2312 -0.0762
14191W        W30452  13.919   2.163  15.922 -0.3043  0.3099 -0.1299
14192W        W30453   7.592  11.445  15.780  0.1666  0.2529 -0.3463
14193W        W30454   6.786   6.600   1.253  0.1208 -0.0317  0.1126
14194W        W30455  17.117  11.709  11.534  0.0704  0.1056 -0.0582
14195W        W30456   3.218   6.799   3.473 -0.3224  0.0065  0.0199
14196W        W30457   1.337   7.206  15.362  0.0109  0.4151 -0.0630
14197W        W30458  16.306   1.061   0.637  0.1998  0.0827  0.1550
14198W        W30459   7.467   6.998  12.422 -0.0356 -0.1613  0.0665
14199W        W30460  12.552   8.101  16.746 -0.0306  0.0678 -0.0493
14200W        W30461  14.533   1.586   4.896  0.1125  0.0214  0.1501
14201W        W30462  14.787   7.563  13.721 -0.2714 -0.1378  0.1063
14202W        W30463  12.585   8.496   4.419 -0.0232  0.3199 -0.0606
14203W        W30464   1.387  16.934   2.784  0.2175  0.0970 -0.2190
14204W        W30465   9.773  15.762  12.745  0.1281  0.1315  0.1046
14205W        W30466   7.492   7.044   0.619 -0.0363 -0.0305 -0.0225
14206W        W30467   3.785   4.756   3.752  0.1813  0.0097  0.1483
14207W        W30468  12.036  10.215  15.727  0.0001  0.1422 -0.1067
14208W        W30469   0.429   0.393   2.992 -0.2467  0.0113  0.0677
14209W        W30470   2.589  12.924   3.347  0.1055 -0.2183  0.3142
14210W        W30471   2.604  16.572   2.591  0.0515  0.1719 -0.1697
14211W        W30472  11.688  14.562  12.611  0.0029 -0.1153 -0.1828
14212W        W30473  16.256  17.412  16.030 -0.0774  0.0396  0.0339
14213W        W30474   7.626  13.752  16.536 -0.0229 -0.2546  0.0404
14214W        W30475  12.487   3.222   0.076  0.3463 -0.2519  0.1319
14215W        W30476   8.604   7.678   6.019 -0.0091 -0.1336  0.0363
14216W        W30477   3.300   1.375   0.094  0.1391  0.4976  0.1368
14217W        W30478   7.583  17.365  12.619  0.0111  0.0967  0.2908
14218W        W30479  13.959  14.878  12.155  0.0924 -0.0789  0.1606
14219W        W30480  11.374  12.432  12.564  0.4141 -0.2628 -0.0468
14220W        W30481  15.381   0.364   5.270  0.0478  0.0811  0.4264
14221W        W30482   8.972  10.160   3.187 -0.2041 -0.3645  0.1113
14222W        W30483  13.692   4.561  15.178  0.0314  0.0643 -0.0633
14223W        W30484  11.519   4.554  14.168  0.2029 -0.0861  0.1324
14224W        W30485  13.729   9.197  11.815 -0.0976 -0.1573  0.0734
14225W        W30486  14.538   5.082   0.883 -0.2123 -0.1417  0.1923
14226W        W30487   9.795   9.044  16.357  0.0504 -0.0766 -0.1621
14227W        W30488  13.640   5.809  16.515 -0.0578 -0.5131  0.0709
14228W        W30489   9.858   7.693  12.772 -0.0359  0.1427  0.0802
14229W        W30490  12.998  17.378  12.096  0.4582  0.2118  0.1675
14230W        W30491  12.086   1.217  16.041  0.2299  0.0993 -0.0162
14231W        W30492   2.169   8.711   1.583  0.0508  0.1881  0.0238
14232W        W30493   5.879   1.014  14.681 -0.1684  0.0115 -0.0995
14233W        W30494  17.277  14.116   4.955 -0.1224  0.1636  0.0001
14234W        W30495   9.951   4.427   4.822 -0.0712  0.0008  0.0214
14235W        W30496  12.456  12.856   4.373 -0.0063 -0.0716 -0.1665
14236W        W30497   4.433   4.185   1.290 -0.0670 -0.1471  0.0942
14237W        W30498  10.478   2.727  12.736  0.1311  0.2334 -0.0589
14238W        W30499   5.246   8.862   5.054  0.0451 -0.1082  0.1956
14239W        W30500  16.906  13.245   3.006  0.0274 -0.2360 -0.1335
14240W        W30501  13.025  11.061   0.022 -0.1572  0.3850  0.2329
14241W        W30502   1.204  15.946   4.116 -0.0776 -0.0298  0.0209
14242W        W30503  15.790   0.417   0.179  0.2544  0.1402 -0.2221
14243W        W30504   0.772   0.060   2.931 -0.1301 -0.2536 -0.0859
14244W        W30505  10.229   2.907  13.674 -0.2529 -0.0543 -0.0466
14245W        W30506  10.940  15.179   0.816  0.2301  0.1994  0.0800
14246W        W30507  14.429  13.326   0.172  0.3208 -0.0187 -0.0427
14247W        W30508   5.637   5.765  13.322 -0.1109 -0.0648 -0.2883
14248W        W30509  12.212   2.940  13.654 -0.1706 -0.0267  0.1752
14249W        W30510   1.207   4.889  12.399 -0.1547 -0.0306  0.0451
14250W        W30511  11.320   6.912   2.994  0.2764 -0.4271  0.0375
14251W        W30512  12.363   5.098  13.708  0.0417  0.1633 -0.0244
14252W        W30513  11.867   3.001   1.043  0.1244  0.3217 -0.2205
14253W        W30514   8.630   4.432   4.124  0.3061 -0.0013 -0.1377
14254W        W30515  11.039   1.319   0.407  0.0637  0.0269  0.2986
14255W        W30516  12.288  10.470   5.688  0.0297 -0.1850  0.1878
14256W        W30517  13.277   8.154   1.697  0.0805  0.2837 -0.1471
14257W        W30518  13.178   6.656  13.851 -0.2162  0.4736 -0.0200
14258W        W30519   5.530  11.673  12.958 -0.2618  0.2585  0.0990
14259W        W30520  14.936  13.059   0.334  0.1383  0.0343 -0.1755
14260W        W30521  13.384   2.186  15.131 -0.3545  0.1543 -0.0610
14261W        W30522  16.247   8.318   0.978 -0.3811  0.0307  0.2903
14262W        W30523   8.970   6.487   5.318 -0.1057  0.3577 -0.0090
14263W        W30524  17.318   0.920  13.567 -0.0351  0.1692 -0.0494
14264W        W30525   9.986   9.398  14.651 -0.3494 -0.6263 -0.0251
14265W        W30526   2.434   5.026   3.034 -0.0695 -0.0363 -0.0249
14266W        W30527  15.025  11.610  13.378 -0.0088 -0.3936 -0.1820
14267W        W30528   6.916  11.385  12.616 -0.1046  0.0724 -0.0135
14268W        W30529   3.920   4.432  12.517 -0.1917 -0.5208 -0.0985
14269W        W30530   2.527   8.112  16.582  0.0150 -0.1382 -0.1605
14270W        W30531  10.126   8.206  16.525  0.0389 -0.1599  0.1784
14271W        W30532   5.136  15.488  14.274 -0.0263  0.1342 -0.1240
14272W        W30533  13.649  14.232   2.330 -0.0958  0.2296  0.0619
14273W        W30534   9.319   3.604  15.224  0.3088 -0.3560  0.1415
14274W        W30535  11.167   1.656  14.823  0.3544 -0.1509  0.3173
14275W        W30536   0.371  14.067   0.416  0.3212 -0.2121 -0.1425
14276W        W30537  10.495   1.093  13.991 -0.0441  0.0199 -0.3163
14277W        W30538   2.765   2.828  14.555 -0.0920 -0.1830 -0.0291
14278W        W30539  17.382   9.326  15.755 -0.0959  0.0747  0.0453
14279W        W30540   0.960  17.023   1.367  0.1441  0.1909 -0.2150
14280W        W30541  14.833  12.940   2.138 -0.0390 -0.2664 -0.0811
14281W        W30542   0.701   2.159  12.146  0.1533 -0.2848  0.0534
14282W        W30543  13.808   8.290   1.707 -0.3669 -0.2142  0.1329
14283W        W30544  10.870   6.011   4.187  0.1637  0.1801 -0.1296
14284W        W30545   9.336   0.836  15.199 -0.1878  0.3159 -0.2251
14285W        W30546  14.521   4.855  13.804  0.0640 -0.3450  0.1353
14286W        W30547   3.566  13.125  14.621  0.1023 -0.0543  0.1427
14287W        W30548   0.090   2.039  16.080 -0.3011  0.1928 -0.0563
14288W        W30549  16.079   2.091   1.631  0.0645  0.1938 -0.4263
14289W        W30550   1.386  17.458   0.709  0.2045 -0.0608 -0.2281
14290W        W30551   6.492  10.138   6.048  0.0050 -0.3713 -0.2097
14291W        W30552   2.481  12.943   3.856 -0.1444 -0.1697  0.0185
14292W        W30553  17.357  12.923  15.403 -0.2532  0.0606 -0.2480
14293W        W30554   8.925   2.770  16.228  0.0500 -0.0316 -0.2889
14294W        W30555   7.815  14.082  16.216 -0.1680 -0.0641 -0.2335
14295W        W30556   7.829   4.805  15.663 -0.3102  0.2358 -0.0219
14296W        W30557  15.502  14.609   1.965 -0.1355  0.0052 -0.2225
14297W        W30558  12.975  17.260   0.052  0.0986 -0.0568  0.0874
14298W        W30559  10.467  15.203   1.723  0.1339 -0.1001 -0.0120
14299W        W30560  16.198   5.229   4.231 -0.0137  0.4223  0.0475
14300W        W30561   8.899  14.512   0.919 -0.1019  0.2923 -0.2261
14301W        W30562  15.791   9.699   3.642  0.2854  0.2820 -0.0015
14302W        W30563   3.919  17.134  15.363 -0.2043 -0.2439  0.0398
14303W        W30564   4.109   5.090  16.512  0.1487 -0.1509  0.0944
14304W        W30565   2.819   8.802   2.470 -0.3048 -0.3415 -0.1158
14305W        W30566  16.321  13.158   2.810  0.1009  0.1365  0.1795
14306W        W30567   0.136  17.795   4.439 -0.2889  0.3605  0.2605
14307W        W30568   5.528  12.641  12.413 -0.1107  0.2370  0.1229
14308W        W30569  12.583  16.793  13.722 -0.2404  0.0559 -0.3703
14309W        W30570   1.940  10.473  12.207 -0.1956  0.2696  0.2439
14310W        W30571   9.853   4.927   2.488  0.1096 -0.0949  0.0593
14311W        W30572   0.594   6.521   1.463 -0.2841 -0.0155  0.1821
14312W        W30573  11.871   6.302  12.420 -0.3671 -0.0914 -0.2456
14313W        W30574   7.495   3.229   2.570 -0.0904 -0.1692  0.0488
14314W        W30575  17.339  13.827   1.486  0.2491  0.1347  0.0223
14315W        W30576   1.961  10.497   3.333  0.2222  0.2572 -0.0305
14316W        W30577   3.528   2.542  12.804  0.0581  0.2274  0.0953
14317W        W30578  10.231   2.587   4.069 -0.0841  0.0339 -0.0912
14318W        W30579   3.722   4.252   0.868  0.1609 -0.1672  0.4373
14319W        W30580  15.204   8.290   5.338 -0.0680  0.1844 -0.3396
14320W        W30581   2.074   1.860   3.880  0.1511  0.0623 -0.2499
14321W        W30582  10.748   0.968   0.633  0.0184  0.2972 -0.1808
14322W        W30583   9.576  13.357  16.898  0.1458  0.1778  0.0225
14323W        W30584   4.575   8.535  16.530 -0.0259  0.2419  0.1943
14324W        W30585  15.493   4.720  14.562 -0.1856 -0.3859  0.3320
14325W        W30586   0.635  11.175   1.948 -0.1385 -0.1329 -0.1251
14326W        W30587   4.207   9.227  16.132 -0.1729  0.1059  0.2061
14327W        W30588  17.442   4.904  12.596  0.1948  0.2569 -0.0136
14328W        W30589   0.857   5.487   3.002  0.1488 -0.3835 -0.0707
14329W        W30590  14.971  16.711   1.219 -0.2394 -0.0768  0.2686
14330W        W30591   0.738  17.029  16.952  0.1523 -0.2914  0.3734
14331W        W30592   4.648   4.952   3.518  0.0582  0.0068 -0.1542
14332W        W30593   5.117   1.131   4.344  0.2081 -0.1833  0.0526
14333W        W30594   5.636  13.456   3.140 -0.3980 -0.3484  0.2873
14334W        W30595   9.381   9.818   4.547 -0.2814 -0.0697  0.0326
14335W        W30596   6.390   0.034  15.197  0.0288  0.2488 -0.0387
14336W        W30597  16.298  11.344  14.520  0.2265 -0.0644  0.0831
14337W        W30598  17.320   2.958   6.197 -0.1481  0.2514  0.1735
14338W        W30599   1.168   9.402  16.119  0.2206  0.1599 -0.1736
14339W        W30600  13.535  17.057  13.515  0.0189 -0.0764 -0.2505
14340W        W30601   6.644   3.437   5.869  0.1862 -0.1684 -0.0615
14341W        W30602  12.451   8.004   0.257  0.0321  0.3266  0.2395
14342W        W30603   9.310   3.667   3.109 -0.2795 -0.0851  0.2333
14343W        W30604   3.562   4.453   4.119 -0.0586 -0.3074 -0.1358
14344W        W30605  14.365  17.227  14.491  0.1067 -0.3543  0.0839
14345W        W30606  13.643   0.800  13.570 -0.0880 -0.1129 -0.1157
14346W        W30607  14.080  16.024  15.905 -0.1334 -0.1841 -0.2153
14347W        W30608   4.600  16.222  15.622  0.1265  0.0416  0.1877
14348W        W30609   0.815   4.587  16.116 -0.1139  0.0835  0.0632
14349W        W30610   6.856   8.468   1.215  0.1925  0.0902  0.0537
14350W        W30611   2.108  13.345   1.983 -0.0460 -0.2847  0.1144
14351W        W30612   0.282  17.588   0.387 -0.1112 -0.1805  0.1301
14352W        W30613  10.609   0.501  16.657 -0.0541 -0.1279 -0.2152
14353W        W30614  17.658  14.604   2.373  0.0693  0.2150 -0.3671
14354W        W30615   2.473   3.281   1.683 -0.3614 -0.1888 -0.0455
14355W        W30616   4.598  15.004  14.922 -0.1909 -0.2936  0.1880
14356W        W30617   4.664   9.793   4.385 -0.0118 -0.1662  0.2705
14357W        W30618  13.047  14.802   1.342 -0.0098  0.1092 -0.0517
14358W        W30619   8.708   8.002  12.460  0.1604  0.0876  0.2928
14359W        W30620  15.402   8.452  15.950  0.0355 -0.1540 -0.2142
14360W        W30621  16.068  10.582   1.686 -0.2130 -0.3709 -0.1468
14361W        W30622  15.903  12.140  13.863  0.0756  0.0337 -0.2420
14362W        W30623   2.472  10.679   2.309  0.2921 -0.2403 -0.1616
14363W        W30624  13.478   1.436  14.566  0.0273 -0.0511  0.1392
14364W        W30625  13.376   9.095  15.314  0.1241  0.2077  0.0652
14365W        W30626  12.334   6.935  16.196  0.0904  0.0762 -0.1616
14366W        W30627  14.416  11.232   2.214  0.3834 -0.2424 -0.0685
14367W        W30628   9.039   0.594  13.434  0.4250 -0.0618 -0.0762
14368W        W30629  14.065  11.950  10.913 -0.0321 -0.1121 -0.2389
14369W        W30630  10.824  16.724  14.968  0.3279  0.1470  0.0767
14370W        W30631  12.523  14.534   2.980 -0.1857 -0.0460  0.0555
14371W        W30632   9.437  13.892   4.795  0.1499  0.1597  0.2457
14372W        W30633   7.620   5.311  16.274 -0.1427  0.2691  0.0752
14373W        W30634  15.530   1.459   1.720 -0.1946  0.0145  0.1171
14374W        W30635   5.661   8.616  16.526  0.2596  0.1067  0.4170
14375W        W30636   7.852   4.908   3.469 -0.3142  0.1284 -0.1723
14376W        W30637  16.993   0.848  13.998  0.0428 -0.1793 -0.0930
14377W        W30638   8.711   8.794  14.825  0.0643  0.2110  0.0565
14378W        W30639   4.256   0.135  16.873  0.0733  0.0303  0.0074
14379W        W30640   3.683  15.558  14.514 -0.1272  0.0766 -0.2301
14380W        W30641   2.251   6.189   5.916  0.0048  0.0020  0.0381
14381W        W30642   8.220  14.186  12.856  0.0766  0.1606  0.1654
14382W        W30643  11.948   0.789  15.789  0.0792  0.1462 -0.1350
14383W        W30644  10.192  12.652   5.325  0.1128 -0.1852  0.2686
14384W        W30645  11.892  13.222  13.648  0.4460 -0.1510 -0.2831
14385W        W30646   6.416   1.817  12.216 -0.0313  0.0618 -0.0936
14386W        W30647  17.000   9.605   0.557 -0.3046  0.1139 -0.0476
14387W        W30648  11.678   2.434  16.579  0.2158 -0.1857 -0.0419
14388W        W30649  13.182   1.729   0.315  0.0500  0.0711  0.1996
14389W        W30650   9.043  14.282   0.106 -0.2959  0.0245 -0.1430
14390W        W30651   9.921   1.824   0.631  0.1586 -0.1969 -0.1399
14391W        W30652   2.696   5.963  14.942 -0.0650 -0.0253  0.0988
14392W        W30653   6.681   5.484  14.371  0.1574  0.1208  0.2480
14393W        W30654   3.469   5.789   3.312  0.1121 -0.1634 -0.1560
14394W        W30655  14.628   6.195  13.071  0.0439 -0.3163 -0.0870
14395W        W30656   9.057   7.421  13.883  0.0406 -0.4098  0.0548
14396W        W30657   2.543  17.456  14.202  0.0786  0.3538  0.1139
14397W        W30658   1.610  10.356   1.246 -0.0238 -0.2526  0.1027
14398W        W30659  11.061   2.286  16.556 -0.1101 -0.1184  0.2020
14399W        W30660   9.061   8.036  16.711 -0.0859 -0.0241  0.0803
14400W        W30661   2.542   6.810   4.051  0.1480 -0.0203  0.0783
14401W        W30662  16.783   0.139  13.394  0.0878 -0.1491 -0.0329
14402W        W30663   0.359   4.483  16.049  0.0919 -0.2287 -0.4814
14403W        W30664   1.594   5.261   2.628 -0.1027 -0.0433  0.0671
14404W        W30665   1.622   8.556   5.043 -0.0596  0.0883 -0.0333
14405W        W30666   3.995   2.411  14.704  0.0544  0.0532  0.0351
14406W        W30667   9.348  14.080   1.079  0.2942 -0.1731 -0.1407
14407W        W30668  15.785   1.087   0.649  0.2414  0.2511  0.2929
14408W        W30669   4.353  13.912   1.184  0.1659 -0.3071 -0.1145
14409W        W30670   0.485  16.156  14.690  0.0380  0.0481 -0.2797
14410W        W30671  15.361  13.810   4.416 -0.1643 -0.2129 -0.1967
14411W        W30672   9.491  12.626   0.653 -0.0330  0.0247 -0.0481
14412W        W30673   7.914   7.173  11.666  0.0035  0.0278 -0.0159
14413W        W30674  10.446  10.568   4.123  0.1599  0.0290  0.0113
14414W        W30675  12.193   0.256   4.002 -0.1773  0.1264  0.1443
14415W        W30676   5.362   0.597   4.386  0.0975  0.0395 -0.0043
14416W        W30677   8.638   2.158   3.705 -0.3168 -0.1353 -0.2084
14417W        W30678   0.540   8.555   4.450  0.2768 -0.1475  0.2915
14418W        W30679  15.825   0.547  13.715  0.3031 -0.0556 -0.1526
14419W        W30680   5.749   1.152  11.912  0.2898  0.1375  0.1425
14420W        W30681  14.637   4.932   0.351  0.1909  0.0169 -0.0334
14421W        W30682   7.340  14.126  12.510  0.1133  0.1546  0.0231
14422W        W30683  17.537   7.504   2.553 -0.1211 -0.1999 -0.1322
14423W        W30684   1.537  14.283   4.145 -0.2859 -0.0712  0.1775
14424W        W30685  10.484  17.705  14.558 -0.1234  0.1372 -0.3163
14425W        W30686   2.362   6.816   1.138  0.1652  0.0599 -0.0824
14426W        W30687  16.370   1.647  14.354 -0.4563 -0.1253 -0.1632
14427W        W30688   1.490   2.251   3.346 -0.1644 -0.0464 -0.0528
14428W        W30689  17.850   4.071   3.242 -0.1136 -0.0680  0.0225
14429W        W30690   5.521  16.766  16.293 -0.0528 -0.0323  0.0690
14430W        W30691  12.430  15.215  14.744  0.0416  0.0013 -0.0700
14431W        W30692   6.949  14.931  11.866 -0.2641 -0.1395 -0.1030
14432W        W30693  13.730   2.208   5.119  0.0696 -0.0687  0.0458
14433W        W30694  15.323   3.873   2.089 -0.2616  0.0321 -0.1395
14434W        W30695  10.567   5.582  11.546 -0.0931 -0.0393  0.0570
14435W        W30696   0.106  12.161  14.079 -0.1935  0.0286  0.0576
14436W        W30697   2.221   2.074   0.061 -0.0841 -0.2265  0.1733
14437W        W30698  11.726   0.325   3.737 -0.2030 -0.1048 -0.2647
14438W        W30699   4.575   1.366  14.382 -0.0592 -0.5082 -0.2523
14439W        W30700   0.741   6.584   4.660  0.2634 -0.0315  0.0238
14440W        W30701   3.236  17.018   4.484 -0.1864  0.0503 -0.1734
14441W        W30702  17.214   7.882   2.568 -0.0122 -0.1469 -0.0403
14442W        W30703  13.788  11.130  15.107  0.1078  0.0632  0.2352
14443W        W30704   3.567   9.746   1.225 -0.1786 -0.0651 -0.1566
14444W        W30705   5.706   2.106  13.844  0.0048  0.2079  0.2735
14445W        W30706   7.469  10.776  11.627  0.1102  0.0703  0.0201
14446W        W30707  14.940  15.434   0.177 -0.3381  0.0299 -0.0260
14447W        W30708  15.204  14.912   5.502 -0.2644 -0.2367  0.1114
14448W        W30709   6.143   9.536  13.978 -0.2105  0.0231  0.1624
14449W        W30710   9.250   7.016   3.633 -0.2743 -0.0451 -0.2680
14450W        W30711   2.953   0.940   2.219  0.2031 -0.1863 -0.2285
14451W        W30712   9.465   5.004   0.357 -0.1168  0.0292 -0.0411
14452W        W30713  16.184  17.257  14.790  0.1615  0.0613 -0.0662
14453W        W30714   2.496   8.705   5.660  0.1802  0.0558  0.1029
14454W        W30715   1.247   9.065  13.426  0.1018 -0.2125  0.0263
14455W        W30716   9.728  12.433  14.175 -0.0051 -0.0428 -0.0709
14456W        W30717  17.271  11.083  11.970  0.0038  0.1027 -0.0901
14457W        W30718   2.006  17.172  14.424  0.1370 -0.2460 -0.0255
14458W        W30719   7.667   0.777  11.903  0.0232 -0.0497 -0.1760
14459W        W30720   6.419  15.022   2.852 -0.0274 -0.0875  0.0373
14460W        W30721  17.675  14.262  14.185  0.4996 -0.1488 -0.1738
14461W        W30722  14.838  13.424  15.215 -0.2508 -0.2663 -0.0023
14462W        W30723   0.179  11.702  14.265 -0.2794 -0.0129 -0.2276
14463W        W30724   0.193   5.644  14.645  0.0188  0.3372 -0.2626
14464W        W30725   0.827   2.797  11.635 -0.0545  0.1561  0.0269
14465W        W30726   3.400   6.227   2.017 -0.0089  0.1001  0.0143
14466W        W30727  10.148  13.245  16.635  0.2379 -0.0818  0.0675
14467W        W30728   9.594  15.587  13.212  0.1279  0.1668 -0.0591
14468W        W30729  11.696  17.550  11.811  0.0922  0.0031 -0.1989
14469W        W30730   9.160   0.901  12.487 -0.3126  0.0346 -0.0234
14470W        W30731   8.463  14.867  15.597 -0.0728 -0.1015 -0.1171
14471W        W30732  10.326  11.002   2.119 -0.0441 -0.3240  0.1067
14472W        W30733   5.453   7.588   5.282 -0.1546 -0.0089 -0.1160
14473W        W30734  13.042  16.286   3.524  0.0069 -0.0032  0.0303
14474W        W30735  10.909   7.671   5.045 -0.0457  0.1112 -0.0324
14475W        W30736   9.403  11.622  11.528  0.0054 -0.0105  0.2056
14476W        W30737  10.919   0.908  14.750  0.2638 -0.0488  0.0470
14477W        W30738   3.185   3.671  14.257  0.1125  0.0590 -0.1070
14478W        W30739  11.301  14.668   2.840  0.2107 -0.1734 -0.1152
14479W        W30740   2.150   2.461  12.795 -0.2571  0.2970  0.1047
14480W        W30741   7.752  15.589  13.044 -0.0472 -0.1943 -0.1198
14481W        W30742  11.489   1.015   3.042  0.1879  0.0474 -0.0942
14482W        W30743   1.958   4.812  15.522 -0.4631 -0.0753 -0.1995
14483W        W30744  13.114  11.822   1.182  0.1176 -0.0274 -0.0024
14484W        W30745  12.822   0.631   0.322  0.0595  0.0049 -0.1306
14485W        W30746   7.426  10.117   0.246 -0.0429  0.2562  0.1857
14486W        W30747   3.739  12.660   4.675  0.1704 -0.0018  0.0838
14487W        W30748   9.847  16.792  14.480 -0.1881  0.2879 -0.2957
14488W        W30749  10.721   3.001   2.242  0.1069 -0.0373  0.0402
14489W        W30750  13.549  12.255   4.890  0.0636  0.0860  0.3596
14490W        W30751   2.601   2.145   4.777  0.4948  0.0827  0.0219
14491W        W30752   7.216   4.106   5.509 -0.0984  0.0060 -0.0817
14492W        W30753   0.607   0.698  15.138 -0.1541 -0.2049  0.0007
14493W        W30754   5.473   5.441  14.271 -0.0838  0.2460 -0.1366
14494W        W30755  16.121  15.728  14.023  0.3466  0.1615 -0.0892
14495W        W30756  16.896   3.085   2.616 -0.1863 -0.0635  0.0223
14496W        W30757  15.167  15.548   0.597  0.1148  0.3878  0.2263
14497W        W30758   3.237   2.485   4.961 -0.1490 -0.1280  0.2614
14498W        W30759  17.348   0.105  14.778 -0.0993 -0.0176  0.0851
14499W        W30760   8.808  11.063  13.378 -0.0213  0.1549 -0.0457
14500W        W30761   6.893   1.628   3.381  0.1506  0.1135  0.0376
14501W        W30762  17.748   3.727   3.715 -0.2329 -0.1246  0.0202
14502W        W30763   2.930  12.631  14.388 -0.0121 -0.3169  0.3487
14503W        W30764  15.101  15.406  15.771 -0.1426  0.0344 -0.0799
14504W        W30765   9.757   8.452   1.176 -0.2192 -0.0245  0.0589
14505W        W30766   7.153   0.975  14.472  0.2991  0.0091  0.0152
14506W        W30767  10.311   6.047  11.586  0.1376  0.0150  0.1267
14507W        W30768   4.683  13.604   6.009 -0.0905  0.0553  0.0103
14508W        W30769  17.208  11.852   3.339  0.1341  0.2942 -0.0053
14509W        W30770   4.702   7.059  11.735  0.1371  0.0170 -0.2661
14510W        W30771   9.457   4.460   6.360 -0.0520  0.2128  0.0486
14511W        W30772   8.349   5.883  12.283 -0.0564 -0.2041  0.2914
14512W        W30773  17.339   2.391   3.009 -0.0467 -0.0259  0.2577
14513W        W30774  16.816   5.062   2.257 -0.0390 -0.0933  0.1415
14514W        W30775  11.347  13.603   4.330 -0.1853 -0.0828 -0.1894
14515W        W30776  10.290   1.609  13.702 -0.0831  0.1036 -0.1261
14516W        W30777  15.085  15.681   2.180  0.1777  0.0436  0.0427
14517W        W30778  12.510  10.493  12.447  0.0396  0.2283  0.0131
14518W        W30779  16.573   6.679   2.336  0.1831 -0.2156 -0.0985
14519W        W30780  10.696   1.868   3.569 -0.0853 -0.0541  0.0081
14520W        W30781   7.927  13.719  14.548  0.1963 -0.0090  0.3636
14521W        W30782   7.914  13.463  13.383 -0.0629 -0.0928  0.0978
14522W        W30783  10.322   3.474   4.110  0.1891  0.1671  0.0613
14523W        W30784   9.362   1.793   1.506  0.2117  0.0946 -0.1722
14524W        W30785  17.804   0.223   2.641 -0.4671 -0.0716  0.0019
14525W        W30786   5.261   6.724   0.402 -0.0038  0.3478  0.1909
14526W        W30787  11.424   0.389  15.340 -0.0747 -0.0919  0.5388
14527W        W30788   3.462  17.254   0.767 -0.2595 -0.2519  0.1462
14528W        W30789  15.772   6.377   3.471  0.0942  0.0488  0.1974
14529W        W30790  14.111   5.105  16.594 -0.0185 -0.0536 -0.4024
14530W        W30791  14.769   2.641   1.767  0.2436 -0.2720 -0.3167
14531W        W30792  10.065  15.673   6.612 -0.3625 -0.2725  0.0417
14532W        W30793   8.873   0.751  15.239  0.3579  0.2913 -0.1163
14533W        W30794  17.602  11.028  16.316 -0.2228 -0.2014 -0.0295
14534W        W30795  10.362  12.123  14.176  0.3176  0.1284 -0.0061
14535W        W30796   1.182  13.643   1.641  0.0975  0.1209  0.0692
14536W        W30797   4.633  16.725  15.666  0.1762 -0.0161  0.1277
14537W        W30798  11.981  10.686  15.924  0.0294 -0.1091 -0.0497
14538W        W30799   8.197   9.461   1.755  0.0852  0.0049 -0.3015
14539W        W30800   0.059  11.724  13.773 -0.0849  0.2390 -0.1822
14540W        W30801  16.890  13.080  12.459 -0.1138 -0.1504 -0.2451
14541W        W30802   7.825  14.630   4.564 -0.1949 -0.0293 -0.1111
14542W        W30803   3.499   9.752  13.271 -0.0780  0.1488  0.0996
14543W        W30804   4.788  14.040  15.878 -0.0102  0.2287  0.0514
14544W        W30805   2.240  13.125  12.760  0.2830  0.1614  0.1160
14545W        W30806   6.422   7.145   2.526  0.1744  0.3585 -0.2102
14546W        W30807   9.049  10.095   0.352 -0.1548  0.0612 -0.0350
14547W        W30808   1.329   5.663  16.297 -0.0484 -0.0737  0.2226
14548W        W30809  17.666   5.108   1.201  0.4496 -0.0393 -0.2350
14549W        W30810  12.021   9.259   4.088  0.0933  0.0738 -0.1810
14550W        W30811  15.055  10.039   3.186  0.0071 -0.0629  0.0317
14551W        W30812  15.269   6.637   3.474  0.0730  0.1876 -0.1676
14552W        W30813   5.862   7.922  15.950 -0.0301 -0.1410 -0.1737
14553W        W30814   2.969   6.316  13.425 -0.0417  0.2016 -0.0239
14554W        W30815   4.797   4.005  13.007  0.1133  0.0482  0.1001
14555W        W30816   1.182   7.201  16.886 -0.0820  0.2024 -0.1116
14556W        W30817  17.783   1.603   5.572 -0.0063  0.2531  0.0781
14557W        W30818   7.886  10.581   2.825 -0.0276 -0.1047  0.0487
14558W        W30819  17.443   7.830   2.012  0.1236  0.2684  0.3827
14559W        W30820   0.044   0.052   3.167  0.1843 -0.2766 -0.0309
14560W        W30821  14.605   5.843   4.779 -0.0136 -0.0406 -0.0693
14561W        W30822   6.111   0.538  13.230 -0.0825  0.2066  0.0404
14562W        W30823  16.594  12.693   2.016 -0.5171  0.1249  0.2126
14563W        W30824  14.322  16.233  13.879 -0.1873  0.0359  0.3991
14564W        W30825   9.733  15.826   1.733 -0.3310  0.0426  0.0916
14565W        W30826  14.717  13.384  13.464  0.3144  0.1671 -0.1895
14566W        W30827   4.405   8.637   1.041 -0.0756  0.2088 -0.0770
14567W        W30828   5.695  12.807  16.870  0.0254  0.1711 -0.0179
14568W        W30829  10.729  11.893   4.963  0.0076 -0.1689 -0.0119
14569W        W30830   8.301   6.667  13.392  0.1550  0.1730 -0.0185
14570W        W30831   8.062   0.375  16.311  0.1353 -0.0436 -0.0383
14571W        W30832   6.025   2.451   3.521 -0.0914  0.1267  0.2012
14572W        W30833   4.418   8.502   6.170 -0.0958  0.0888 -0.1171
14573W        W30834   1.768   4.685  15.993  0.0926 -0.0742  0.1047
14574W        W30835   1.017   3.577  14.242 -0.1478  0.2584  0.0848
14575W        W30836   0.502  13.418  12.444  0.1086 -0.1580  0.0761
14576W        W30837  10.548   2.948  14.088  0.1171 -0.2116  0.0249
14577W        W30838  16.452  12.807  12.200 -0.0802 -0.2464 -0.0647
14578W        W30839  15.213   0.557   4.759  0.0402  0.1299 -0.1027
14579W        W30840   5.449   6.987  13.780  0.1014 -0.1387  0.1199
14580W        W30841  16.937   9.489  15.763  0.0120 -0.2142  0.2203
14581W        W30842  16.585   5.674   2.505 -0.0538  0.0217 -0.1334
14582W        W30843   3.492  15.588  15.038 -0.0435  0.0646  0.0397
14583W        W30844   3.448  14.163  13.310  0.1833 -0.0763 -0.0244
14584W        W30845   2.878   1.890  11.828 -0.0578  0.4172 -0.2617
14585W        W30846  13.299   1.969   4.140 -0.1413 -0.1369 -0.2095
14586W        W30847  10.235   7.404  12.558  0.4577 -0.2225 -0.0723
14587W        W30848  13.256   2.288   5.291  0.0488 -0.5007 -0.2405
14588W        W30849   6.673   7.676  16.180 -0.4669 -0.1366  0.2100
14589W        W30850  16.426   9.428   4.324 -0.0827  0.2101  0.0885
14590W        W30851   6.464  17.595  12.117 -0.0800 -0.0335 -0.1711
14591W        W30852   7.541   2.151  13.715 -0.0378 -0.0849  0.0566
14592W        W30853   5.827  15.967  15.893 -0.0151 -0.1872  0.3859
14593W        W30854  13.474   8.853  15.739  0.2595  0.0407  0.2388
14594W        W30855  15.272  13.474   0.515  0.2969 -0.0306 -0.1292
14595W        W30856  12.144  11.619   1.569  0.0162  0.1236 -0.0937
14596W        W30857   5.235   5.549   3.500 -0.0806 -0.3131 -0.0606
14597W        W30858   0.931   1.124  11.748  0.1579  0.0700  0.0183
14598W        W30859   3.263  14.094   3.702 -0.1999  0.0389  0.0301
14599W        W30860  16.787  15.249   5.875 -0.0380 -0.0619  0.0042
14600W        W30861   3.394   0.142   2.070  0.2059  0.0135  0.1278
14601W        W30862   3.600   8.685   0.517 -0.0424  0.2095  0.1103
14602W        W30863   1.402  13.709   5.115  0.1683  0.1837 -0.0804
14603W        W30864  17.509   0.806  14.264 -0.2556 -0.0356 -0.0482
14604W        W30865  11.166   6.868  13.441 -0.0849  0.0881  0.1265
14605W        W30866  17.013  10.556  12.198 -0.1222  0.2243  0.1042
14606W        W30867  15.319  10.124   1.859  0.0389 -0.2679 -0.0086
14607W        W30868  17.273   0.193   5.467 -0.1162 -0.0944 -0.0098
14608W        W30869  15.604  10.242  16.816 -0.1466  0.0258  0.0069
14609W        W30870   9.767  14.604   1.338  0.2897 -0.3605  0.0590
14610W        W30871  13.706  17.751  15.622  0.1100  0.1612  0.1168
14611W        W30872  12.025  13.514   0.898 -0.1728  0.0038 -0.0080
14612W        W30873   5.594  15.956   2.787  0.0876  0.0038  0.0694
14613W        W30874  10.074   5.356  16.620 -0.0204  0.1202  0.0517
14614W        W30875  15.326  13.410   1.417  0.0081  0.1287  0.2033
14615W        W30876   1.320   9.576   2.423  0.2423 -0.4694  0.0835
14616W        W30877   3.698  11.091   2.541  0.0480  0.0099 -0.0111
14617W        W30878   4.455   6.976   1.273  0.0337 -0.0097  0.0254
14618W        W30879  10.005   5.792  16.382 -0.1096  0.2756  0.0984
14619W        W30880  15.882   7.788  10.969 -0.1719 -0.1402  0.1698
14620W        W30881  10.633  11.767   4.472 -0.0153  0.0297 -0.1918
14621W        W30882  14.641   4.488  15.981  0.0359 -0.1350 -0.0808
14622W        W30883   5.150   7.610   4.432 -0.0747 -0.1189 -0.0035
14623W        W30884   6.641   2.425   6.005  0.0215  0.0266 -0.2254
14624W        W30885   8.798  16.121  16.087  0.2057 -0.1911  0.0149
14625W        W30886  17.239   3.365  13.845 -0.1154  0.0996  0.0308
14626W        W30887  11.138   2.278   1.689  0.1636  0.0252  0.0628
14627W        W30888   1.472  16.252   1.929 -0.1852 -0.1480  0.2999
14628W        W30889   2.269   5.697  14.256 -0.1923 -0.2461 -0.2841
14629W        W30890  17.804  12.432   0.878 -0.2376 -0.0680 -0.0336
14630W        W30891  14.083  17.579  15.914  0.0763  0.1915  0.1449
14631W        W30892   1.133   4.616   3.146 -0.1092 -0.0414  0.0277
14632W        W30893  11.801   5.725   0.688 -0.0087 -0.1276  0.0631
14633W        W30894  11.192  12.092  14.314 -0.1696  0.1574 -0.1248
14634W        W30895  16.221   8.865   4.235 -0.1499  0.1822 -0.0846
14635W        W30896   5.868  12.637   5.587  0.0980 -0.1261 -0.0578
14636W        W30897   7.790   0.577   2.927  0.1681  0.1627 -0.0144
14637W        W30898  12.088  10.655   3.719 -0.1528  0.0079 -0.1634
14638W        W30899  13.584   8.640  15.041 -0.1318 -0.1398  0.0938
14639W        W30900  10.600   5.611  13.253 -0.0670  0.0647  0.1100
14640W        W30901   6.828   7.169  12.516  0.0780  0.3928  0.1528
14641W        W30902   0.753  10.782  16.305 -0.3095  0.1267  0.0779
14642W        W30903   3.872   5.201  13.424  0.0847 -0.0980  0.0501
14643W        W30904  14.120  10.440   4.557  0.1398  0.0982  0.1326
14644W        W30905  13.464   9.727  14.678 -0.0778  0.1939 -0.3741
14645W        W30906  15.142   3.195   0.985 -0.1677 -0.0778  0.1707
14646W        W30907   2.216   1.462  13.608 -0.0386 -0.1378  0.0408
14647W        W30908   4.648  10.395   1.403 -0.0076 -0.1454 -0.2405
14648W        W30909   4.260   5.875  14.183  0.1792  0.3681 -0.2908
14649W        W30910   4.449   5.738  11.796  0.2926 -0.2188  0.0754
14650W        W30911  16.431  17.710   3.248 -0.1985 -0.0962 -0.5331
14651W        W30912  10.689  15.565   1.090  0.2484 -0.3798  0.0047
14652W        W30913  15.285   0.989   0.736  0.0409 -0.0712 -0.3125
14653W        W30914  15.585   7.937   2.955  0.0375 -0.1546 -0.2225
14654W        W30915   5.806   7.886  14.824  0.4617  0.0617 -0.1574
14655W        W30916  16.187  11.983   2.047  0.2415 -0.1563  0.0308
14656W        W30917  15.194   3.543  15.889  0.0415  0.1921  0.0093
14657W        W30918  16.721   7.776   0.611 -0.2438  0.4897  0.0903
14658W        W30919   4.981   2.111   4.334  0.0101  0.0349 -0.2455
14659W        W30920  12.247   7.006   3.906 -0.1382  0.2378  0.1041
14660W        W30921   4.555   1.834   3.965 -0.2446 -0.0667 -0.0092
14661W        W30922   5.641   9.081   4.088  0.1272 -0.0404 -0.2041
14662W        W30923  11.085   1.199  13.888 -0.3332  0.0083  0.1494
14663W        W30924  14.989  17.667  15.782 -0.0809 -0.2905  0.1145
14664W        W30925   5.608   6.607  16.274  0.0777 -0.0758  0.4736
14665W        W30926  16.437   0.501   2.588 -0.1794  0.1686  0.2215
14666W        W30927  15.031   1.318   1.533 -0.1874 -0.1513 -0.0157
14667W        W30928  10.429  16.320   5.681  0.2615 -0.1110  0.0795
14668W        W30929   5.391   5.692   1.993  0.2211  0.3266  0.1385
14669W        W30930   2.897   8.116  13.470 -0.0882  0.2450 -0.1034
14670W        W30931   2.280  12.086   0.713 -0.2630  0.4122  0.0417
14671W        W30932   5.328  17.341   4.481  0.0683 -0.3567  0.1436
14672W        W30933  17.597   6.509  14.189 -0.0135 -0.5763  0.1014
14673W        W30934  13.275   0.946   1.127  0.1909 -0.0320 -0.1532
14674W        W30935   9.482   2.862   1.635 -0.2109  0.0186  0.2239
14675W        W30936   1.544   3.193  14.854  0.2190  0.0678  0.1175
14676W        W30937   2.377   3.296  15.891 -0.0913  0.2514 -0.0908
14677W        W30938   8.691   3.875   0.086  0.1205 -0.2488 -0.0797
14678W        W30939  10.396   0.561   4.659  0.2155  0.2154 -0.0070
14679W        W30940   9.695  15.366  11.925 -0.0260 -0.0288 -0.1526
14680W        W30941  16.338   1.446  13.107  0.1809  0.2081  0.0230
14681W        W30942  16.037   2.557   2.011  0.1605 -0.0927  0.1677
14682W        W30943  11.841   0.739  13.541  0.0160 -0.0445 -0.0720
14683W        W30944   8.976  15.307  13.812  0.2292 -0.0670  0.2292
14684W        W30945  11.319  15.043  16.873  0.1426  0.1919 -0.0295
14685W        W30946   0.823  10.541  12.914  0.1997  0.2326  0.1345
14686W        W30947  13.176  13.464   0.949 -0.1503 -0.1180  0.2368
14687W        W30948  16.025  12.718  13.639 -0.1369  0.2552  0.1502
14688W        W30949   0.011   5.003   3.906  0.0499 -0.2226  0.2122
14689W        W30950  13.049   2.269   0.330  0.2641  0.1019 -0.0000
14690W        W30951  12.355   8.928   2.498  0.3809 -0.1533 -0.0895
14691W        W30952   3.150   3.625   5.415  0.0714 -0.0665  0.2011
14692W        W30953   0.839  10.334  16.559  0.0189 -0.1625 -0.2838
14693W        W30954   9.136  17.273   5.209 -0.2313  0.3649  0.1014
14694W        W30955  10.460  12.330   5.682  0.2221 -0.0711  0.1243
14695W        W30956   0.171   2.741  16.741 -0.2933  0.1986 -0.1075
14696W        W30957   3.291   1.684   1.054  0.2776  0.0922 -0.2767
14697W        W30958  13.641  12.619   4.051 -0.2974  0.2268  0.4288
14698W        W30959  11.077  12.472   0.373  0.4631  0.1242 -0.1813
14699W        W30960   0.825  12.380   2.373 -0.0739 -0.1075 -0.0599
14700W        W30961  15.063  14.294   6.779 -0.0045 -0.0814  0.0008
14701W        W30962   1.567  17.477   2.778 -0.1086 -0.1000  0.0963
14702W        W30963  12.817  12.256   3.244 -0.0753 -0.3464 -0.0819
14703W        W30964  11.486   8.570  16.172  0.1794 -0.0258  0.1339
14704W        W30965   8.269  14.751  11.568  0.1682 -0.0740 -0.1347
14705W        W30966   2.096  10.606   4.603  0.2649 -0.0731  0.0343
14706W        W30967   5.099   9.526   4.667  0.1195 -0.0050 -0.0141
14707W        W30968  15.829   4.648   2.884 -0.0745  0.2798 -0.0861
14708W        W30969  17.001   9.031   5.402  0.1986  0.0634 -0.0175
14709W        W30970   2.280   0.699  13.177 -0.0199 -0.1185  0.0893
14710W        W30971  15.249   1.981  13.143 -0.0327 -0.3472  0.1465
14711W        W30972   8.185   0.874   2.985 -0.0029 -0.1504 -0.0545
14712W        W30973  13.803  16.850   2.649 -0.0280  0.1790  0.0836
14713W        W30974   6.494  13.228  14.463 -0.0818  0.1680 -0.2996
14714W        W30975   0.703   7.574  16.305  0.0141 -0.0957 -0.0824
14715W        W30976   9.634  12.404  14.760  0.0984  0.1701 -0.0496
14716W        W30977   9.317   4.585   0.989  0.1175 -0.0339  0.0946
14717W        W30978  13.274  17.265   3.960  0.0709 -0.1869 -0.0972
14718W        W30979   5.199   3.120  15.683 -0.2582 -0.1390  0.0239
14719W        W30980  14.514   9.790   0.991 -0.0245 -0.1419 -0.2372
14720W        W30981   5.306   3.239  15.198  0.1639  0.3493  0.2316
14721W        W30982   9.856  12.172   1.167 -0.0844  0.0649 -0.2381
14722W        W30983  12.110  16.054   4.762  0.1734  0.1207  0.1800
14723W        W30984   0.845   7.003   4.962  0.1935  0.0371 -0.1527
14724W        W30985   6.990   2.053  16.485 -0.0295  0.1448 -0.2937
14725W        W30986  16.551  15.074   3.112 -0.2631 -0.3714  0.2142
14726W        W30987  15.148   5.777  16.964  0.0964 -0.0142  0.2447
14727W        W30988  17.832  16.727   2.576  0.0129 -0.1172 -0.0293
14728W        W30989  16.122   1.464   3.533  0.0494  0.1176  0.0701
14729W        W30990   6.934   3.269   2.661 -0.0005 -0.0478  0.0900
14730W        W30991   0.260   4.379   2.840 -0.0222 -0.0840 -0.1770
14731W        W30992  15.904   4.983  15.208  0.0439 -0.0722  0.0406
14732W        W30993  15.564  11.079  11.961  0.2103  0.0252 -0.1483
14733W        W30994   6.909   4.408   1.731  0.3366 -0.1137  0.3436
14734W        W30995   3.073   3.382  11.939 -0.1086 -0.0894  0.2483
14735W        W30996   4.792   9.254  13.152 -0.0762  0.1196 -0.0725
14736W        W30997   7.294   8.166   4.164  0.2606  0.1811  0.0096
14737W        W30998   8.749  10.486   1.116  0.2042 -0.3696 -0.0925
14738W        W30999   8.146  17.824  14.347 -0.2879 -0.1038 -0.1395
14739W        W31000   7.062  11.659   3.126  0.4466 -0.3072  0.0132
14740W        W31001   7.540   3.116  12.120  0.1368  0.1428  0.2161
14741W        W31002   4.659   1.592   1.195 -0.2189  0.0303  0.1543
14742W        W31003  16.820  14.499  14.670 -0.0600 -0.1757 -0.1593
14743W        W31004  10.940   6.378  13.670  0.0677  0.0495 -0.1747
14744W        W31005  15.955   9.745   5.475 -0.3034  0.1343 -0.1483
14745W        W31006   4.428   6.650  13.735  0.1045  0.0233 -0.0403
14746W        W31007  15.996  11.471   4.107  0.1885  0.2245 -0.3003
14747W        W31008   0.334  14.818  16.166  0.0984 -0.2686 -0.1618
14748W        W31009   7.687   1.382  12.309  0.0087 -0.0499 -0.1271
14749W        W31010   9.427   6.267  13.902 -0.1379  0.1688  0.1297
14750W        W31011   3.855  17.744   0.743  0.0822  0.0590 -0.1270
14751W        W31012   3.766   9.755   0.563  0.3247  0.4880 -0.2020
14752W        W31013   8.979   8.505   1.750 -0.0363 -0.1562 -0.2237
14753W        W31014   7.103  11.374   0.372 -0.0212 -0.1178 -0.1214
14754W        W31015   2.532  12.400   3.312  0.0108  0.0233  0.2358
14755W        W31016   3.809  14.830   2.020  0.1571 -0.1084 -0.0094
14756W        W31017   6.400   0.321  13.937  0.0008  0.0851 -0.1091
14757W        W31018   0.732   4.970   3.192  0.0136 -0.0539  0.3265
14758W        W31019  15.774  12.593  14.434  0.0509 -0.1688  0.0158
14759W        W31020  15.009   5.800   3.687 -0.1020 -0.0230 -0.1700
14760W        W31021   2.074  17.703   2.037  0.1203 -0.1375  0.1177
14761W        W31022  16.428   2.620  14.565  0.1701  0.3117  0.0886
14762W        W31023   4.345  17.110   5.447 -0.0441 -0.0226  0.1459
14763W        W31024  15.874   1.254  16.293  0.0805 -0.0204  0.0033
14764W        W31025  13.515   3.660   0.572 -0.0586 -0.1815 -0.1175
14765W        W31026  14.250   9.432   6.236  0.0915 -0.0827  0.1624
14766W        W31027  11.847   1.322  15.609  0.0194 -0.1502 -0.0474
14767W        W31028  15.415   1.572   4.241  0.2814  0.1044 -0.2926
14768W        W31029   2.180  17.662   1.031  0.1017  0.2143 -0.1225
14769W        W31030   4.596   2.595   5.225  0.1079  0.2738  0.0141
14770W        W31031  12.528   0.627   5.244 -0.3178 -0.0686 -0.3496
14771W        W31032   0.025   6.859  12.211  0.0365 -0.2083  0.1341
14772W        W31033   1.933  16.998   5.427 -0.0113  0.1638  0.3168
14773W        W31034   0.923  15.248   4.686 -0.0028 -0.2102 -0.0456
14774W        W31035   7.087  14.217  15.555  0.1805 -0.0839  0.0771
14775W        W31036   9.730  13.441  14.367 -0.0361  0.2004 -0.3548
14776W        W31037   0.429  16.504   0.715  0.0759  0.1136 -0.1976
14777W        W31038   2.465   9.215   4.154  0.1051  0.2177 -0.2766
14778W        W31039   1.719   6.769   1.900  0.0174  0.2978  0.2716
14779W        W31040   5.639   6.553   2.464 -0.1484 -0.1988 -0.1789
14780W        W31041  14.338   1.468   1.626 -0.1552 -0.2424 -0.0004
14781W        W31042   0.038  14.404  15.112  0.2150 -0.1865 -0.1253
14782W        W31043   2.525  13.925  16.731  0.1560  0.1623  0.3503
14783W        W31044  13.668  17.707  13.928  0.2657 -0.1908  0.2073
14784W        W31045  16.314   7.530   5.539  0.0312 -0.2279 -0.0942
14785W        W31046  15.453   4.828   1.256  0.2641 -0.5451 -0.1062
14786W        W31047   9.741  12.084   1.713 -0.0813  0.0502  0.0130
14787W        W31048   8.698   6.790  16.438 -0.3793 -0.0411  0.1337
14788W        W31049  12.629   9.335  14.849 -0.2567 -0.2270 -0.3137
14789W        W31050  16.147  15.716  14.965  0.2017 -0.2240 -0.1939
14790W        W31051   0.628  15.117  16.483  0.2739  0.0463  0.1322
14791W        W31052  15.885   4.757   4.688  0.1163 -0.0908  0.2495
14792W        W31053  16.499   8.944   3.268  0.1495 -0.1608  0.1741
14793W        W31054   9.048  15.720   4.258  0.2066 -0.1063 -0.0564
14794W        W31055  14.020   6.575   1.650  0.0576 -0.0966  0.0909
14795W        W31056   3.920  16.868   3.545  0.0876 -0.0788 -0.1443
14796W        W31057  14.942  15.581   4.351  0.2888 -0.0593 -0.2924
14797W        W31058  13.519   5.224  11.886  0.1533 -0.1421  0.0249
14798W        W31059   5.129  14.391  12.777 -0.0978 -0.2698  0.3260
14799W        W31060   1.016   3.873  14.908  0.0837  0.1237 -0.0213
14800W        W31061  11.520   4.167  14.587  0.0438 -0.0736 -0.2747
14801W        W31062   2.021   2.886  15.898 -0.1725 -0.0544 -0.0555
14802W        W31063   6.094   3.782   3.193 -0.1924  0.2052  0.2276
14803W        W31064  17.644   8.732  13.711 -0.1726  0.2402 -0.0040
14804W        W31065  17.652   3.528  12.643  0.1169  0.0777 -0.0959
14805W        W31066  12.400  13.101  13.849  0.0851 -0.0476 -0.0858
14806W        W31067  11.800   8.601  16.931 -0.1646 -0.0311 -0.0563
14807W        W31068   4.806  10.851   1.721  0.0032 -0.4542  0.0131
14808W        W31069   0.098   5.270   4.760 -0.2547 -0.0158 -0.0098
14809W        W31070   3.926  14.675   4.624  0.2697 -0.3710  0.0037
14810W        W31071  10.652   4.956   4.230 -0.4366  0.0105  0.0701
14811W        W31072   9.447  15.210   0.972 -0.2717  0.0605 -0.0737
14812W        W31073  15.756  11.136  14.288 -0.0863 -0.1740  0.1061
14813W        W31074   4.403  16.724  11.865 -0.2604 -0.2705  0.0597
14814W        W31075   2.150   8.519  15.967  0.1767  0.1053  0.0005
14815W        W31076  12.754   2.721   0.113  0.1276  0.0768 -0.1889
14816W        W31077   2.168   4.381  15.622 -0.0949 -0.1153  0.1154
14817W        W31078   0.314   4.921  16.348  0.3529  0.1871 -0.0619
14818W        W31079  15.078   8.860  11.340 -0.3139 -0.0912  0.0689
14819W        W31080   6.251  17.121  11.961 -0.0063  0.0890  0.0075
14820W        W31081  13.982  13.191  11.913  0.1335  0.0582 -0.0323
14821W        W31082  11.257   7.903   4.237 -0.2097  0.3114  0.1042
14822W        W31083   7.645   5.801  15.297  0.3621 -0.2545 -0.1656
14823W        W31084  16.283  16.815  13.668  0.1950 -0.2188  0.0813
14824W        W31085  11.356   0.884   4.347  0.0359  0.0659  0.1315
14825W        W31086  15.083  13.301  14.721 -0.1834  0.0743 -0.3903
14826W        W31087   9.309  17.714   0.140 -0.2623 -0.0931 -0.1405
14827W        W31088   2.845   2.892  15.451 -0.0330 -0.2836  0.0036
14828W        W31089   5.543   0.212   1.951  0.0819  0.1080  0.0986
14829W        W31090   2.336  12.470   3.847 -0.2220 -0.2360  0.2345
14830W        W31091  13.541   9.336  16.231 -0.0702  0.1862  0.3226
14831W        W31092  17.521  16.824  12.739 -0.2177 -0.1179 -0.1093
14832W        W31093  13.146  13.375   2.931  0.1930 -0.0392  0.0426
14833W        W31094  12.198   1.611   4.381  0.1021 -0.1493 -0.0073
14834W        W31095  12.926  16.635   5.288  0.2453  0.0862 -0.0631
14835W        W31096   5.563   7.636  15.266  0.1875  0.3831 -0.0403
14836W        W31097   5.720   8.370   0.709 -0.0771  0.0243  0.1836
14837W        W31098   5.429  14.506  14.339  0.1907  0.0450  0.2743
14838W        W31099   4.427  15.129  13.513  0.1190  0.1379 -0.0087
14839W        W31100   4.925   2.049  15.816 -0.0784 -0.3108 -0.1901
14840W        W31101  14.689   5.843   0.586 -0.1914  0.1290  0.3970
14841W        W31102   4.441  12.563  12.009 -0.0458  0.1343 -0.1084
14842W        W31103  12.094  11.606   2.569  0.1941 -0.1607 -0.2915
14843W        W31104   7.041  13.501  13.590  0.1021  0.1617 -0.1183
14844W        W31105   1.691   8.193   2.273  0.2283 -0.1500 -0.3208
14845W        W31106  15.659  12.353  13.448  0.1833  0.1249 -0.0928
14846W        W31107  15.346   5.498   0.418  0.0695  0.0506 -0.0442
14847W        W31108  13.688  10.592  15.750  0.0662 -0.1630  0.1511
14848W        W31109   1.598   6.800   2.418 -0.0722 -0.2872  0.0198
14849W        W31110   5.211   9.411   5.361  0.1676  0.3796 -0.1683
14850W        W31111   4.033  11.796  16.550 -0.1104  0.0787 -0.2683
14851W        W31112  10.979  14.955  15.015 -0.0325 -0.2744 -0.0600
14852W        W31113  12.643  11.384   2.474  0.3096  0.0895  0.0551
14853W        W31114   2.439   1.147  14.925 -0.3159 -0.0763  0.2409
14854W        W31115   7.361  12.363  16.925 -0.1815 -0.3109  0.0076
14855W        W31116   9.784   3.785   3.282  0.0872  0.1274  0.2019
14856W        W31117  11.359   2.781   0.982  0.2406  0.4200 -0.0607
14857W        W31118   4.608   9.452  16.358 -0.1732  0.2913 -0.2052
14858W        W31119  16.019  16.002   4.991 -0.0899  0.1575  0.2526
14859W        W31120  12.180   9.307  13.438  0.3632 -0.1755  0.0699
14860W        W31121   3.088   4.137  13.176 -0.0417 -0.0275  0.0492
14861W        W31122  17.038  11.364  15.763  0.0171 -0.1260  0.0771
14862W        W31123   3.714   3.724  15.815  0.1823 -0.3551 -0.0194
14863W        W31124  17.155  17.830   3.894  0.1566 -0.0358 -0.2618
14864W        W31125   1.204   4.039   1.287 -0.0118  0.1464  0.2994
14865W        W31126   7.257  16.689   2.167  0.2458  0.0686 -0.0959
14866W        W31127  15.382  16.481  13.797  0.1632  0.3749 -0.1177
14867W        W31128  17.492  12.208   3.062 -0.1828  0.1559 -0.1001
14868W        W31129   2.415   2.936  14.871  0.0069 -0.1376 -0.1602
14869W        W31130  10.938  13.626  12.860  0.0696  0.0924 -0.0862
14870W        W31131  13.872   3.811   3.448  0.4574 -0.0936  0.0290
14871W        W31132   6.538  11.174   4.195 -0.3084 -0.1210  0.2062
14872W        W31133   6.073   7.664  12.829 -0.0702 -0.1113 -0.2406
14873W        W31134  16.774   7.561  13.067 -0.0591 -0.0721 -0.1980
14874W        W31135  11.606   3.227  15.978 -0.1170 -0.0512 -0.3064
14875W        W31136   6.346  16.382  15.272 -0.1811  0.2296  0.0961
14876W        W31137  16.837  14.062   5.138  0.1005 -0.0341 -0.0793
14877W        W31138  10.624   3.775  15.320  0.0006  0.0443 -0.0443
14878W        W31139   7.130  12.435   5.164 -0.0761 -0.0999  0.0405
14879W        W31140  17.625   8.175  15.775  0.1338 -0.0221  0.2830
14880W        W31141  17.485   7.764   2.975  0.0174  0.1384  0.0375
14881W        W31142   4.693  10.656   5.230 -0.0391  0.2710  0.0016
14882W        W31143   7.659   4.023  16.885 -0.0166  0.0862 -0.4737
14883W        W31144  13.309   9.591   1.938  0.0341  0.0345 -0.0071
14884W        W31145   3.083   3.538  14.795 -0.0808  0.0548  0.0979
14885W        W31146   2.016  10.759  13.195 -0.5076  0.1325  0.2237
14886W        W31147  11.641  11.173  16.860  0.2184  0.0012  0.0921
14887W        W31148   7.537   8.384  13.118  0.0965  0.0806  0.1284
14888W        W31149  12.468  11.550   0.553 -0.1944 -0.0436 -0.2312
14889W        W31150   0.887   2.792   3.712  0.0698  0.1170  0.0741
14890W        W31151   5.841  14.362  13.072 -0.0658 -0.3022  0.0014
14891W        W31152  17.041   9.300  13.474 -0.0401  0.0161  0.1759
14892W        W31153   6.373  13.256   4.977  0.1659 -0.0552 -0.0559
14893W        W31154   5.242   9.299   2.754 -0.1145  0.1248  0.2027
14894W        W31155  15.286  13.245   5.419 -0.0002 -0.2076  0.2294
14895W        W31156  10.564  12.843  13.096 -0.2324 -0.1069  0.0217
14896W        W31157  10.747   8.700  14.069  0.0395  0.3173  0.1106
14897W        W31158  12.617  16.281  16.896  0.1774 -0.1617 -0.0315
14898W        W31159   2.067   7.201  12.666  0.0429 -0.0271  0.4487
14899W        W31160   6.518   6.981   0.365 -0.1193  0.0991  0.0440
14900W        W31161   7.855  13.988  12.548  0.2418  0.1596  0.1745
14901W        W31162   9.349   5.232  15.002 -0.1598  0.1426  0.0731
14902W        W31163  10.425  15.871  13.658  0.1198 -0.1869 -0.1850
14903W        W31164   0.497   8.025  12.759  0.1228 -0.0720 -0.1721
14904W        W31165  15.227   5.218   2.241  0.3399 -0.0260  0.0639
14905W        W31166  15.031  10.400   4.108  0.3357 -0.1488 -0.0824
14906W        W31167  10.940   2.307  13.371 -0.0860  0.2539 -0.1379
14907W        W31168  12.573  12.093   3.660  0.0456 -0.1050 -0.1074
14908W        W31169  16.320  10.120  12.881 -0.2545  0.1542 -0.5031
14909W        W31170  11.254   4.052   5.222 -0.0552 -0.2170 -0.1161
14910W        W31171  16.649   8.958   4.046 -0.0607  0.2281 -0.4254
14911W        W31172  13.257  17.049   5.096  0.0319  0.1985  0.1976
14912W        W31173  17.206  11.983   1.435 -0.0144  0.3942 -0.2026
14913W        W31174  16.016   6.214  15.173 -0.1132  0.1065 -0.0037
14914W        W31175   5.892   7.276   4.765 -0.3627 -0.0548 -0.1571
14915W        W31176  11.624   6.807  11.708 -0.2811  0.1325  0.2749
14916W        W31177   8.231  14.464   0.420  0.1518  0.1071 -0.1153
14917W        W31178   9.370   4.302   4.525  0.1312  0.1060  0.1564
14918W        W31179  14.831  11.793   1.458 -0.0223  0.2607 -0.2583
14919W        W31180   9.051  17.506  13.585  0.1904 -0.0253  0.0543
14920W        W31181   9.731   3.206   5.787 -0.2115 -0.0360 -0.1102
14921W        W31182   9.157   5.828  11.670 -0.1964 -0.0717  0.0762
14922W        W31183  14.284  10.185  14.757  0.2106 -0.0639 -0.0025
14923W        W31184   6.442   5.409  15.477  0.3841  0.1703  0.1020
14924W        W31185   0.317  13.574  14.191  0.0106  0.1688  0.1285
14925W        W31186  15.968   7.482  13.610 -0.3300  0.0695 -0.1882
14926W        W31187  16.584  12.924   3.255 -0.1210 -0.0684  0.1429
14927W        W31188  15.354   4.909   1.811  0.0019  0.0054  0.4526
14928W        W31189  10.830  17.169   2.406 -0.1828  0.2436 -0.1023
14929W        W31190   0.835  15.655  16.545 -0.2036 -0.0072 -0.0508
14930W        W31191   9.621   9.029  12.714  0.2387  0.0669 -0.0847
14931W        W31192   0.309   1.089  16.221  0.0261  0.0753  0.1449
14932W        W31193  14.758  16.626   2.421 -0.1318  0.1995  0.0544
14933W        W31194   5.346   8.478  15.415 -0.0903 -0.4501 -0.1183
14934W        W31195  13.925   3.795  13.130  0.0971 -0.0712 -0.0766
14935W        W31196  12.390   2.134   5.194 -0.0651  0.0899  0.1410
14936W        W31197   2.174  14.772   4.942 -0.1685  0.2962 -0.1870
14937W        W31198  11.761  11.525  13.253  0.2624 -0.5134 -0.1245
14938W        W31199   9.357   2.604  16.411 -0.1166 -0.0685  0.0865
14939W        W31200   3.665  10.119  16.203 -0.1178  0.0428 -0.0195
14940W        W31201  12.001   8.447   3.142  0.1636 -0.2581  0.2204
14941W        W31202   0.978  15.063  11.853  0.0823  0.1227 -0.1054
14942W        W31203   0.286   1.593   3.824  0.1714  0.0122  0.1373
14943W        W31204  10.591   3.127  15.945  0.1570 -0.0191 -0.2265
14944W        W31205  11.269   6.818  11.371 -0.3415 -0.0553 -0.2480
14945W        W31206  17.789   2.189  15.532  0.0275  0.2102  0.0308
14946W        W31207   2.257  15.789  14.034 -0.0890 -0.2895  0.3072
14947W        W31208   5.344   1.986   1.575 -0.2059 -0.2567  0.2443
14948W        W31209   5.417   2.034   2.773  0.2192  0.1627  0.0968
14949W        W31210   0.980  16.444  14.266 -0.0242  0.0115  0.0217
14950W        W31211   8.184   4.747  12.991  0.0190 -0.0864 -0.0882
14951W        W31212  14.690  13.534  14.468  0.1146 -0.1600 -0.4043
14952W        W31213  13.009  12.293  13.764 -0.1353 -0.0117  0.1588
14953W        W31214  11.771   4.349   2.758  0.1763  0.0957 -0.2948
14954W        W31215  11.526   3.287   3.633 -0.0828 -0.1342 -0.1419
14955W        W31216  10.275  16.547  11.638 -0.3466  0.1234 -0.1418
14956W        W31217  11.170   9.904  15.648 -0.0672 -0.1156  0.2845
14957W        W31218  10.741  14.384   5.303  0.0769  0.0094  0.1202
14958W        W31219   1.615   6.299   2.265 -0.2346  0.0893 -0.1585
14959W        W31220   1.940  12.453  15.880  0.2621 -0.4597  0.1235
14960W        W31221   2.400   2.794   6.458  0.0757 -0.1773  0.0464
14961W        W31222  11.108  10.600   1.043  0.1389 -0.1456  0.1460
14962W        W31223   8.386   0.616  15.315 -0.1370  0.0144 -0.2778
14963W        W31224  12.161   7.259  14.119 -0.0227  0.1141 -0.3939
14964W        W31225   2.528  12.721   0.849  0.0495  0.2045 -0.2378
14965W        W31226  15.602  13.509   6.217 -0.0429 -0.0420 -0.3502
14966W        W31227  17.496  11.508   3.576 -0.2994 -0.0772 -0.3511
14967W        W31228   9.170  13.351   3.341 -0.3307  0.1049 -0.0457
14968W        W31229  17.090  11.830  13.969  0.1054  0.2026 -0.0826
14969W        W31230   9.056   4.160  16.256  0.0087 -0.1783 -0.0493
14970W        W31231  13.905  13.531   0.170  0.1649  0.1569  0.1406
14971W        W31232  14.288  14.186  15.461  0.0035 -0.1523 -0.4177
14972W        W31233  11.520  14.518  14.413 -0.0121  0.1044 -0.1115
14973W        W31234  12.543  11.175   0.164  0.0105 -0.0350  0.1914
14974W        W31235  17.383   2.700   4.954  0.1767  0.1474 -0.1345
14975W        W31236   8.029  13.017   3.716 -0.2013  0.0171  0.2092
14976W        W31237  14.545  10.900  11.705 -0.1247 -0.2929 -0.1860
14977W        W31238  14.108  15.715   1.334 -0.1832  0.0627 -0.3952
14978W        W31239  12.060  16.803   4.458 -0.2550 -0.4659 -0.0948
14979W        W31240   9.534   1.372  16.412  0.0058  0.3839  0.0505
14980W        W31241  13.616  17.578   4.937 -0.2149  0.0792 -0.0880
14981W        W31242  11.218   0.510   3.752 -0.1218 -0.0049 -0.3005
14982W        W31243   5.704   6.795   3.097 -0.0535  0.0279 -0.2242
14983W        W31244   9.865   7.217  13.596 -0.1627  0.0163 -0.3446
14984W        W31245  12.967   4.260   0.390  0.0555  0.0217  0.0967
14985W        W31246   0.865   1.667  15.299 -0.0674  0.1587 -0.0333
14986W        W31247   7.981  11.006  11.700 -0.1590  0.0462 -0.1875
14987W        W31248   9.851   7.004   0.951 -0.1365 -0.2784 -0.1319
14988W        W31249   7.204  17.504   0.568 -0.1223 -0.1360  0.2760
14989W        W31250   8.733   1.542  12.541  0.2079 -0.3015 -0.2690
14990W        W31251   2.069   9.006  16.262 -0.1386  0.2714  0.1451
14991W        W31252   1.175   5.375  15.442  0.2218  0.0742 -0.0727
14992W        W31253   6.450   0.987  12.470  0.3835  0.1617 -0.2946
14993W        W31254   3.353   2.247  11.133 -0.0044  0.1425  0.0123
14994W        W31255   1.435  10.444   3.240  0.2695  0.1655 -0.3343
14995W        W31256   7.941  14.767  15.469  0.0462  0.4304  0.0997
14996W        W31257  13.530  12.281   5.903  0.1097  0.2238 -0.0308
14997W        W31258   4.362   4.275   4.032 -0.0144 -0.3166  0.3910
14998W        W31259  14.767  12.071  12.535  0.1441  0.1380 -0.1976
14999W        W31260   2.774  16.122  14.269 -0.0201 -0.1079 -0.0873
15000W        W31261   8.276   7.404  15.860 -0.3956 -0.4157 -0.3407
15001W        W31262  12.917   1.308   2.525 -0.0259  0.3212  0.1621
15002W        W31263   4.901   1.014  15.587 -0.1696  0.4185 -0.0971
15003W        W31264   5.046  11.111   4.081  0.0115  0.3311 -0.0121
15004W        W31265   9.069   6.330   0.617  0.1013  0.1266  0.0633
15005W        W31266  10.632  16.464  11.250 -0.0341  0.4925  0.2203
15006W        W31267   5.354   0.848  11.987  0.2380 -0.1553 -0.0094
15007W        W31268  11.469  14.586  13.075  0.1810 -0.0775 -0.0886
15008W        W31269  14.740   5.795  15.009  0.1523 -0.0277  0.0901
15009W        W31270  16.753   2.169   2.772 -0.2197 -0.2596  0.1215
15010W        W31271   9.422   3.833   4.419 -0.2267  0.0401  0.0249
15011W        W31272   2.436   2.145   3.447 -0.1452 -0.3322  0.1501
15012W        W31273   3.954  13.755   1.458  0.0436 -0.0020 -0.2589
15013W        W31274  11.423   3.230  14.340  0.1217 -0.1160 -0.0322
15014W        W31275   9.957   1.333   0.685  0.0285 -0.1606  0.2629
15015W        W31276   2.024  15.769  14.920  0.1999 -0.2276  0.0385
15016W        W31277   5.953  12.494   6.899 -0.0769 -0.2846 -0.0842
15017W        W31278  14.895   7.496  11.915  0.1720 -0.0441  0.1865
15018W        W31279  11.811  11.975   1.745 -0.0876  0.1778  0.0363
15019W        W31280   1.320  11.857   0.327 -0.2861 -0.3754 -0.2732
15020W        W31281   0.284   9.982  15.008  0.1745 -0.0318 -0.0311
15021W        W31282  16.359  17.225  16.815 -0.0531  0.1762 -0.1392
15022W        W31283  16.014  17.132   0.290 -0.2236 -0.0861  0.1302
15023W        W31284  12.973   9.188   1.142 -0.0809  0.1873  0.1695
15024W        W31285   9.264  16.170   0.009  0.1709 -0.4011  0.1272
15025W        W31286   3.875   6.264   1.897  0.0649 -0.4616 -0.0771
15026W        W31287  16.055  16.169  14.333 -0.1102 -0.0909 -0.2848
15027W        W31288   2.156   7.076  15.222 -0.2094 -0.1716 -0.0244
15028W        W31289   4.516  13.514  14.216  0.3594 -0.2583 -0.3218
15029W        W31290   8.695  17.194  11.930  0.0444 -0.1910  0.2355
15030W        W31291   0.215   7.454   1.796 -0.1717 -0.0452 -0.0061
15031W        W31292  14.662   2.630  12.072 -0.0377  0.0311 -0.0517
15032W        W31293  11.428   8.011   1.110 -0.2920 -0.2528  0.0283
15033W        W31294   5.706   9.488  12.692  0.2605 -0.1718 -0.1969
15034W        W31295  13.499   7.816   2.030 -0.2443 -0.1783 -0.0900
15035W        W31296  12.775   2.907   5.595  0.0291  0.1151  0.0883
15036W        W31297  11.504   2.706   4.621  0.0901  0.0553 -0.0218
15037W        W31298   8.430  16.495  14.420 -0.1474  0.0329 -0.3314
15038W        W31299   8.496   8.296   3.971  0.2333 -0.0481 -0.1438
15039W        W31300  12.638  16.040   1.222 -0.1599  0.1571  0.2886
15040W        W31301  13.939  10.019  12.775  0.2003  0.0386  0.2071
15041W        W31302   9.665  10.012   6.083 -0.1949 -0.0483 -0.0223
15042W        W31303   5.621   8.845  16.976  0.2141 -0.0249  0.1704
15043W        W31304  16.177  11.442  16.543 -0.0405  0.1021  0.4637
15044W        W31305  14.961   3.277   3.988 -0.4668 -0.1798 -0.0570
15045W        W31306  15.613   2.179  12.330  0.0257  0.0319  0.2569
15046W        W31307   8.963   6.845   4.027 -0.0465  0.1729  0.1294
15047W        W31308  13.253   2.576  13.584 -0.0626  0.0550 -0.1614
15048W        W31309   6.665  13.811   0.949  0.2043  0.0776 -0.0415
15049W        W31310  10.446   8.081   4.887  0.1559  0.0927  0.1597
15050W        W31311   7.198   4.040   0.989  0.3094 -0.0201  0.2520
15051W        W31312   1.813   5.877   2.685 -0.0043  0.0217  0.0364
15052W        W31313   8.861   3.489  15.431 -0.1434 -0.1974  0.0008
15053W        W31314  15.678   8.992   0.174 -0.2637 -0.0610 -0.0405
15054W        W31315  12.601   6.860   5.303  0.0652 -0.0392 -0.1846
15055W        W31316  12.587  15.740  15.574 -0.0838 -0.3273  0.3852
15056W        W31317  14.294   4.441   1.840  0.2905 -0.2824 -0.2420
15057W        W31318   6.064  10.788   5.706  0.0587 -0.0713 -0.1287
15058W        W31319   6.935   5.823   5.475  0.4002  0.0935 -0.1555
15059W        W31320   9.552   4.775  14.028  0.1106  0.0221 -0.2850
15060W        W31321   6.908   2.761   2.587  0.4050 -0.1666  0.1014
15061W        W31322  14.722  11.275   1.544  0.0477  0.0045  0.1200
15062W        W31323   4.066  16.410   2.780  0.1258 -0.1345 -0.0937
15063W        W31324   7.870  11.853  16.236  0.2188 -0.1558 -0.0635
15064W        W31325   2.547   7.489   0.306 -0.1316  0.2364  0.1075
15065W        W31326   2.265   4.753  12.401 -0.1951 -0.1836 -0.1190
15066W        W31327  16.636  17.700  16.924 -0.0046  0.2288  0.0791
15067W        W31328   7.530   5.047  14.691 -0.0417 -0.3745 -0.1722
15068W        W31329  15.020   1.652  14.560  0.0698 -0.1649  0.2325
15069W        W31330   2.851   3.787  16.051  0.4156  0.3016  0.1144
15070W        W31331  11.358  12.047   1.944 -0.3139  0.2209  0.2096
15071W        W31332   7.406  12.346   4.149  0.1869  0.0880 -0.2741
15072W        W31333   2.336   2.953  15.518  0.1436 -0.2205  0.2130
15073W        W31334   6.799   4.380  14.929  0.0441 -0.2458  0.2224
15074W        W31335   2.295  16.212   1.982  0.0923  0.0039  0.1190
15075W        W31336   9.227   0.367  15.717 -0.0525 -0.0682 -0.1884
15076W        W31337   3.614  12.266  16.671 -0.0525 -0.1122 -0.0378
15077W        W31338  17.058  11.919   0.407  0.1590  0.0567 -0.1189
15078W        W31339  16.000   4.035   5.274  0.4000  0.0186 -0.1577
15079W        W31340  13.040  16.550   1.464 -0.2122 -0.1507  0.0204
15080W        W31341   3.836  11.402  12.699  0.2457  0.2162  0.0759
15081W        W31342   3.773  15.872  13.678 -0.1270 -0.0470  0.2027
15082W        W31343   4.615  16.303   4.905 -0.2260  0.2663 -0.3136
15083W        W31344   9.909   1.857   4.410 -0.0411  0.0990 -0.1535
15084W        W31345  12.629  10.334   2.902  0.2110 -0.0757 -0.4661
15085W        W31346   0.614   3.115  14.445 -0.0027 -0.3464  0.0057
15086W        W31347   5.809  15.996  14.828 -0.1937 -0.1511  0.0643
15087W        W31348   3.709   0.113  14.712  0.0346 -0.1479  0.1787
15088W        W31349   1.957   1.628  14.067  0.2041  0.6223 -0.1833
15089W        W31350   4.143   5.868  15.295 -0.3009  0.0452 -0.0895
15090W        W31351  16.772  13.407   4.361  0.2176 -0.1232  0.0924
15091W        W31352  17.646   5.379   0.065 -0.0879  0.2311 -0.0538
15092W        W31353  10.270   6.087   4.740 -0.3478  0.1796 -0.1386
15093W        W31354  16.166  17.468   4.006 -0.2099 -0.0107  0.0286
15094W        W31355  14.798   1.813   2.265  0.0643 -0.2087  0.0166
15095W        W31356  17.775   7.000  13.287 -0.1296  0.1161  0.0378
15096W        W31357  13.308   7.915  15.682  0.0672 -0.0155  0.1480
15097W        W31358  15.751   3.796   2.435 -0.1664 -0.0704  0.1191
15098W        W31359   2.778   0.171  16.912 -0.0116 -0.3065  0.1040
15099W        W31360   4.316  14.570  15.332 -0.0718  0.0615 -0.0083
15100W        W31361   0.555   7.378   2.151 -0.0297  0.0238  0.2765
15101W        W31362  15.891   7.766  11.820  0.2292 -0.0280 -0.1210
15102W        W31363  13.140  13.395   1.473 -0.0521  0.0813 -0.1548
15103W        W31364  16.979  15.701  12.338  0.4164 -0.3047 -0.0344
15104W        W31365  12.043   6.658   5.318  0.4254 -0.0279  0.0745
15105W        W31366   7.334   6.617   0.232  0.0939  0.3079  0.1483
15106W        W31367   7.273  14.550   4.490  0.2609 -0.1035 -0.0202
15107W        W31368   5.711   4.545  14.578 -0.0523  0.3565 -0.0813
15108W        W31369   2.015  15.346   2.582 -0.2484  0.0624 -0.1396
15109W        W31370  10.249   7.016   0.051  0.0329  0.3053  0.0367
15110W        W31371  15.308  13.706   1.833  0.3151  0.0279  0.0497
15111W        W31372   0.213   9.966   1.510  0.2701 -0.1390 -0.1108
15112W        W31373   5.212  16.014  16.838 -0.0149 -0.3089  0.1678
15113W        W31374  12.238  12.936   3.592  0.2250  0.1452 -0.4050
15114W        W31375  14.631   0.003  11.870  0.0124  0.1575 -0.0215
15115W        W31376   6.675  13.981   2.365  0.1164  0.1321  0.0047
15116W        W31377  11.282   9.125   6.161 -0.1458 -0.0910  0.0439
15117W        W31378  16.643  10.304  15.017 -0.2890  0.0297  0.1264
15118W        W31379   2.557  10.876   2.828  0.1580  0.0718 -0.1715
15119W        W31380  10.934   8.596   0.969  0.4049  0.1140 -0.0689
15120W        W31381   8.317   6.795   2.477  0.1601 -0.0228 -0.1146
15121W        W31382   9.293   6.061   4.560 -0.2244 -0.3071  0.1043
15122W        W31383   0.007  14.731   3.996  0.0424 -0.1740  0.0050
15123W        W31384   5.680   6.839   3.657 -0.0086  0.0587  0.1381
15124W        W31385   4.188  16.207   5.214  0.0805  0.0970 -0.2261
15125W        W31386  12.121  12.038   1.232  0.2674 -0.1503  0.1571
15126W        W31387   1.600   0.629  14.427 -0.0755 -0.0132  0.1628
15127W        W31388  17.637   5.927  14.694  0.0065 -0.1948  0.2296
15128W        W31389  17.060  17.258   1.070 -0.0850  0.1306 -0.0550
15129W        W31390  14.945   7.728   1.326 -0.0049  0.1858 -0.0762
15130W        W31391   4.494  10.776  13.320  0.2747  0.0378 -0.1069
15131W        W31392   9.126  14.615   0.453  0.2087  0.1060 -0.0558
15132W        W31393   7.905  13.848   6.092  0.2568 -0.0892 -0.1533
15133W        W31394  15.688  14.301  13.157 -0.0162 -0.0107  0.0534
15134W        W31395   4.763   7.800  12.894 -0.2748 -0.1741 -0.5421
15135W        W31396   2.550  17.126   4.951 -0.0927 -0.1066  0.2390
15136W        W31397  15.678   0.882   2.472 -0.1124  0.1226 -0.0316
15137W        W31398  14.920   3.814   3.239 -0.0080 -0.1399  0.1481
15138W        W31399   7.851  12.200  14.558 -0.0995  0.0334 -0.0134
15139W        W31400  14.639   9.302  15.355 -0.0239  0.1364  0.1010
15140W        W31401  13.175   8.822  16.313  0.0240  0.0645 -0.0708
15141W        W31402   5.828  12.613  16.044  0.0890 -0.4489  0.0483
15142W        W31403   0.065  14.312   1.197  0.3587 -0.2925  0.1309
15143W        W31404  13.994  15.644   1.874 -0.1422  0.2193 -0.0580
15144W        W31405  12.559  14.799  15.636 -0.2381  0.0282 -0.3338
15145W        W31406   6.301  13.061   1.396 -0.0872 -0.1303 -0.0413
15146W        W31407  11.632   3.392  13.170  0.2441  0.0796  0.0429
15147W        W31408   4.834  12.871  15.224 -0.1608 -0.1449  0.1494
15148W        W31409   4.959  11.355  13.483  0.1649  0.0455  0.2645
15149W        W31410  10.267   1.422   5.602 -0.0114  0.2990  0.0013
15150W        W31411   4.906   8.854   1.976  0.1864  0.0635  0.4532
15151W        W31412  16.121  11.360   1.805 -0.1139 -0.1953 -0.0075
15152W        W31413   4.934   8.760   2.482 -0.2503  0.0320 -0.1218
15153W        W31414  14.073  15.623  15.513 -0.0876  0.1700 -0.1590
15154W        W31415  10.604  12.592  12.255  0.3780 -0.1352 -0.0205
15155W        W31416   9.257  15.158  14.211  0.0047 -0.1117 -0.1302
15156W        W31417   4.216  10.793   2.944  0.0546  0.0118 -0.0633
15157W        W31418   6.376  13.440  13.592 -0.0786  0.2077  0.1472
15158W        W31419  13.246   4.676   5.340 -0.3150  0.4432  0.4538
15159W        W31420   7.767   6.956  16.495  0.0637 -0.0540 -0.1060
15160W        W31421   2.604  16.411   0.138 -0.2280 -0.0985  0.0207
15161W        W31422  17.521   8.690  15.516  0.1272  0.1154  0.0268
15162W        W31423  12.713   5.103  16.429  0.4329  0.1549  0.1547
15163W        W31424   9.706  16.527  14.041 -0.1624  0.1448 -0.0358
15164W        W31425   6.042   1.382  14.309  0.0972 -0.1731  0.0012
15165W        W31426   6.463  17.578  15.573  0.2101  0.0885 -0.0063
15166W        W31427  16.730  14.385  14.188 -0.1685  0.1400 -0.1927
15167W        W31428  13.808   0.433   0.472 -0.0197 -0.4995  0.0246
15168W        W31429  14.687  16.033   0.157  0.0357  0.1214 -0.2266
15169W        W31430   8.468   9.388  11.850 -0.2541  0.2090 -0.1990
15170W        W31431   2.966  14.985  16.411  0.2743  0.0129 -0.1181
15171W        W31432   2.252  14.895   3.483  0.1254  0.0543 -0.1171
15172W        W31433   1.488   8.672   3.068 -0.0087  0.2860  0.1180
15173W        W31434   2.198  14.412  14.978 -0.1477  0.1312  0.1842
15174W        W31435  12.679  17.598   3.223 -0.1353  0.2025  0.1413
15175W        W31436   5.234  11.014   2.049 -0.0354  0.3084 -0.1105
15176W        W31437  13.502  14.191  12.844  0.1159  0.1704 -0.1589
15177W        W31438  10.054  11.164  12.633 -0.2117 -0.0607 -0.4184
15178W        W31439   5.670  17.822   1.058  0.0195 -0.0838  0.1241
15179W        W31440   7.151  14.772  14.216 -0.2896 -0.0685  0.0730
15180W        W31441   6.263  10.930   1.011 -0.1070 -0.1408 -0.1250
15181W        W31442   3.918  11.162   0.181  0.2608  0.0962  0.1157
15182W        W31443  16.003  15.009  11.786  0.0498  0.1890  0.3187
15183W        W31444  11.563   1.137  13.208 -0.4298  0.1878 -0.0146
15184W        W31445  12.056  13.580   2.298  0.1038 -0.3446  0.0692
15185W        W31446   2.144  13.810   3.430  0.3793  0.1444 -0.0002
15186W        W31447   3.888  11.663   0.147 -0.1253  0.0339  0.4828
15187W        W31448  14.464  14.200   1.388 -0.5042 -0.1555 -0.1479
15188W        W31449  16.724  11.033  12.057 -0.0651  0.3132  0.0026
15189W        W31450  16.199  14.593   5.675 -0.1027  0.0738  0.2114
15190W        W31451  13.719  13.229   4.569  0.1673  0.2480  0.0735
15191W        W31452  11.451   5.338   1.568  0.1139  0.2002  0.0370
15192W        W31453   4.330   7.986  12.010  0.2218  0.5263  0.0217
15193W        W31454  17.200  14.922   0.646 -0.2868  0.0757 -0.0925
15194W        W31455  14.254   6.209   6.125 -0.0072  0.2249  0.0599
15195W        W31456  10.039  12.084  11.867  0.1409  0.3365  0.0410
15196W        W31457  17.420  13.095   5.568  0.2598  0.1691  0.0392
15197W        W31458  13.387  17.136   2.737  0.1412 -0.1049 -0.4800
15198W        W31459   9.985   7.040   3.136 -0.0828  0.0627 -0.3262
15199W        W31460   7.955   4.911  14.370  0.2232  0.1518  0.1365
15200W        W31461  13.877   9.976  14.536 -0.3247 -0.0220 -0.1061
15201W        W31462  13.308   4.782  13.580 -0.2036  0.4557 -0.2268
15202W        W31463   8.831  12.021   0.789  0.2544 -0.1799  0.0610
15203W        W31464   5.406  17.687   4.858 -0.0672 -0.2574 -0.1336
15204W        W31465  13.312   5.284  14.984 -0.2865 -0.0710  0.3948
15205W        W31466   1.936   5.722   4.549 -0.2057  0.0774 -0.1624
15206W        W31467   9.789   7.192   1.414 -0.0600  0.0255  0.0576
15207W        W31468  17.256   9.272  12.187 -0.0750 -0.1473  0.0137
15208W        W31469   7.318  16.807   4.836 -0.1206 -0.0279 -0.0730
15209W        W31470  10.557   4.125   0.840 -0.1051 -0.0377  0.1417
15210W        W31471   3.651  12.972   4.296  0.3770  0.0714  0.0123
15211W        W31472  11.893   0.346   5.613  0.1282  0.1560  0.0891
15212W        W31473  12.777  12.867  14.051  0.2197 -0.3155 -0.2189
15213W        W31474  15.672   0.498  11.895  0.1986 -0.1480  0.1300
15214W        W31475  16.266   9.062   4.718  0.0892 -0.0904  0.0478
15215W        W31476   4.571   7.372   2.784 -0.0134  0.2588  0.1604
15216W        W31477  16.027   8.901  16.353 -0.2471 -0.1048  0.1346
15217W        W31478  13.836   1.779  12.045  0.2538  0.2331 -0.0385
15218W        W31479  15.870  12.093  15.395 -0.0581 -0.3026 -0.0469
15219W        W31480   6.728   8.832   3.576  0.0778  0.2883 -0.1981
15220W        W31481  11.042  12.058   4.645 -0.1191  0.1250  0.2968
15221W        W31482  10.449   2.905  15.490  0.1559 -0.0276 -0.0926
15222W        W31483  10.308  11.530   4.920  0.2204 -0.1848  0.0636
15223W        W31484   1.965   0.174  12.113 -0.0490 -0.2811 -0.1572
15224W        W31485   0.248   2.210   2.391 -0.0098  0.2160  0.1692
15225W        W31486  13.095   3.220   3.613  0.1632 -0.1149  0.0869
15226W        W31487  10.657   3.161  13.545  0.0079 -0.1663 -0.1438
15227W        W31488   9.439  13.763  16.059  0.0813 -0.3193 -0.0222
15228W        W31489   2.053  12.901  13.473 -0.1019  0.1450 -0.0505
15229W        W31490  11.303  16.791  11.526  0.1701  0.0108  0.0749
15230W        W31491  15.949   1.596   4.922  0.2164 -0.1998  0.0129
15231W        W31492   5.629   9.881   0.760  0.0957  0.0420  0.2106
15232W        W31493  14.279   2.911  11.734  0.1383 -0.2117 -0.0233
15233W        W31494  14.536  17.661   1.348 -0.0139 -0.2564 -0.1357
15234W        W31495  15.538  12.495  14.018  0.2418 -0.1167 -0.1534
15235W        W31496  15.833   6.690  12.179  0.1715 -0.2462  0.1036
15236W        W31497   2.034  11.261   4.074 -0.0214  0.2497  0.1765
15237W        W31498   0.879  14.832  14.196  0.0378 -0.0350 -0.0499
15238W        W31499   0.158  10.102   0.439 -0.1288 -0.0151 -0.1795
15239W        W31500   9.246   2.286  12.665  0.1183 -0.0468  0.2273
15240W        W31501   9.898   9.701   2.387  0.1941  0.2058 -0.3955
15241W        W31502  16.963   4.458  13.223  0.1802  0.0742 -0.3327
15242W        W31503   4.368   2.790  12.854 -0.2114 -0.2002 -0.3013
15243W        W31504  15.182  16.117  14.737 -0.1194  0.3057  0.1033
15244W        W31505  14.402   5.595  11.684 -0.0799 -0.1514  0.1432
15245W        W31506  13.783  13.810   5.871 -0.1923  0.0103 -0.0352
15246W        W31507   7.276   8.583  14.207 -0.0559  0.0642  0.2402
15247W        W31508   6.251   2.724  16.542  0.1679 -0.0443 -0.2702
15248W        W31509  17.513  13.006   2.281  0.0241 -0.1091 -0.3857
15249W        W31510   4.037  15.747   0.304 -0.3776 -0.2849  0.0996
15250W        W31511  15.076  16.532  13.378  0.0473 -0.2976  0.2153
15251W        W31512   9.951  14.886  16.675  0.0364  0.0853 -0.2843
15252W        W31513   1.195  10.592   1.328 -0.0209 -0.2765 -0.1280
15253W        W31514   8.075  15.994   0.742  0.0939  0.0470  0.1333
15254W        W31515  16.585  17.438   0.909  0.1565  0.0900  0.0612
15255W        W31516  17.351   8.756  14.510  0.1392  0.0616  0.0213
15256W        W31517  14.715   1.218  15.618  0.1040 -0.1416 -0.0573
15257W        W31518  13.392  12.257   1.124  0.1241 -0.1678 -0.4711
15258W        W31519   4.066   1.740   4.800  0.0234 -0.1184  0.4750
15259W        W31520  17.064  12.859   4.881  0.0812  0.0266  0.1227
15260W        W31521  11.076   6.919   0.971  0.0006 -0.0785 -0.1983
15261W        W31522  10.844  17.534   2.761  0.0497  0.2067 -0.0495
15262W        W31523   0.878   5.790  12.343  0.0586  0.0843  0.0056
15263W        W31524  12.379   9.035  11.525 -0.2368 -0.0741  0.0611
15264W        W31525   9.118   2.507   4.706 -0.3791 -0.0930  0.0322
15265W        W31526  13.517  15.459   5.250 -0.0011 -0.0222 -0.5742
15266W        W31527  15.595  11.601   4.461  0.0678 -0.1518 -0.0500
15267W        W31528   2.575   0.340  15.457 -0.1749 -0.2798  0.2248
15268W        W31529  15.687   2.842   5.301  0.1151  0.1046  0.1153
15269W        W31530  15.324   7.018   4.054  0.2888  0.1040 -0.1968
15270W        W31531  14.827  12.086  16.932  0.0629  0.2234 -0.2489
15271W        W31532   4.167   7.643  16.551 -0.0882  0.1368 -0.1931
15272W        W31533   3.001  14.279   3.340 -0.0304 -0.0414  0.3174
15273W        W31534   1.338  13.016   4.367  0.2995 -0.2364 -0.1148
15274W        W31535   3.424   9.537  14.518  0.3417  0.1986 -0.1059
15275W        W31536  17.073   1.897  13.386  0.0486  0.1625  0.0501
15276W        W31537  14.185   5.303   1.199  0.0004 -0.3525 -0.0182
15277W        W31538   0.837   0.279   4.233 -0.0962  0.3598 -0.1752
15278W        W31539   0.044   2.929  13.783 -0.0509 -0.0641  0.0611
15279W        W31540   5.234  10.501  13.424  0.0843  0.3316 -0.2375
15280W        W31541  17.003  12.316  15.585  0.0346 -0.0076 -0.0251
15281W        W31542   6.719   1.155  15.790 -0.4255 -0.0356  0.1418
15282W        W31543   7.687   8.152   6.107  0.0433  0.2360 -0.2383
15283W        W31544  13.849   1.901   1.187 -0.4676  0.1015  0.0826
15284W        W31545   1.581   3.514  16.914  0.0721 -0.3060 -0.0549
15285W        W31546  10.322   1.787   1.634 -0.0310 -0.1616 -0.2463
15286W        W31547   1.595   0.133   4.750  0.0935  0.0901 -0.0585
15287W        W31548  10.471   7.031  12.890 -0.1793  0.4323 -0.1199
15288W        W31549   9.889  13.750  16.961 -0.0560 -0.0356 -0.4239
15289W        W31550  12.251   2.327   1.852 -0.0530  0.0569  0.2512
15290W        W31551  15.912   7.027   1.758 -0.1217  0.1961  0.0262
15291W        W31552   4.372  11.513  15.499  0.0084 -0.2545  0.0303
15292W        W31553   1.341  11.283   0.749  0.0408 -0.3609 -0.2553
15293W        W31554   2.593   0.525   0.289 -0.3642 -0.0523 -0.0231
15294W        W31555   0.338   9.030  16.867  0.1935 -0.0846  0.0071
15295W        W31556   4.493   6.206   0.655 -0.2469  0.0976 -0.0957
15296W        W31557   2.535   7.413  12.469 -0.3550  0.1339  0.0259
15297W        W31558   1.556   6.143  16.107 -0.1965 -0.0208 -0.3589
15298W        W31559   4.467   3.300  15.990  0.1719  0.1801  0.0650
15299W        W31560  13.712   0.601  14.525  0.0592 -0.1127  0.1227
15300W        W31561   5.194  11.714  13.825 -0.2390 -0.1819  0.1869
15301W        W31562   3.742  12.850   2.674 -0.1275 -0.2699  0.2928
15302W        W31563   9.438   4.559   1.493  0.1191 -0.2443 -0.1788
15303W        W31564  12.161  11.887   0.750  0.1500  0.0734  0.1968
15304W        W31565   9.914   3.204   3.830 -0.2603 -0.0146  0.0580
15305W        W31566   7.411   9.013   0.320 -0.0946  0.1947  0.0197
15306W        W31567   2.516   5.409   3.350 -0.1108 -0.2069  0.0100
15307W        W31568  14.078  11.806   6.124 -0.0007 -0.1089  0.2002
15308W        W31569  17.843   4.714   4.337  0.1639 -0.0500 -0.2535
15309W        W31570  13.570  15.245  12.353 -0.2126  0.0791 -0.2028
15310W        W31571  10.416   2.902   2.688  0.6278  0.2418 -0.1665
15311W        W31572  13.682  13.381   2.845  0.0188  0.4031  0.0506
15312W        W31573   6.707   2.372  13.046 -0.1632  0.1812 -0.0086
15313W        W31574  17.195   8.404   2.496 -0.0351 -0.0424  0.1377
15314W        W31575   5.605   4.813   3.786 -0.1199  0.0763  0.0399
15315W        W31576   8.970   5.294   2.006  0.0112  0.2013 -0.0849
15316W        W31577   0.988   8.681   5.049  0.0068  0.0968 -0.0621
15317W        W31578   9.138  11.929   4.095  0.2218 -0.0356 -0.0027
15318W        W31579   2.766  12.767  13.389  0.3906  0.1461  0.0758
15319W        W31580   9.569  12.155   5.248  0.1441 -0.0847  0.3681
15320W        W31581  13.509  16.504  12.109  0.1717  0.1183 -0.1301
15321W        W31582  16.611  12.755  16.871 -0.1425  0.2005 -0.1818
15322W        W31583   5.421   3.386   4.875  0.0299 -0.1715 -0.0840
15323W        W31584  15.281  13.459  13.644  0.0755 -0.4484  0.2765
15324W        W31585   4.593  11.305  14.491  0.1019  0.1345 -0.1405
15325W        W31586   8.821  12.524   0.624  0.2828 -0.2746 -0.4156
15326W        W31587  14.463  14.523   4.456 -0.0991  0.1080 -0.1543
15327W        W31588  13.625   4.896   0.371  0.0676 -0.2058 -0.3303
15328W        W31589  10.587   1.310   6.420 -0.1847 -0.0014 -0.1015
15329W        W31590   4.996   4.240   1.405 -0.2643  0.1216  0.0293
15330W        W31591  15.049   7.321  16.423  0.2102 -0.1722  0.1372
15331W        W31592  16.337  16.532  16.563  0.1442  0.1716  0.1122
15332W        W31593  10.924  14.017   1.488  0.1785 -0.0907 -0.0377
15333W        W31594   9.762  13.520  16.443  0.1162 -0.0424 -0.1040
15334W        W31595   1.328   6.497  13.344 -0.2086 -0.0989  0.3169
15335W        W31596   0.765   8.200   4.758 -0.0295 -0.0627 -0.0031
15336W        W31597  12.369   2.112   6.149 -0.0701  0.0953 -0.3237
15337W        W31598   3.053   9.838  14.346  0.0610 -0.0277 -0.3743
15338W        W31599   3.005   3.661   3.434  0.0544  0.2782 -0.0474
15339W        W31600  17.231  11.230   2.931  0.0047 -0.1626 -0.2547
15340W        W31601  15.188   7.250   4.631 -0.1489 -0.0323 -0.0010
15341W        W31602   3.524  15.714   3.614  0.1176 -0.1393 -0.1651
15342W        W31603   5.761  14.860   4.129  0.0173  0.1219  0.0670
15343W        W31604  13.281  16.285   0.068  0.2654  0.1311 -0.2245
15344W        W31605  17.752   2.717  14.300  0.0478 -0.2862  0.1090
15345W        W31606   2.126   9.074   1.901 -0.3697  0.0215 -0.1643
15346W        W31607  17.180  14.390  12.111  0.1265  0.1829  0.0885
15347W        W31608  11.832  17.703   5.346  0.1100  0.0441 -0.2922
15348W        W31609   8.759   5.398  15.067 -0.1765 -0.1232  0.2229
15349W        W31610  12.662   4.021  14.719 -0.2225  0.2129  0.0201
15350W        W31611   4.455  11.852   4.467  0.1779  0.2786 -0.0255
15351W        W31612  12.502   2.146   2.993 -0.2673 -0.1933  0.0403
15352W        W31613   3.717   7.414  12.818 -0.1971 -0.2488  0.0860
15353W        W31614   9.198   7.984   4.630 -0.0867 -0.1078 -0.2074
15354W        W31615   9.042   9.441   4.663 -0.0262  0.0486 -0.1896
15355W        W31616   6.011   5.174  13.957  0.1642 -0.0972 -0.3580
15356W        W31617  16.897  15.218  10.635  0.3104  0.2162 -0.0920
15357W        W31618   1.879   3.036  11.541  0.2038 -0.0869 -0.1295
15358W        W31619   4.618  12.744   2.415 -0.0737 -0.2925 -0.1947
15359W        W31620  10.904   1.768  16.630 -0.0309  0.0976 -0.1101
15360W        W31621  15.636  15.526   3.909  0.2148  0.3832 -0.0457
15361W        W31622   7.892   5.992   3.099  0.0081 -0.3493  0.1949
15362W        W31623  15.927   0.651   0.606 -0.2930  0.0744 -0.0390
15363W        W31624   6.916   3.798   0.176 -0.1709  0.0144 -0.2109
15364W        W31625  15.462   2.454   3.611 -0.0688 -0.2467 -0.1978
15365W        W31626   8.620   3.980  12.001 -0.1353 -0.1069 -0.0681
15366W        W31627  13.813  11.566  15.399 -0.0732  0.0261 -0.4665
15367W        W31628  15.455   8.436   3.966 -0.0189  0.1198 -0.0061
15368W        W31629   2.989  15.754  12.011 -0.0271 -0.0627  0.0192
15369W        W31630   8.107  14.238  11.878 -0.2577  0.0198  0.0867
15370W        W31631   7.404   1.615   0.722  0.0395  0.1466  0.2022
15371W        W31632   5.033   1.300   0.902  0.1104 -0.0474  0.1796
15372W        W31633  13.980   0.219  14.134  0.2491  0.0492 -0.2134
15373W        W31634   7.327   4.284   4.052  0.1640  0.2408  0.0702
15374W        W31635   9.558   9.950   0.676  0.2300  0.1629 -0.0659
15375W        W31636  15.638   7.097   2.451 -0.2273 -0.2271  0.0469
15376W        W31637   5.141  16.511   3.990 -0.1280  0.3605  0.0626
15377W        W31638   0.074   6.771  15.722 -0.3935 -0.0333  0.2433
15378W        W31639   3.484  10.207  13.696  0.0929  0.2566  0.2781
15379W        W31640   5.448   6.311   0.624 -0.0880  0.3391  0.0088
15380W        W31641  14.923   1.745  15.069  0.1171 -0.0708 -0.2054
15381W        W31642  15.319  14.321   0.043  0.1477 -0.0628  0.1542
15382W        W31643   6.608  17.114   1.706  0.0264 -0.1493 -0.0775
15383W        W31644  14.899   1.709  11.200 -0.0198 -0.2653 -0.0369
15384W        W31645  13.171   4.059   0.994  0.0658  0.2827 -0.1700
15385W        W31646  14.779   9.970   1.365 -0.0350  0.0405  0.3506
15386W        W31647  14.624   4.889  13.323  0.0007  0.3882  0.2269
15387W        W31648   2.375  13.472  13.966  0.2083 -0.1232 -0.1966
15388W        W31649   1.477   4.921   2.236  0.0939  0.0539 -0.0967
15389W        W31650  14.651   2.742  14.683  0.1634  0.2436 -0.0053
15390W        W31651   0.687  10.996   0.103  0.4061 -0.1669  0.0614
15391W        W31652  17.511  17.782   4.953 -0.0914  0.2418  0.0361
15392W        W31653   2.427   7.584   1.172 -0.2358  0.2318  0.0661
15393W        W31654  14.185   8.860  11.745 -0.1269 -0.2849 -0.2395
15394W        W31655   3.272  14.768  14.489 -0.3147  0.1660 -0.1114
15395W        W31656  11.245   3.970   3.355 -0.3419  0.0998  0.0047
15396W        W31657   0.653   2.364  15.943  0.1763  0.0392  0.1500
15397W        W31658   7.686   1.474  13.417  0.1016 -0.0850 -0.1044
15398W        W31659   7.642   6.003   2.684 -0.0185 -0.1755  0.1390
15399W        W31660   1.444   3.453  16.406 -0.2184  0.0170  0.4790
15400W        W31661  13.211  12.409   2.841  0.2379  0.1129  0.1639
15401W        W31662   4.999  16.934  15.323  0.1959 -0.2308 -0.1140
15402W        W31663   3.303   7.498  13.124  0.0627  0.4167 -0.2022
15403W        W31664   4.391  11.630  12.779 -0.0169  0.0558  0.0807
15404W        W31665  13.388   7.300   1.744  0.2478  0.1901  0.2326
15405W        W31666   9.685   9.415  15.099 -0.0003  0.2529 -0.0152
15406W        W31667   1.075  11.847  13.744 -0.0462 -0.3250  0.2960
15407W        W31668  10.419   6.441  13.693 -0.1130  0.1692  0.1797
15408W        W31669   2.373  16.528   1.542  0.0444 -0.0902 -0.0194
15409W        W31670  16.777  10.366   2.224 -0.0885  0.1694 -0.0375
15410W        W31671   0.495   2.634  15.499 -0.1386 -0.1788 -0.0179
15411W        W31672   8.922   2.935   0.190 -0.4315 -0.0474 -0.1296
15412W        W31673   3.087  17.100  13.354 -0.0969 -0.0894  0.0480
15413W        W31674   7.893  12.330   2.114 -0.3091 -0.0744 -0.4811
15414W        W31675  14.638   9.184   2.821 -0.0231  0.1345 -0.1036
15415W        W31676   8.343  15.403  15.537  0.2812 -0.0204  0.1533
15416W        W31677  12.109  10.062  15.195 -0.1318  0.1020 -0.2168
15417W        W31678   8.277  10.880   1.277  0.2869  0.0317 -0.0749
15418W        W31679   2.615   2.406   0.067 -0.0754 -0.0782 -0.2151
15419W        W31680  15.446  15.353   4.552  0.0898 -0.0236  0.0462
15420W        W31681  10.527  14.882  16.091 -0.0630 -0.1298  0.0209
15421W        W31682   4.124   7.274  16.232 -0.3056  0.0956 -0.0237
15422W        W31683  12.100   1.021  13.999 -0.2149  0.0546  0.2310
15423W        W31684  16.026  15.271   1.006 -0.1524  0.1503 -0.1794
15424W        W31685  12.186  12.838  15.284  0.2298 -0.0898  0.1314
15425W        W31686   8.391  12.865   4.025 -0.0388  0.1303 -0.0982
15426W        W31687   0.227  15.154   5.363 -0.0616  0.0096  0.0745
15427W        W31688   7.717   8.437   3.176 -0.3846  0.0582 -0.1298
15428W        W31689   5.167   2.446   0.182  0.2004 -0.2460 -0.1549
15429W        W31690   6.448  15.549  16.360 -0.1427 -0.2595  0.1632
15430W        W31691  12.392  12.334   2.976  0.2004  0.0102  0.1016
15431W        W31692  13.338   4.538   4.078  0.0090 -0.2404 -0.2006
15432W        W31693  13.792   7.762   1.618  0.0161 -0.1574 -0.2568
15433W        W31694  17.490   1.057  14.926 -0.2519 -0.4742 -0.1619
15434W        W31695  16.921  12.151  12.862 -0.3556 -0.3956 -0.4855
15435W        W31696  10.571   4.665   2.278 -0.0959  0.2007 -0.0291
15436W        W31697  11.650   0.971  12.245 -0.0191 -0.0085  0.1435
15437W        W31698   8.557  16.485  16.357  0.1279 -0.0868 -0.1345
15438W        W31699   9.959   1.948   3.268  0.1906 -0.1513  0.0919
15439W        W31700   3.100   9.899  16.344 -0.0969 -0.0600 -0.0770
15440W        W31701  11.134   8.384   2.316 -0.0664  0.0704 -0.0596
15441W        W31702   3.187  14.548  12.373  0.1889 -0.1025  0.1448
15442W        W31703  11.936  13.209   3.225 -0.0533  0.1781 -0.0580
15443W        W31704   4.850   8.073  16.260  0.1306  0.0897  0.0077
15444W        W31705  10.109  13.599   3.496  0.1597  0.0903 -0.1192
15445W        W31706   0.211   2.636   4.202  0.0932  0.2467  0.3065
15446W        W31707   5.087   9.453   3.210  0.2101 -0.0386 -0.0831
15447W        W31708   3.199   7.213   0.884  0.1846 -0.2132  0.0051
15448W        W31709  10.057   7.209   2.267 -0.1598  0.4225 -0.0270
15449W        W31710  17.629  10.375   5.287  0.1796 -0.0596  0.0468
15450W        W31711   0.799   6.272   1.859  0.1307  0.3468 -0.2226
15451W        W31712   4.107   3.692  14.258  0.0149  0.0414  0.0463
15452W        W31713   7.562   9.740  15.850 -0.1121  0.0326 -0.0697
15453W        W31714   1.675   1.732  11.894 -0.0553 -0.2478 -0.1596
15454W        W31715   7.424  14.513   0.685 -0.0476 -0.0057  0.1440
15455W        W31716   4.571   5.776  14.989  0.0387 -0.1787 -0.0577
15456W        W31717  13.312  17.448   5.456 -0.0018  0.0725  0.2228
15457W        W31718  14.374   8.864   1.136  0.0035  0.0625  0.0104
15458W        W31719  11.571   2.526  11.465 -0.1861 -0.0878 -0.0305
15459W        W31720  11.355   7.764   4.771 -0.1207 -0.0172 -0.1225
15460W        W31721  16.103   2.693   2.920 -0.1786  0.2323  0.2808
15461W        W31722  13.847   0.172   2.579 -0.0494  0.1314 -0.3243
15462W        W31723   2.568   2.381  13.005 -0.1853 -0.2559  0.2105
15463W        W31724  10.449   4.980  14.875 -0.1928  0.0061  0.0263
15464W        W31725  11.134  12.616   4.673  0.0373  0.1504  0.0560
15465W        W31726  10.533  17.504  15.933 -0.0870  0.0259 -0.1371
15466W        W31727   6.049  13.770  12.377  0.2090 -0.1721  0.1842
15467W        W31728   5.124  10.026  13.682 -0.1586 -0.0280  0.0124
15468W        W31729  16.859   3.532   3.320  0.1760 -0.0709  0.0762
15469W        W31730  15.054   3.525  14.810  0.3144  0.0278 -0.0002
15470W        W31731  17.481   6.253   2.604  0.1505  0.3618 -0.0934
15471W        W31732   3.883  10.501  15.457 -0.2903 -0.1429 -0.2005
15472W        W31733  12.693   5.565  14.382  0.1665  0.1368 -0.0380
15473W        W31734  13.957   6.956   4.551  0.1134  0.2952 -0.0742
15474W        W31735   5.366  11.593  16.286 -0.2719  0.2238 -0.0142
15475W        W31736   0.081   9.518   0.402  0.4381 -0.0492  0.1682
15476W        W31737  12.315  15.721   2.520  0.0158  0.0890 -0.0127
15477W        W31738   3.693  10.877   4.219  0.0061 -0.0849  0.0728
15478W        W31739   5.864   0.541  15.925  0.0533  0.1695  0.0353
15479W        W31740  11.774   0.420   1.120 -0.3414 -0.2555  0.3724
15480W        W31741   0.015   4.791   2.693 -0.2801 -0.0720 -0.1420
15481W        W31742   3.775  16.582  16.194 -0.0148 -0.0100  0.0097
15482W        W31743   8.397  13.285   4.343  0.0532  0.1804 -0.1603
15483W        W31744   6.922   1.713  16.104 -0.1335  0.2690 -0.0677
15484W        W31745   0.679  14.078  16.262 -0.1147  0.1314  0.0547
15485W        W31746   9.751  13.247   2.431 -0.1260  0.0786 -0.0132
15486W        W31747   3.109  17.634   0.681 -0.0402  0.0740 -0.2362
15487W        W31748   4.990   4.409   5.481 -0.1771 -0.1661 -0.3242
15488W        W31749   4.928  14.615  14.154  0.3462 -0.0399 -0.2750
15489W        W31750  11.112   5.647   0.130 -0.0261  0.3215  0.2425
15490W        W31751  17.186   0.808   5.479 -0.1164  0.4254  0.1094
15491W        W31752  15.004  17.450  13.318  0.1072 -0.2827 -0.0744
15492W        W31753   2.627   5.190   1.513 -0.1408  0.4153 -0.0873
15493W        W31754   0.809   6.861   0.662 -0.0496 -0.0493  0.0950
15494W        W31755   0.289  15.522  15.240 -0.0078 -0.1926 -0.0102
15495W        W31756  13.085   1.688  16.377 -0.2179 -0.2129 -0.1500
15496W        W31757   5.697   4.390   4.154 -0.0478 -0.0370  0.1683
15497W        W31758  15.777  11.608  12.433 -0.3015  0.3710 -0.2305
15498W        W31759   2.700  10.862   5.044  0.1855  0.0208  0.1204
15499W        W31760   9.230  11.405   3.692 -0.2596 -0.1176 -0.2009
15500W        W31761  17.429   9.674  13.454 -0.1203  0.0743  0.0906
15501W        W31762   9.193   7.022  13.589  0.0586 -0.1610 -0.3566
15502W        W31763   5.594  15.563  15.004  0.2625  0.2837 -0.5167
15503W        W31764   2.668  14.653  14.689 -0.1885 -0.1176  0.1500
15504W        W31765   7.965   2.607  16.419  0.0831 -0.1502 -0.2689
15505W        W31766  10.086  10.696  15.906  0.0488  0.2774 -0.0968
15506W        W31767  12.776  13.617   2.666  0.0294  0.2240  0.0538
15507W        W31768   8.203   5.769   1.520 -0.2183 -0.1070 -0.1691
15508W        W31769   5.592   7.561  16.373 -0.3181 -0.1085 -0.1528
15509W        W31770   1.473   5.081  16.886 -0.1065 -0.0933  0.1928
15510W        W31771   4.112  10.695   0.355 -0.2637  0.0347  0.0095
15511W        W31772  12.595   2.943   3.062 -0.0637 -0.0808 -0.4381
15512W        W31773  10.123   8.967  15.960 -0.2187  0.2547  0.0188
15513W        W31774   2.756  12.195   0.762  0.0194  0.1597 -0.1760
15514W        W31775   7.310   7.875  15.028  0.1223  0.3263  0.0449
15515W        W31776  15.907   3.257  13.053 -0.2209 -0.1734  0.1082
15516W        W31777   9.179   3.033   3.452 -0.1927 -0.2133  0.2286
15517W        W31778   5.735   0.219   4.206 -0.0112  0.0494  0.0211
15518W        W31779   7.024  16.162  12.638 -0.0382 -0.2065  0.1919
15519W        W31780   5.370  14.708   0.518 -0.1526  0.2304 -0.1737
15520W        W31781   8.366  13.084   4.948  0.1593  0.1917  0.0685
15521W        W31782   4.129   5.159   2.359  0.0938 -0.0127 -0.1571
15522W        W31783   3.355   0.221  12.350  0.0767  0.0464  0.0917
15523W        W31784   2.604   7.401  14.928  0.1362  0.3932 -0.1494
15524W        W31785  10.286   4.665   4.538  0.5330  0.1042 -0.0179
15525W        W31786  13.672  15.465   1.489  0.2759  0.1643  0.1687
15526W        W31787   4.038   1.248   5.003  0.1404  0.1967 -0.1143
15527W        W31788   6.777   6.397  16.351 -0.0513 -0.4314 -0.2621
15528W        W31789   3.336  10.409  14.371  0.1209  0.1036 -0.1370
15529W        W31790   5.809  14.835  14.231  0.0655 -0.4090 -0.1356
15530W        W31791  10.129   1.283  15.370 -0.2287 -0.1332  0.3324
15531W        W31792   0.111  10.772   5.489  0.0456 -0.1719  0.0357
15532W        W31793   2.691   4.108  13.458  0.2632 -0.1051 -0.0191
15533W        W31794  11.797   9.745  13.319 -0.0915  0.1547  0.2000
15534W        W31795   6.710   4.040   2.485  0.4072  0.0094 -0.1106
15535W        W31796   0.741   8.143   3.392  0.0064  0.0238  0.0003
15536W        W31797  12.014  16.131  15.003 -0.1587  0.1431 -0.1558
15537W        W31798   2.375  13.247   3.030  0.0583 -0.0943  0.4075
15538W        W31799   0.028   1.469   0.828  0.0737 -0.1280 -0.4757
15539W        W31800  12.279   6.277   4.341  0.1332  0.3979  0.1624
15540W        W31801   2.034  16.861   1.752 -0.0523 -0.0398  0.2503
15541W        W31802   7.493  17.495   3.025 -0.0082 -0.0186 -0.2858
15542W        W31803  14.747   9.863  16.251 -0.0518 -0.2512 -0.0683
15543W        W31804   8.441  11.528  14.177  0.2002 -0.1484 -0.0766
15544W        W31805  11.901   2.869  12.694 -0.1675 -0.0887 -0.5154
15545W        W31806   6.730  10.032  11.852  0.2192  0.1771 -0.3139
15546W        W31807   0.932   8.413  14.558 -0.0927 -0.1325 -0.2289
15547W        W31808  17.039  12.845  14.226 -0.1944 -0.0402 -0.1226
15548W        W31809   8.706   5.068  16.280 -0.2095  0.0967 -0.1453
15549W        W31810   0.645  11.089  13.000  0.0378  0.2444 -0.0975
15550W        W31811   2.322   9.824   4.986 -0.1762 -0.1345 -0.0535
15551W        W31812   2.249  13.602   1.146 -0.0626  0.0449  0.4076
15552W        W31813   3.397  16.710  13.629 -0.0508 -0.0953  0.3913
15553W        W31814  11.603   4.488  12.657 -0.1847 -0.1625 -0.0690
15554W        W31815  11.027  16.373   1.063 -0.0255 -0.1023  0.3306
15555W        W31816  14.786  10.736   3.759  0.0718 -0.0270 -0.1895
15556W        W31817   5.890  17.437  14.043 -0.0283 -0.1328 -0.2325
15557W        W31818   5.740  10.772   4.379 -0.0025 -0.1470  0.0715
15558W        W31819  14.023   7.463   5.613  0.0951  0.1432 -0.5139
15559W        W31820  15.035   3.424  14.112  0.1524 -0.0547 -0.2288
15560W        W31821   3.325  10.428   0.392  0.0285  0.0151  0.4179
15561W        W31822  14.620  14.546   3.907 -0.0420 -0.0636 -0.2587
15562W        W31823  16.649   4.974   1.167  0.0153  0.2074 -0.2713
15563W        W31824  11.047   3.087   3.836 -0.0157  0.0240 -0.1254
15564W        W31825   5.129   8.757  16.897  0.1297 -0.2656  0.1799
15565W        W31826   0.571   4.883  15.806 -0.0754 -0.0952  0.0439
15566W        W31827  16.648   9.009  16.072 -0.2371  0.0305 -0.1006
15567W        W31828   2.825  11.279   3.980 -0.0446  0.1830  0.2858
15568W        W31829   0.686  17.293   0.401 -0.2248  0.2144 -0.1340
15569W        W31830   8.688   7.107   4.689 -0.2272 -0.0354  0.2085
15570W        W31831   2.717   1.054  11.338 -0.0363 -0.0748 -0.0492
15571W        W31832  17.637  11.051   3.723  0.0161 -0.1096  0.0795
15572W        W31833  12.636   0.599   3.788  0.0539 -0.6368 -0.0508
15573W        W31834   4.023  12.815   0.952 -0.0752 -0.2118 -0.0888
15574W        W31835   4.792  15.094  14.370 -0.2975 -0.0805 -0.3089
15575W        W31836   3.488   1.312  13.693  0.1654 -0.0634  0.1752
15576W        W31837  14.897   1.863   3.120 -0.2641  0.1267  0.0882
15577W        W31838  13.097  10.969   4.315  0.1782 -0.2076 -0.4147
15578W        W31839  14.958  10.732  14.871  0.2055 -0.0511  0.0028
15579W        W31840  16.339  16.432   5.050  0.0647  0.2217 -0.0982
15580W        W31841  12.838   7.244  15.329  0.2145 -0.0571 -0.0746
15581W        W31842   4.764  16.507  14.442 -0.1050  0.2084 -0.1155
15582W        W31843  15.509   2.180  16.958  0.1021  0.1165 -0.4698
15583W        W31844   7.365   6.826   4.913  0.3232  0.1423 -0.0955
15584W        W31845   6.974   1.802   1.452 -0.0310  0.2339  0.2333
15585W        W31846  14.211  16.684   4.086 -0.2370 -0.0387  0.0086
15586W        W31847   2.381   3.112   3.184  0.1311  0.0916 -0.0387
15587W        W31848  12.293  16.751   0.747  0.0082  0.0015 -0.1312
15588W        W31849   8.280   7.422   4.590 -0.0293  0.3618  0.0703
15589W        W31850   6.899  13.898  12.597  0.3825 -0.1735 -0.1839
15590W        W31851   4.384  13.716   1.694 -0.0391  0.2334 -0.0420
15591W        W31852  17.778   5.610  15.609  0.0036 -0.0325  0.1421
15592W        W31853  12.967  14.902  13.848  0.2415 -0.3374  0.1074
15593W        W31854   5.066   9.430  14.415  0.3979  0.1287  0.1859
15594W        W31855   6.008   3.729   1.301 -0.1650 -0.1076 -0.0751
15595W        W31856   3.669   8.143  14.090  0.0463 -0.2965 -0.0819
15596W        W31857   0.650   9.104   5.225  0.0033 -0.1255  0.1989
15597W        W31858   3.131   4.117  14.493  0.0635 -0.0010 -0.0068
15598W        W31859  12.325   3.129  12.608  0.3994 -0.1702  0.1610
15599W        W31860  16.515   0.461   4.239 -0.0634  0.2320  0.2492
15600W        W31861   3.241  15.171  13.229  0.0679 -0.0105 -0.3541
15601W        W31862   6.833  14.991   0.375  0.0692  0.0376 -0.1266
15602W        W31863   9.687  17.278  16.901 -0.1289 -0.0688 -0.0764
15603W        W31864  10.730   5.405   2.053 -0.1331 -0.2842 -0.1001
15604W        W31865  14.674  10.917  16.947 -0.0946  0.3130  0.0232
15605W        W31866   3.322  12.884   2.338 -0.2375  0.2134  0.5777
15606W        W31867  10.906  17.803   1.655 -0.0116 -0.0946 -0.0568
15607W        W31868   8.552   8.702  14.245 -0.0588  0.1741 -0.0126
15608W        W31869   5.720   3.547  15.238  0.0872  0.0313  0.2239
15609W        W31870  15.176   8.119   4.871 -0.3178  0.0514  0.1574
15610W        W31871   2.545   3.147   5.841  0.0826 -0.0566  0.1114
15611W        W31872  11.165   1.261   4.589  0.0801  0.0609 -0.0655
15612W        W31873   5.732  15.733   4.671 -0.2095  0.1696 -0.2060
15613W        W31874  16.545   0.591  13.412  0.0371  0.0264 -0.0758
15614W        W31875  16.257   7.188  14.036 -0.1664 -0.1422  0.0236
15615W        W31876  12.091  12.482   4.365 -0.1750 -0.0537  0.1374
15616W        W31877   2.505   3.981   6.382  0.0259  0.1941  0.0069
15617W        W31878  16.939  17.051   4.854  0.1429 -0.2634  0.1500
15618W        W31879  14.950   9.372   3.933 -0.5492 -0.0601 -0.0309
15619W        W31880  16.814  12.213   5.445  0.0479  0.1352  0.1743
15620W        W31881   2.688   5.921  16.175 -0.1166  0.0612  0.0006
15621W        W31882  12.925   7.004   1.131 -0.1471  0.1757 -0.2933
15622W        W31883   8.736  11.885   4.560  0.2033  0.1570 -0.2935
15623W        W31884  15.583   6.236  12.110  0.2890 -0.0188  0.1646
15624W        W31885  17.583   5.082   5.397 -0.0191  0.0650  0.0354
15625W        W31886   2.829   1.234  16.843  0.0670  0.0530 -0.4491
15626W        W31887  16.515   1.463   0.994  0.0910  0.0532  0.0461
15627W        W31888   4.886   6.773  13.746  0.2073  0.0697 -0.4064
15628W        W31889  15.631   5.346  13.004 -0.2165  0.0114 -0.1132
15629W        W31890  15.885   2.581   3.429  0.2103 -0.1628 -0.1690
15630W        W31891  15.384   7.562  12.983 -0.0202 -0.0496 -0.0194
15631W        W31892  13.600  13.482  15.930 -0.0124  0.1080 -0.1491
15632W        W31893  17.186  12.555  12.573 -0.1517  0.1504 -0.0695
15633W        W31894   0.765  10.447   5.908 -0.0927 -0.2380  0.1451
15634W        W31895  13.538  11.434  12.275  0.2394 -0.1002 -0.0895
15635W        W31896  11.904   2.189  13.295 -0.1724  0.0273  0.0915
15636W        W31897   3.448   1.334  12.439  0.0496 -0.3914  0.1347
15637W        W31898   3.640   0.818   4.455  0.0674  0.0277 -0.1328
15638W        W31899   9.521  17.735  14.912 -0.0083  0.3041  0.1946
15639W        W31900   3.909   8.745  13.408 -0.0985  0.1749 -0.1354
15640W        W31901  16.542  12.758   5.050 -0.5823 -0.2701  0.1326
15641W        W31902  15.045  14.978   0.503  0.0637  0.1275  0.5847
15642W        W31903  13.939   5.456  16.330  0.0568 -0.2186  0.3348
15643W        W31904  16.773  12.625   3.630  0.1554  0.0599 -0.1436
15644W        W31905   9.542  10.142   0.142  0.1146 -0.0800 -0.2968
15645W        W31906   4.263  14.984   4.368  0.0374 -0.0359 -0.1004
15646W        W31907   1.820  11.476   0.963 -0.1835  0.0813 -0.1697
15647W        W31908  10.809   0.819  13.634 -0.3202  0.2701  0.0645
15648W        W31909  12.911  13.502   3.481 -0.2773  0.0266 -0.0200
15649W        W31910   8.353  17.297  11.398  0.0842 -0.0619 -0.0643
15650W        W31911   1.675   1.271   4.630 -0.3417 -0.0702 -0.3000
15651W        W31912  17.010   4.857  15.374  0.1413 -0.0123  0.1522
15652W        W31913   7.411  13.657  16.089  0.0776 -0.3103  0.1516
15653W        W31914  14.293  14.642  14.126  0.0531  0.0661 -0.1859
15654W        W31915   4.308  12.332   2.489 -0.3814 -0.0807  0.0620
15655W        W31916   8.596   2.938   4.629  0.0391 -0.0525  0.2776
15656W        W31917  10.892  17.399  12.935  0.2334 -0.1234 -0.2360
15657W        W31918  14.091  15.363  12.455  0.2788 -0.1041  0.1303
15658W        W31919   9.116   9.565  15.069  0.0107  0.0816 -0.2518
15659W        W31920  13.132  14.674   4.244 -0.0371  0.3375 -0.0172
15660W        W31921   3.683  14.337   4.875 -0.1901  0.3612  0.3164
15661W        W31922   8.916   4.579  14.198 -0.1871  0.1284 -0.1522
15662W        W31923  14.388   6.635  12.875 -0.1401 -0.0678 -0.2030
15663W        W31924   5.769  17.452  15.675  0.2652  0.0039  0.0883
15664W        W31925  12.760  10.552  16.386  0.2215 -0.0706 -0.1229
15665W        W31926   4.373   7.619   0.053 -0.2904  0.2546  0.1550
15666W        W31927   6.172   4.580   4.106  0.0299  0.0422  0.2463
15667W        W31928   9.008  17.683  12.032 -0.1987 -0.1274  0.0329
15668W        W31929   6.156  14.421   3.417 -0.1082  0.2277 -0.0598
15669W        W31930  17.740   0.186   5.253 -0.1607  0.1669 -0.1806
15670W        W31931   0.770  17.533  15.690 -0.0622 -0.0040  0.0154
15671W        W31932  16.550  15.414  16.253 -0.0633  0.3300  0.0248
15672W        W31933   6.266   8.821   1.797 -0.1230  0.4681  0.0526
15673W        W31934  11.856   0.645   1.588 -0.0726 -0.2272 -0.1340
15674W        W31935  14.998   5.065   1.135  0.1644 -0.1564  0.1294
15675W        W31936   4.215   9.380  11.234 -0.0373  0.2618  0.4964
15676W        W31937  10.784  15.951  14.586 -0.1734 -0.0203 -0.1964
15677W        W31938   0.292   5.872   3.492 -0.3065 -0.1421  0.2366
15678W        W31939   7.147   8.358  15.562  0.0872  0.0746 -0.2432
15679W        W31940   4.494   8.892  13.908 -0.0620  0.4141  0.2962
15680W        W31941   9.751   7.653  13.832  0.1456  0.0197 -0.0170
15681W        W31942  14.764  11.521  12.243 -0.0826 -0.0484 -0.1483
15682W        W31943   1.240  16.131  13.911  0.3611  0.0433  0.1051
15683W        W31944   6.317  10.803   0.383 -0.1232 -0.0852  0.4029
15684W        W31945   6.898   9.395   1.471  0.2085  0.0280 -0.0044
15685W        W31946   4.708  12.959   0.013 -0.1286 -0.0915 -0.1871
15686W        W31947   5.839   9.857  13.172  0.0835  0.2540 -0.0500
15687W        W31948   9.989   1.883  12.357 -0.1288  0.0701  0.0236
15688W        W31949  10.380   4.662  13.431  0.0152 -0.2232  0.0750
15689W        W31950  10.368   4.235  13.745  0.0401 -0.1992 -0.1914
15690W        W31951   2.673   4.779  12.136  0.1332 -0.1288  0.1566
15691W        W31952   6.935   8.467  13.021  0.0437  0.4001 -0.2967
15692W        W31953  16.202  11.775  13.999  0.0490 -0.0173  0.0877
15693W        W31954  13.032  14.224   0.206  0.0377  0.2595  0.1822
15694W        W31955   7.788  14.425   3.573  0.2602 -0.0802  0.0638
15695W        W31956  12.671   8.466  12.523 -0.1242  0.1100 -0.2426
15696W        W31957  17.645  13.156   0.042 -0.0888  0.0013 -0.0333
15697W        W31958  12.276   8.877   3.801 -0.0807  0.1894  0.1488
15698W        W31959  11.043  10.514   4.953 -0.1206  0.1576  0.0020
15699W        W31960   2.901   0.882  11.871  0.1160  0.2019 -0.1484
15700W        W31961  12.174  11.483  16.044 -0.0774 -0.2134  0.5202
15701W        W31962   4.214  12.179  15.475 -0.1795 -0.1815  0.2565
15702W        W31963   6.223  12.381   1.919 -0.0617  0.1746  0.0348
15703W        W31964   0.565   1.592   4.238 -0.2933 -0.2749  0.1636
15704W        W31965  12.588  10.218  15.510  0.0438  0.1635  0.0535
15705W        W31966   5.762  16.695   0.424 -0.0253 -0.0469 -0.1399
15706W        W31967  13.444  16.416   3.824  0.1717  0.1512  0.2136
15707W        W31968  14.570  16.566  12.270 -0.0218 -0.0680 -0.1487
15708W        W31969   8.601   0.797   4.363 -0.1309 -0.1226 -0.1477
15709W        W31970   9.970   6.230  15.405 -0.3857  0.5361 -0.0466
15710W        W31971   6.651   2.978   4.899  0.0334 -0.0057  0.0892
15711W        W31972   3.691   1.007  16.251 -0.0731  0.0672 -0.0191
15712W        W31973   8.278   7.140  12.107  0.0977  0.1422  0.0985
15713W        W31974  10.039  10.678   4.467 -0.0832 -0.1061 -0.1715
15714W        W31975  11.504  17.438   4.917 -0.2543  0.0096 -0.0332
15715W        W31976  11.339   4.492   3.059  0.0451  0.2467 -0.0408
15716W        W31977   9.430  15.095  12.876  0.1136  0.0388 -0.0263
15717W        W31978  12.457   4.310   4.039 -0.2085 -0.1997 -0.1607
15718W        W31979   1.799  11.051   0.718  0.0435 -0.0132  0.1853
15719W        W31980  13.389  15.657   4.657 -0.2478 -0.1978 -0.0146
15720W        W31981   2.296   4.647   5.344 -0.0183  0.0199  0.1107
15721W        W31982   6.894   9.032  16.409  0.1777  0.4652  0.3833
15722W        W31983   2.468   4.481  13.190  0.4186 -0.2753  0.1765
15723W        W31984  15.189   1.410   2.174  0.0925 -0.1732 -0.0566
15724W        W31985   0.546  12.768   2.525  0.3762  0.1597  0.1928
15725W        W31986  10.300  16.671   6.169 -0.2634 -0.1533  0.0701
15726W        W31987  10.462  15.734   1.575 -0.2079 -0.1327 -0.0844
15727W        W31988  14.942   4.245  11.578  0.0238  0.1970  0.2113
15728W        W31989   2.625   4.455  13.873 -0.1090  0.6205 -0.1301
15729W        W31990  11.674   9.830  14.956  0.1679  0.1979 -0.2310
15730W        W31991  11.672  16.667   1.320  0.1127  0.2205  0.0062
15731W        W31992  15.108   3.268   4.823 -0.2618  0.1933  0.2280
15732W        W31993  14.018   1.557   3.091  0.2768 -0.0949 -0.0541
15733W        W31994   5.850  13.535   2.009  0.3034  0.1539 -0.0653
15734W        W31995   8.703   9.086   5.917 -0.2800 -0.0052  0.0968
15735W        W31996   7.058  14.563  13.608  0.0877 -0.5397 -0.1854
15736W        W31997  16.189   5.097   3.658  0.2088  0.1105 -0.1853
15737W        W31998   8.702   5.846   2.828  0.0009 -0.4369 -0.1359
15738W        W31999   8.574  15.882   4.145 -0.0622 -0.1618 -0.1665
15739W        W32000  16.162   0.136  10.918 -0.0289 -0.0848  0.0628
15740W        W32001   4.189   2.717   1.037  0.0793 -0.1093 -0.0542
15741W        W32002  14.491   4.241   1.472 -0.3169 -0.0194 -0.6040
15742W        W32003  15.686   4.093  14.657  0.0821 -0.2216 -0.0338
15743W        W32004  17.765   6.309   0.311 -0.0090  0.4048 -0.2132
15744W        W32005  12.392  17.156   4.558 -0.2495  0.0123  0.1017
15745W        W32006   7.392   0.003   1.397 -0.1386 -0.0554  0.2192
15746W        W32007   5.381  15.753  15.406  0.1623 -0.1990  0.2322
15747W        W32008   5.165   1.737   1.071  0.1005  0.0989 -0.1901
15748W        W32009  15.878  12.939  14.067 -0.2494 -0.2200 -0.1042
15749W        W32010  14.774  15.988   4.116  0.1111  0.2491  0.1749
15750W        W32011   1.499   3.972  13.607 -0.3021  0.1479 -0.2207
15751W        W32012   1.622  15.116  13.546  0.0813  0.1172 -0.0844
15752W        W32013   4.282   4.746   0.448  0.1809  0.0402 -0.2114
15753W        W32014  15.439   8.322   4.481 -0.0890 -0.1032  0.3482
15754W        W32015  17.019   4.618   1.537  0.0747  0.0865  0.0700
15755W        W32016  14.868  11.182  12.566  0.2568 -0.0008  0.0996
15756W        W32017   1.108  12.663   4.986  0.0179  0.0512 -0.1660
15757W        W32018   3.108  10.600  13.949 -0.1661 -0.2095  0.2977
15758W        W32019  14.005   8.336  16.398  0.1197  0.1394  0.0466
15759W        W32020   6.924  17.061  16.309 -0.0582  0.0144 -0.0502
15760W        W32021   2.797  10.669  16.102  0.2591 -0.2679 -0.1010
15761W        W32022  10.023  10.999  16.877  0.0296 -0.0047 -0.0983
15762W        W32023   5.037  12.177  14.714 -0.2612 -0.0474 -0.1221
15763W        W32024  16.021   5.467  15.489 -0.0901 -0.3724  0.2135
15764W        W32025  13.867   4.207  16.957 -0.0942 -0.0229 -0.0067
15765W        W32026   3.773   7.777   4.906 -0.2910 -0.0630  0.0992
15766W        W32027  15.048   0.820  14.174  0.0597 -0.3262  0.1976
15767W        W32028   5.846   3.472  16.904 -0.3946 -0.3282 -0.0744
15768W        W32029  10.212   5.352  12.290 -0.0906  0.1967 -0.0192
15769W        W32030  12.856  17.503   5.984  0.1448  0.0138  0.2701
15770W        W32031   2.309  14.938  12.785 -0.3686  0.0675  0.3066
15771W        W32032   4.429   2.026  13.257  0.1147 -0.4010  0.1966
15772W        W32033   3.777   6.246  12.310 -0.0472  0.0616 -0.1407
15773W        W32034   2.267  11.833  13.273 -0.4135  0.3444  0.0807
15774W        W32035  15.380   5.301   0.884 -0.1929 -0.0251 -0.0011
15775W        W32036   6.549   4.683   3.340  0.0602 -0.3010 -0.0212
15776W        W32037   7.006   9.855  15.733 -0.3981 -0.1693  0.1303
15777W        W32038  17.246   3.364  12.309  0.0368 -0.1554 -0.0288
15778W        W32039  15.976   6.072   4.424  0.1389 -0.1402  0.0012
15779W        W32040   5.697   3.015   0.107  0.2349 -0.0218 -0.0359
15780W        W32041  11.574  16.744  13.383 -0.0297 -0.0733 -0.1063
15781W        W32042   4.839  13.797  12.285 -0.0416 -0.0493 -0.2332
15782W        W32043  12.845   7.134  14.724 -0.1987  0.0604 -0.1917
15783W        W32044   6.789   3.496  12.425  0.2819  0.1447  0.3659
15784W        W32045  11.788   9.471   5.341 -0.0920  0.0568 -0.3032
15785W        W32046   4.878  10.567  12.995 -0.0743 -0.0809  0.1484
15786W        W32047   1.910   8.765  15.236  0.0139  0.0312  0.0763
15787W        W32048  15.753   0.592   5.675  0.0717  0.0884 -0.1182
15788W        W32049   7.771   3.242   3.540  0.1034  0.1911 -0.0085
15789W        W32050  14.664   4.227   2.146 -0.0037  0.0435  0.1288
15790W        W32051  15.506   9.579   5.222 -0.2736 -0.2397  0.0763
15791W        W32052  15.261   1.336  14.276  0.0863  0.2860  0.1100
15792W        W32053   9.831   6.517   4.041 -0.1392  0.3067 -0.2614
15793W        W32054  15.251  12.451  13.082  0.0445  0.4722  0.0701
15794W        W32055  12.945  13.833  15.773  0.1805 -0.1130 -0.3803
15795W        W32056   8.165  16.910   0.295  0.0409 -0.0598  0.0030
15796W        W32057  16.554  11.136  16.725  0.1677 -0.2225  0.1716
15797W        W32058  14.109  11.910  16.859  0.2013 -0.2655  0.1525
15798W        W32059   3.424   3.495   6.277  0.1259 -0.0748  0.0644
15799W        W32060   9.513   0.734  13.137  0.1823 -0.2478 -0.2107
15800W        W32061   8.079  16.516   4.731 -0.1592  0.0244 -0.4071
15801W        W32062   5.350   6.967  12.967 -0.0790  0.1363 -0.0198
15802W        W32063  10.298   7.353   0.909 -0.1239  0.0364  0.1242
15803W        W32064   4.886   8.874   4.619  0.1007 -0.0292  0.2061
15804W        W32065   7.257   3.077  14.591 -0.0363  0.0647 -0.4092
15805W        W32066  12.259  13.700   5.385  0.1398  0.4804  0.1322
15806W        W32067  17.353  15.268  11.675  0.1178  0.1465 -0.1512
15807W        W32068  13.574  11.526  10.849  0.0207 -0.0707 -0.0527
15808W        W32069   6.132   2.727  15.231 -0.0263 -0.3183 -0.0220
15809W        W32070  10.182   3.751  16.907 -0.0580  0.0102 -0.0061
15810W        W32071   2.462  13.733   2.996 -0.0883  0.1303  0.1201
15811W        W32072  14.828  16.716   3.520 -0.4727  0.3725 -0.1431
15812W        W32073   8.597   4.798   3.202 -0.3159 -0.0232  0.0976
15813W        W32074  13.443  14.801   2.063  0.2276 -0.3060  0.0581
15814W        W32075  14.568   1.436   3.729  0.1364  0.1671  0.0986
15815W        W32076   5.552   9.037   5.424  0.1323 -0.0406  0.1256
15816W        W32077   4.425  14.691   0.222 -0.0485 -0.1022 -0.1633
15817W        W32078   6.340  16.996  12.855  0.2006 -0.1754 -0.1569
15818W        W32079   5.377  14.020   3.807 -0.1811 -0.2174  0.1688
15819W        W32080   5.087  17.047   4.007 -0.3135 -0.1662  0.1134
15820W        W32081  14.059  17.747   5.194  0.0892  0.0949  0.3399
15821W        W32082  13.235  13.107  12.616 -0.0249 -0.0290 -0.0981
15822W        W32083  13.826   7.268   2.854  0.2184 -0.1552 -0.0613
15823W        W32084  16.346   6.212  13.737 -0.1196 -0.1920  0.0681
15824W        W32085  10.540   2.473  14.356  0.1922  0.4665  0.1259
15825W        W32086  10.539   8.069   1.491  0.3277 -0.2472  0.1270
15826W        W32087   2.575   9.398  15.686  0.0174 -0.1494  0.1463
15827W        W32088   2.160  15.030  13.604 -0.0314  0.0323  0.0272
15828W        W32089   9.368   3.223   0.143  0.2087  0.1112  0.0449
15829W        W32090   4.110  16.403   4.107 -0.3392 -0.0058 -0.0958
15830W        W32091  10.527  12.562  16.219 -0.1957  0.1172  0.5424
15831W        W32092   2.492  11.877   5.103 -0.0628  0.1203 -0.2086
15832W        W32093  16.273   7.202   2.131  0.1099 -0.3805  0.1578
15833W        W32094  15.189   5.417   1.479 -0.2889 -0.3618 -0.0393
15834W        W32095   6.390  12.302  14.144 -0.0133 -0.4863  0.3860
15835W        W32096  14.733   2.102  14.515 -0.3006  0.0706  0.0005
15836W        W32097   3.546   5.352   0.526  0.0512  0.0661  0.1437
15837W        W32098  14.046   2.418   1.231  0.1958 -0.2508  0.0019
15838W        W32099  11.404   6.580   2.129 -0.2753  0.0179 -0.1071
15839W        W32100   7.013  12.703   2.103  0.2696 -0.1100  0.0092
15840W        W32101   5.490  14.941   0.954 -0.0305  0.0402  0.2323
15841W        W32102  12.620   3.972   5.569 -0.2108 -0.1566 -0.0506
15842W        W32103  10.537   9.772   6.568  0.1009 -0.1199  0.0048
15843W        W32104   5.404   7.712   1.681  0.0295 -0.1563 -0.1590
15844W        W32105  12.115   0.795  12.527 -0.0613  0.1683  0.1167
15845W        W32106  15.851   0.101   5.459 -0.2487 -0.1296  0.0436
15846W        W32107   8.984  12.817   4.354 -0.0336  0.1753  0.0326
15847W        W32108   1.991   6.617  12.336 -0.3461  0.4865  0.0092
15848W        W32109  14.090  10.506  16.102  0.3384 -0.1106  0.0245
15849W        W32110  10.222   0.174  16.619  0.3334  0.0144 -0.0372
15850W        W32111  10.491  12.403   2.488  0.0335  0.1508  0.2404
15851W        W32112  10.336   6.203   2.799 -0.2595  0.2166 -0.2845
15852W        W32113   4.334  13.108   2.579  0.0049  0.1823 -0.0151
15853W        W32114  12.382  14.599   1.530 -0.0858  0.3818 -0.1700
15854W        W32115  17.826  12.582  14.489  0.0138  0.3242  0.1355
15855W        W32116   3.087  14.947   2.194  0.3412 -0.2434 -0.0034
15856W        W32117  11.229  13.769   2.886  0.0919  0.1193  0.0052
15857W        W32118  11.029   6.912  16.387  0.2535 -0.1768 -0.2529
15858W        W32119  14.960  16.602  12.764  0.2416  0.4525  0.0958
15859W        W32120  10.769   1.655  13.949 -0.1179  0.3138 -0.4272
15860W        W32121   1.976   5.113   1.166 -0.1491  0.2358  0.1401
15861W        W32122  15.423  14.977  11.688  0.0055  0.1411 -0.0369
15862W        W32123  16.735  16.448  13.393 -0.0197  0.1349  0.3026
15863W        W32124  17.435  10.670   1.491 -0.0049 -0.0125  0.0947
15864W        W32125   6.795  17.604  14.546 -0.1327  0.0357 -0.1603
15865W        W32126  10.440   7.799  16.470  0.1920  0.0522 -0.0288
15866W        W32127   0.912   2.311  11.712  0.2004  0.1170 -0.0119
15867W        W32128  14.454  12.885   4.227  0.1269  0.0427  0.1803
15868W        W32129   0.985  13.390   4.269 -0.2010 -0.1202  0.0055
15869W        W32130   0.220   4.024   1.688  0.2233 -0.0055  0.1742
15870W        W32131   3.123  12.523   1.921  0.0086 -0.1686  0.0105
15871W        W32132   4.354  13.868  16.030 -0.0697  0.1182 -0.0562
15872W        W32133   1.193  11.409   3.587  0.0370  0.2104  0.1545
15873W        W32134  15.188   1.754   1.353  0.1944  0.0074  0.1740
15874W        W32135   7.112  13.603   1.743  0.1852 -0.0077 -0.0553
15875W        W32136  12.607  16.735   4.345 -0.0090  0.0762 -0.3145
15876W        W32137  15.963   4.426  13.068 -0.0513 -0.1941 -0.0331
15877W        W32138   2.721   5.650  15.688 -0.1121 -0.1442  0.0002
15878W        W32139   4.450  16.674   2.585  0.0559  0.1423  0.0954
15879W        W32140   7.864  12.113  15.336 -0.3018 -0.0912  0.0715
15880W        W32141   2.492   1.625   2.741 -0.1293  0.2322  0.0129
15881W        W32142  12.150  14.818   0.987 -0.1849 -0.1425 -0.2310
15882W        W32143  17.004  12.275  14.221  0.2201 -0.4340 -0.2228
15883W        W32144  17.206   9.042  16.744  0.0165 -0.4552  0.3821
15884W        W32145  11.364   1.127   0.764 -0.2525 -0.0577 -0.0163
15885W        W32146  15.859  15.265  16.892  0.3910  0.1332 -0.3041
15886W        W32147   5.559   2.365  14.218 -0.1126  0.0897  0.0607
15887W        W32148   2.170   3.637   1.321 -0.0368  0.1562 -0.1316
15888W        W32149  12.198   3.877   4.918 -0.1948  0.2009 -0.0507
15889W        W32150  14.109  12.905   0.244 -0.0920 -0.2390 -0.1290
15890W        W32151   5.282   8.948  16.266  0.1690 -0.1180  0.2788
15891W        W32152  10.075  16.577   2.410  0.2779  0.0467  0.0836
15892W        W32153  13.762   7.762  14.701  0.1699 -0.1001  0.0798
15893W        W32154  17.297   2.949   5.419  0.1892  0.1293  0.3662
15894W        W32155  14.502   0.917   2.547 -0.1930  0.2911 -0.0337
15895W        W32156   6.392   0.161  13.440 -0.3336 -0.1097 -0.4448
15896W        W32157   7.827   3.845   4.982 -0.2589 -0.2233 -0.1064
15897W        W32158   3.090  12.832   5.600 -0.0763  0.3306  0.1172
15898W        W32159  13.590  13.676   2.345 -0.2737 -0.1464 -0.0055
15899W        W32160   3.152  14.266  14.684  0.1632  0.2553 -0.0350
15900W        W32161  14.639  13.262  11.862 -0.2392 -0.0946  0.0506
15901W        W32162   3.559  13.039  12.347 -0.1751  0.0242  0.1671
15902W        W32163   9.705   0.239   2.114  0.1882  0.2501  0.1513
15903W        W32164  10.853  15.257  15.956  0.0012 -0.0623 -0.3848
15904W        W32165   7.146   9.395   4.357 -0.2282  0.1477 -0.0394
15905W        W32166   9.630  12.988   1.719  0.2338 -0.0118  0.1556
15906W        W32167  10.648  13.062  15.473  0.1197  0.0207 -0.2313
15907W        W32168  15.368  14.109   5.601 -0.1285 -0.3085 -0.1062
15908W        W32169   2.545  10.327  13.718  0.0869  0.0154  0.3295
15909W        W32170  11.181   2.065   5.246 -0.0742  0.0927 -0.0104
15910W        W32171   0.984   6.939   3.544 -0.0112 -0.0859  0.1056
15911W        W32172   4.658   7.999  13.708  0.0465 -0.2934 -0.2981
15912W        W32173  12.624   1.651  13.943  0.0099  0.0088  0.0875
15913W        W32174  13.461   9.792  14.098 -0.3396 -0.0498  0.1842
15914W        W32175  10.179   4.981   1.257 -0.1418 -0.4003  0.0376
15915W        W32176  11.690  11.850   0.982  0.0357  0.1308  0.0070
15916W        W32177   1.442  14.647   6.272 -0.0927  0.2366  0.0746
15917W        W32178  14.703   6.156  13.624 -0.1437  0.3413 -0.1906
15918W        W32179   1.691  15.572   2.263  0.3059  0.1142  0.0871
15919W        W32180   3.184  14.176  11.440  0.1067 -0.0315 -0.1272
15920W        W32181  15.521   5.471  16.454  0.0161  0.0851 -0.1077
15921W        W32182   8.895  17.796  16.488 -0.3024 -0.2645 -0.0017
15922W        W32183  12.711   9.047   0.039  0.0223 -0.0293 -0.2988
15923W        W32184  15.035   9.314  11.682 -0.4239 -0.1975 -0.1929
15924W        W32185  11.314   9.622   2.056  0.0034 -0.1119  0.0642
15925W        W32186   2.929   3.131   2.205 -0.0658  0.0455  0.3304
15926W        W32187  15.738  17.373  15.162 -0.0000 -0.2508  0.0578
15927W        W32188  15.240   1.930  16.587  0.3875 -0.0583 -0.0063
15928W        W32189  11.763  15.002   4.808 -0.0284 -0.3229  0.2073
15929W        W32190  15.192  15.247   4.013 -0.0620  0.1178  0.1775
15930W        W32191  13.401   2.915  14.595 -0.3230 -0.0674 -0.0469
15931W        W32192   8.155   9.374   3.853  0.0613 -0.1154 -0.1714
15932W        W32193  10.433  13.489   6.317  0.0198  0.2076 -0.1153
15933W        W32194  17.817  14.585  16.728 -0.3007 -0.0023 -0.1770
15934W        W32195   1.392   0.618   6.030  0.2862 -0.1218 -0.1625
15935W        W32196   4.375   7.604   3.789 -0.1944  0.1163 -0.0250
15936W        W32197   8.073  16.545   1.160  0.1769 -0.1407  0.0159
15937W        W32198  11.293  15.582   0.579 -0.0420  0.3887 -0.1141
15938W        W32199  10.196  13.369  15.689 -0.0476 -0.2936  0.0066
15939W        W32200   0.158  15.594   2.296  0.3436 -0.1761  0.1942
15940W        W32201   5.659  10.142   0.277 -0.0516  0.0519  0.0012
15941W        W32202   9.950   6.021  13.018  0.2410  0.0458  0.3022
15942W        W32203   6.533  12.774   1.845  0.1967 -0.0786  0.1322
15943W        W32204   1.776   9.100  12.633 -0.1835  0.2203 -0.2766
15944W        W32205   6.886   9.843   5.149  0.0849 -0.4499 -0.0320
15945W        W32206   7.611   4.692  12.602 -0.0211 -0.1364 -0.0432
15946W        W32207  10.911  13.165   0.393  0.0403  0.1114 -0.2897
15947W        W32208   8.931   3.558  12.863  0.1660 -0.0099  0.2326
15948W        W32209  16.863   8.460   1.277  0.1501  0.4441 -0.1286
15949W        W32210   2.863   0.597   1.068 -0.0041  0.1733  0.0164
15950W        W32211   1.327  12.707   1.506 -0.0696  0.0065  0.1199
15951W        W32212   8.585   1.185  16.563  0.0134 -0.2636  0.0662
15952W        W32213   1.925   2.793   1.179 -0.0135  0.0068 -0.1366
15953W        W32214  17.671   4.747   0.853 -0.1203 -0.0600 -0.0702
15954W        W32215   2.468  11.216  12.065 -0.1671  0.0452  0.1684
15955W        W32216  11.314   6.825  15.992  0.1199 -0.1770  0.1702
15956W        W32217  13.202   2.871   5.261 -0.0384  0.1122 -0.2482
15957W        W32218  13.199  10.463   1.254 -0.0119 -0.3204 -0.1089
15958W        W32219   7.876  14.128   0.684  0.0792  0.1009 -0.0655
15959W        W32220   4.983   8.610   5.943  0.0222  0.2687 -0.2141
15960W        W32221   6.715  17.528  16.698  0.3696  0.1060 -0.1470
15961W        W32222   5.070  10.982   5.139 -0.1055 -0.0275 -0.0375
15962W        W32223  16.652   3.848  12.592  0.0287  0.1641  0.0417
15963W        W32224   8.630   0.258   1.885  0.0891  0.0011  0.0473
15964W        W32225   5.218   6.721   3.365  0.0648 -0.1655 -0.1299
15965W        W32226  13.332   7.056  15.912  0.1747  0.0867  0.1632
15966W        W32227   5.248   4.692  16.443  0.2168 -0.1632  0.3374
15967W        W32228  15.045   6.637  15.431  0.1290  0.2117  0.2526
15968W        W32229  17.090  16.819  13.602 -0.2009 -0.0939  0.1699
15969W        W32230  10.500   9.007   2.677  0.0629  0.1449 -0.0602
15970W        W32231  16.734  12.505  13.900 -0.0512  0.4776 -0.2146
15971W        W32232  10.990  10.694  11.134 -0.2389  0.1001  0.0289
15972W        W32233  16.998   7.939  14.004  0.1100 -0.2207 -0.0458
15973W        W32234  12.089  11.333   0.128 -0.0241  0.0951 -0.1938
15974W        W32235   0.094  10.539   3.263  0.4676 -0.3622 -0.1510
15975W        W32236   9.140   1.447   2.399 -0.0293 -0.1179  0.2364
15976W        W32237   6.173   0.945   5.035 -0.1424 -0.1627 -0.1823
15977W        W32238  16.342   3.994  12.069  0.1948 -0.0101 -0.0358
15978W        W32239   1.638   4.959  13.427 -0.0985  0.2848 -0.0973
15979W        W32240   4.951   6.062  12.086 -0.1867 -0.0566 -0.0596
15980W        W32241   4.902  11.544   2.287 -0.0115 -0.0396  0.2439
15981W        W32242   1.851  11.536   3.589  0.1114 -0.0052 -0.1872
15982W        W32243  14.012   4.628  16.665  0.0794  0.2363  0.2658
15983W        W32244   1.620  14.652  14.133 -0.1218  0.0341 -0.1589
15984W        W32245   2.738   1.962  16.650 -0.0107 -0.1442 -0.2379
15985W        W32246  15.223   2.608   2.669 -0.0795 -0.1385 -0.2839
15986W        W32247   2.413  13.067   2.506 -0.2732  0.0892  0.0639
15987W        W32248   7.751   7.312  12.836 -0.0317 -0.0079  0.1297
15988W        W32249  16.534   2.317   1.015 -0.0491  0.0913 -0.3609
15989W        W32250  14.465   6.548   1.984 -0.1455  0.2956  0.0960
15990W        W32251  13.532   9.420  11.045 -0.0453 -0.1430  0.0999
15991W        W32252   5.958  11.948  15.709 -0.1857  0.1995 -0.2331
15992W        W32253  11.472  15.546   5.511  0.0175  0.0560 -0.0372
15993W        W32254  10.610   3.728   1.101  0.0503  0.2529 -0.1560
15994W        W32255   7.245   5.965   3.730 -0.1173  0.1590 -0.0693
15995W        W32256   7.706   7.956  13.450 -0.1117 -0.0166  0.0447
15996W        W32257   4.545   8.248  14.623  0.0430  0.0030  0.2182
15997W        W32258   2.403   7.936  12.312  0.0841  0.0392  0.3159
15998W        W32259   0.287   0.263  16.198 -0.0092  0.1212  0.0457
15999W        W32260   9.448   6.514   4.772  0.0481 -0.1581 -0.0476
16000W        W32261  14.833  17.525   2.679  0.0904 -0.0649 -0.3802
16001W        W32262  13.106  15.578  14.381 -0.2538  0.0777 -0.0314
16002W        W32263   9.604   3.341   1.589  0.1582  0.1874 -0.0418
16003W        W32264   2.552  12.810  15.574  0.2620  0.0840 -0.2208
16004W        W32265   0.125  15.452   0.515 -0.2225 -0.2150  0.1437
16005W        W32266  16.026   4.519  15.380 -0.1729 -0.0989 -0.0081
16006W        W32267   7.232  16.651  12.311  0.0370 -0.3802 -0.1277
16007W        W32268   0.906   2.062   0.822  0.2986  0.3746 -0.2815
16008W        W32269  17.671   0.787  13.200  0.2428  0.0798  0.2529
16009W        W32270  12.639  11.421   5.511  0.1183 -0.4347 -0.2647
16010W        W32271  17.728   4.124   2.027 -0.1498  0.2549 -0.2699
16011W        W32272   4.688  13.267   0.413 -0.1978 -0.0191 -0.0026
16012W        W32273  12.215   5.385  16.979  0.0330 -0.0432 -0.0411
16013W        W32274   8.181   4.009  15.512  0.0443  0.1137 -0.2377
16014W        W32275  15.295  13.508  16.633 -0.0509 -0.0420  0.1940
16015W        W32276   8.172   5.183   1.691 -0.5198 -0.1677 -0.0896
16016W        W32277   2.800   8.562  15.738 -0.0579 -0.0857  0.3043
16017W        W32278  12.451   5.098   1.451  0.1490 -0.0031  0.0798
16018W        W32279   9.457   2.086   3.303 -0.0773 -0.2324  0.0254
16019W        W32280   6.282  16.591   0.686  0.0858 -0.1305 -0.0949
16020W        W32281  15.029  11.482   1.124  0.1029  0.0668  0.2042
16021W        W32282  11.212   5.215   1.947  0.0849 -0.0084 -0.1333
16022W        W32283   5.933   1.474  13.578 -0.0710  0.0038  0.1975
16023W        W32284   7.310   2.000   4.811 -0.1865  0.0209  0.0747
16024W        W32285   9.535   9.953   6.561  0.3946 -0.0563  0.4010
16025W        W32286   4.146   3.634  16.196  0.1679 -0.2721 -0.2139
16026W        W32287   8.093  14.389   1.635 -0.0951 -0.1735 -0.0009
16027W        W32288   9.480   9.002   4.797 -0.0785 -0.0625  0.0168
16028W        W32289  11.506   9.035   2.554  0.0926  0.0362 -0.0002
16029W        W32290   9.437   2.199   4.921 -0.1611  0.0129 -0.2691
16030W        W32291   2.132   5.806  11.609  0.1309  0.1740  0.1560
16031W        W32292   1.696  12.086  16.305 -0.0792 -0.4262 -0.1817
16032W        W32293   4.260  14.196  15.659 -0.2747 -0.1554 -0.1709
16033W        W32294   2.774   2.416  14.172  0.3356 -0.2604 -0.0763
16034W        W32295   0.144  14.505   3.492  0.0708 -0.0223 -0.1184
16035W        W32296   1.759  11.681   4.148  0.1309  0.1432 -0.0128
16036W        W32297  13.114   1.924   1.057  0.1024  0.1167  0.1786
16037W        W32298   3.877  15.481  16.387 -0.0269 -0.1269 -0.2744
16038W        W32299  16.778   7.381   5.399  0.4155 -0.0143  0.3717
16039W        W32300  17.710  15.871   4.739 -0.1601  0.1262 -0.1479
16040W        W32301  11.007  17.580   5.785  0.1235 -0.2046 -0.0273
16041W        W32302  10.380  14.378  16.115  0.0288  0.3363 -0.3385
16042W        W32303  17.461  10.092  14.165  0.1223  0.0251  0.1859
16043W        W32304  12.561  11.554   4.423  0.0862  0.3081 -0.2235
16044W        W32305   0.367  13.211  11.955 -0.2704 -0.1758 -0.0030
16045W        W32306   8.921   2.200  14.974  0.1896 -0.2115  0.1630
16046W        W32307  16.955   7.182  12.801  0.1885 -0.0230 -0.1448
16047W        W32308   1.275   2.989  16.242  0.0032  0.1383 -0.2044
16048W        W32309  11.959   5.770  15.068  0.2503  0.0939  0.2487
16049W        W32310  10.608  15.748   3.562  0.1576 -0.0640 -0.3101
16050W        W32311   3.543   4.471   0.472 -0.1050  0.1108 -0.0563
16051W        W32312  13.547   3.991  12.057  0.1205 -0.1170 -0.2129
16052W        W32313   5.253   5.007  14.103  0.0000 -0.0685  0.0441
16053W        W32314   1.903   0.343  14.810  0.0460 -0.0456  0.2012
16054W        W32315  14.245   6.052  16.892  0.0373  0.2045  0.2209
16055W        W32316  14.733   8.931  12.614  0.0063  0.2166 -0.1253
16056W        W32317   3.506  11.831  15.762  0.3455  0.2439 -0.0193
16057W        W32318  15.769   5.949   2.119  0.1707  0.0498 -0.0750
16058W        W32319   6.131  15.496   2.004  0.1344 -0.1678  0.0482
16059W        W32320  14.585  15.806  15.885 -0.0587  0.2137 -0.0699
16060W        W32321  15.389  11.297   2.714  0.0975  0.2703  0.0184
16061W        W32322  15.927  11.665   0.495  0.0323  0.1542 -0.0420
16062W        W32323   6.817   5.193   0.594 -0.3069  0.0965  0.2957
16063W        W32324   8.627   3.562   1.751 -0.1712 -0.4440  0.0187
16064W        W32325   7.411   8.691  12.324 -0.0821  0.0373 -0.0846
16065W        W32326   9.545  14.434  15.611 -0.4519  0.0672  0.1960
16066W        W32327  16.231   8.014  14.634  0.0826  0.1404 -0.1096
16067W        W32328   8.727   8.392  13.649  0.0691  0.0758 -0.2564
16068W        W32329  17.364  16.293  16.790  0.0865 -0.0769  0.3485
16069W        W32330   9.930   5.267   1.594  0.2252  0.3208 -0.1277
16070W        W32331   4.698   4.489   3.592  0.1992  0.0661 -0.0112
16071W        W32332   4.931  10.723   5.699 -0.1002 -0.4514  0.1719
16072W        W32333  15.783   1.939   0.378  0.3970 -0.2426  0.2115
16073W        W32334  16.442   6.202   5.262  0.2058 -0.0037 -0.1933
16074W        W32335   7.421   5.181   2.115 -0.1808  0.0187 -0.3526
16075W        W32336  17.332   8.495   3.641 -0.1001 -0.1790 -0.2808
16076W        W32337  13.852   1.983   4.045  0.2358 -0.1476 -0.1012
16077W        W32338   8.467   4.730  15.975 -0.1184  0.1695 -0.0913
16078W        W32339   2.387   4.604   3.267  0.2030 -0.1067 -0.0614
16079W        W32340  10.294  17.203   1.592 -0.0991  0.2140  0.3919
16080W        W32341   1.849   6.858   0.389  0.2341  0.0864 -0.1587
16081W        W32342  13.459  12.417  13.424  0.2310 -0.1492  0.3351
16082W        W32343   5.274  15.007   5.821 -0.2806 -0.1819  0.2494
16083W        W32344   1.524  11.247   3.873  0.0040  0.1989 -0.1286
16084W        W32345  13.026   7.917   0.788 -0.0203  0.0790  0.0692
16085W        W32346  10.484  11.438  16.257 -0.2690 -0.0515 -0.1696
16086W        W32347   6.856  14.936  13.847  0.0527 -0.1222  0.0265
16087W        W32348   9.949   7.771   0.362 -0.1609  0.1247 -0.2378
16088W        W32349   6.198   0.764   5.998 -0.1190  0.3288  0.1125
16089W        W32350  10.245   1.159  12.760 -0.0939  0.0452  0.2146
16090W        W32351  12.176  10.933   0.412 -0.0082 -0.0783  0.0081
16091W        W32352   8.236  15.952  13.138  0.1032  0.0189 -0.0225
16092W        W32353  12.543  17.260   3.632 -0.1247  0.1960  0.0039
16093W        W32354   1.336   9.626  13.303  0.2664  0.1044  0.0759
16094W        W32355   9.811   9.770   1.530 -0.2875  0.0212  0.0217
16095W        W32356  15.958   5.262  13.362 -0.0151 -0.0780  0.0148
16096W        W32357   1.352  11.859  13.335  0.0285 -0.0798 -0.3163
16097W        W32358  14.163   8.266   3.774 -0.3679 -0.0702  0.2112
16098W        W32359   2.553  15.250   6.188  0.0613  0.0727  0.0896
16099W        W32360   6.612  17.232   4.182  0.0606 -0.0771  0.1305
16100W        W32361  13.762  17.234  11.772 -0.1748  0.2189  0.1316
16101W        W32362   1.914  16.618  16.107  0.0003 -0.0698 -0.0218
16102W        W32363   6.309  17.237  14.463  0.0989 -0.1319  0.1522
16103W        W32364   3.640  12.210   1.907 -0.1797 -0.1358 -0.1655
16104W        W32365  11.755   9.153   6.436 -0.0818  0.1036 -0.0627
16105W        W32366   1.227   0.584   0.934 -0.1248  0.0502 -0.0967
16106W        W32367   3.973  10.208   2.061  0.2297 -0.2211  0.0790
16107W        W32368   1.446   8.643   0.949  0.1941 -0.0489  0.0261
16108W        W32369   2.506   1.002   0.160  0.1750  0.0613 -0.3159
16109W        W32370  13.413   6.029   2.414 -0.1118 -0.2703 -0.3197
16110W        W32371  16.806   3.196  12.464  0.1805 -0.0253 -0.2978
16111W        W32372   1.048   1.359   5.449 -0.1063  0.0261  0.0848
16112W        W32373  11.670  17.811  14.453 -0.0545 -0.0741  0.3624
16113W        W32374  16.082  11.385   2.810  0.1604  0.1793  0.0737
16114W        W32375  17.842  15.606  12.804 -0.0819  0.1167 -0.1636
16115W        W32376   8.998  17.723  14.987  0.0241  0.2311  0.1414
16116W        W32377  10.215  17.506   4.408  0.0666 -0.3208  0.1564
16117W        W32378  13.407  16.422   2.029  0.1565  0.1781  0.2292
16118W        W32379   8.485   9.876  13.828  0.1093 -0.1400  0.0996
16119W        W32380   9.451   3.184   3.038 -0.2987  0.1380  0.0483
16120W        W32381  16.091   1.742  16.300 -0.2181  0.2469  0.1121
16121W        W32382  13.835  17.596   0.795  0.0036  0.0196 -0.1438
16122W        W32383   0.965   8.853  13.759  0.1109  0.1478 -0.0776
16123W        W32384  14.947   8.544  12.304 -0.0368  0.0553  0.0841
16124W        W32385  17.409   1.257  13.960  0.0503 -0.0218 -0.1412
16125W        W32386  14.624  11.472  13.687 -0.2428 -0.2096 -0.3328
16126W        W32387  17.215   4.249   3.948 -0.0878 -0.2809  0.1328
16127W        W32388  16.513  11.520  15.670 -0.0619  0.2024  0.3119
16128W        W32389   7.008   4.716  12.579 -0.0721 -0.1363 -0.2101
16129W        W32390   3.947   2.440  12.015 -0.2499 -0.0058  0.0518
16130W        W32391   9.230  17.216   0.067  0.3663  0.0362 -0.0370
16131W        W32392   4.445   0.467  11.653  0.3292 -0.0267  0.1805
16132W        W32393   9.372  14.992  11.765  0.2698  0.0861  0.0109
16133W        W32394  10.696   6.323   5.568  0.0222 -0.1844 -0.3318
16134W        W32395   9.628  13.610  12.845 -0.0818  0.3526 -0.3349
16135W        W32396   9.788   7.846   3.695  0.1309 -0.2355 -0.0990
16136W        W32397   8.090   2.041  14.221 -0.3484 -0.1257 -0.3071
16137W        W32398  11.018  10.288  11.615  0.0836 -0.2042 -0.1438
16138W        W32399  12.312   6.076   5.155  0.0193  0.1774 -0.2840
16139W        W32400  16.067   4.874  11.689 -0.1784  0.1713 -0.2355
16140W        W32401  16.819   2.501  13.875  0.1822 -0.1456 -0.0965
16141W        W32402   9.367   8.795  16.894 -0.4155 -0.0130  0.1591
16142W        W32403   9.596  10.423  12.609 -0.0761  0.1829 -0.0157
16143W        W32404  12.485   8.564  11.320  0.0269  0.1668  0.0987
16144W        W32405   1.751  13.871   3.797  0.1065  0.1212  0.0589
16145W        W32406  11.031   3.802  11.798  0.1611 -0.2918  0.2760
16146W        W32407  17.818   0.674   0.137 -0.2647  0.0700  0.0754
16147W        W32408   7.998  12.571  12.472 -0.0888  0.0767 -0.1552
16148W        W32409  11.782   8.935   3.739  0.1737 -0.0790 -0.2738
16149W        W32410   1.958  15.121  16.262 -0.4024  0.1060  0.2149
16150W        W32411   3.172  16.089  13.130 -0.0830  0.0108  0.2550
16151W        W32412   3.712   1.173   0.295 -0.2486  0.3176  0.0467
16152W        W32413  17.035  12.999  16.581  0.1990 -0.0248  0.2244
16153W        W32414   5.100   7.666  14.284  0.0876  0.0213 -0.0497
16154W        W32415   3.849  11.645  11.899 -0.1164  0.2858 -0.2624
16155W        W32416   7.950  10.769  16.643  0.2091 -0.2739  0.0341
16156W        W32417   6.172   8.175   0.572 -0.0451 -0.1161  0.0741
16157W        W32418   0.536   4.655   5.135  0.1920  0.2088 -0.0394
16158W        W32419   6.921   1.200   4.170 -0.1468  0.2177  0.0025
16159W        W32420   9.762  11.563   2.042 -0.1135 -0.1237  0.1094
16160W        W32421  17.568   6.238  13.497 -0.4910 -0.0515 -0.0144
16161W        W32422  11.122  14.021   1.984 -0.1187  0.1257 -0.0420
16162W        W32423   2.638  15.694  16.486 -0.2298  0.2883  0.1068
16163W        W32424   7.887   0.245   1.047 -0.0931 -0.0978  0.1624
16164W        W32425  11.556  16.848   2.882  0.2436 -0.0170 -0.1326
16165W        W32426  17.489   6.840  15.964  0.2015 -0.3037  0.0826
16166W        W32427   0.242   4.438  12.299 -0.1031 -0.1545 -0.1027
16167W        W32428  13.437  10.899  12.319 -0.0479 -0.2088 -0.0589
16168W        W32429   9.243   2.079   3.747 -0.1090  0.1861  0.1431
16169W        W32430  12.535  16.846  13.241 -0.0401  0.1157 -0.0579
16170W        W32431   1.252   2.599   0.226 -0.1486 -0.3289 -0.1154
16171W        W32432  12.016   4.804   1.173  0.2389 -0.1079 -0.1193
16172W        W32433  15.629   8.856  16.722 -0.0867  0.0605 -0.0284
16173W        W32434  16.407  10.145   5.917 -0.2925 -0.0283  0.0726
16174W        W32435   1.393  10.931  15.970 -0.2542  0.1968  0.0004
16175W        W32436   3.574   7.843   1.716  0.1139  0.0643  0.1158
16176W        W32437   1.666   1.634  12.420  0.0314 -0.1106 -0.0724
16177W        W32438  10.637  12.883  14.612 -0.2253  0.0727  0.1377
16178W        W32439  13.691   7.087   4.168 -0.2208 -0.0949 -0.2991
16179W        W32440   4.156  11.792   0.753 -0.0637  0.0494 -0.0057
16180W        W32441  17.831  14.302   0.708  0.2253  0.2634  0.1817
16181W        W32442  14.470  16.183   3.798 -0.2592  0.1974 -0.1947
16182W        W32443   4.430   5.178  13.589 -0.1076 -0.0374 -0.0757
16183W        W32444  17.050   8.459   5.418  0.3760 -0.2951 -0.3943
16184W        W32445   3.722   1.582   1.300  0.3561  0.2453  0.1075
16185W        W32446  11.142  11.955  15.107 -0.4796 -0.0202 -0.0723
16186W        W32447   4.459  14.543   3.727  0.2241 -0.0264  0.1087
16187W        W32448   2.908  17.464  13.047 -0.0585 -0.2144  0.4400
16188W        W32449  15.863   9.556  13.563 -0.0664 -0.2950 -0.0294
16189W        W32450  14.168  15.883   4.097  0.4447  0.2455  0.1877
16190W        W32451   1.849  10.293  11.753 -0.0320  0.0330  0.1298
16191W        W32452   6.715   5.010   1.047  0.2539 -0.0516  0.0521
16192W        W32453   8.643   0.516  16.194 -0.4308  0.1459  0.0256
16193W        W32454   0.028   6.023   2.741 -0.0709 -0.0372  0.1822
16194W        W32455  12.395  13.960  12.322  0.2010  0.1608  0.4412
16195W        W32456   5.296  10.648  12.379  0.0220 -0.0588  0.2039
16196W        W32457  17.584  16.945   5.980  0.0857  0.0369  0.2078
16197W        W32458  17.476  13.183   5.004 -0.0930  0.1371  0.0967
16198W        W32459   9.168   3.869  12.458 -0.0803 -0.1592  0.1391
16199W        W32460   9.032   8.262   6.127 -0.2788  0.0944  0.4697
16200W        W32461  14.305  17.031   6.582  0.1316  0.0090  0.1155
16201W        W32462  11.930  11.435   0.656 -0.1465 -0.0923 -0.1815
16202W        W32463  13.173   3.775   0.062  0.4142  0.1579  0.1843
16203W        W32464   7.115   5.224   4.507 -0.0469 -0.0512  0.0208
16204W        W32465   3.977   8.306  12.526 -0.0332  0.3361  0.0811
16205W        W32466  16.316  12.347   1.699  0.0199 -0.2086 -0.0430
16206W        W32467  14.211  17.295   0.453 -0.2298  0.0533 -0.1603
16207W        W32468   4.505  12.306  14.588  0.2288  0.1896 -0.1696
16208W        W32469   5.172   1.329  11.794  0.1090  0.1623  0.4957
16209W        W32470   9.333  14.355  12.385  0.0864  0.0967  0.1357
16210W        W32471   9.747  15.771  15.299 -0.1779 -0.0688  0.0444
16211W        W32472  12.507   8.673  11.846  0.1213  0.0484 -0.1145
16212W        W32473   2.219  14.259  16.411  0.0011  0.1091 -0.1174
16213W        W32474   7.325   5.437   3.712 -0.0761 -0.2139  0.1137
16214W        W32475  17.495   7.847   0.491 -0.5778  0.0327 -0.0118
16215W        W32476   5.088   9.913  14.737 -0.0650 -0.1445  0.1365
16216W        W32477  17.240   1.984   4.250 -0.1543 -0.0447 -0.0117
16217W        W32478   1.388   4.158  14.684 -0.0778 -0.2744  0.1808
16218W        W32479   7.323  12.087   4.790  0.2167  0.0282 -0.1134
16219W        W32480   8.511  10.467  15.045  0.1799  0.3262 -0.0756
16220W        W32481   5.481  17.577   4.044  0.0939 -0.0419 -0.0377
16221W        W32482   7.688  15.272   4.525 -0.1548 -0.0369 -0.2129
16222W        W32483  14.551  11.994   3.971 -0.0232 -0.0272 -0.1509
16223W        W32484   6.822  10.779   6.053  0.0705 -0.0653 -0.1343
16224W        W32485  14.366  14.447  14.979 -0.2084  0.1690  0.0210
16225W        W32486   7.068   5.036   3.921 -0.2615 -0.1194 -0.0443
16226W        W32487   0.295  14.018  12.499 -0.2751 -0.1477  0.0764
16227W        W32488  13.781  15.345  14.574 -0.0800 -0.0957  0.0887
16228W        W32489   3.188   6.885   1.561 -0.0550  0.1034 -0.1021
16229W        W32490   6.887  13.554   5.545  0.2231 -0.1055 -0.0870
16230W        W32491  14.435  15.011  12.016  0.0969  0.3622 -0.2330
16231W        W32492  10.956   8.488  14.434  0.0241 -0.0357  0.0813
16232W        W32493   8.227   7.733  16.254  0.1114  0.4671  0.0755
16233W        W32494   7.251  14.736  16.437  0.0581  0.2197  0.1288
16234W        W32495   2.475   6.696   4.544  0.0166 -0.3458 -0.1156
16235W        W32496  14.836  11.473  16.675  0.0711  0.1806  0.0849
16236W        W32497  16.638   5.232   4.448 -0.1140  0.2002  0.0528
16237W        W32498  15.630  13.862   4.840  0.3552  0.0539 -0.0317
16238W        W32499  13.871   0.672   1.387 -0.1613 -0.0259 -0.1337
16239W        W32500   2.762  16.162   1.475  0.1132 -0.2299 -0.3026
16240W        W32501  10.719   8.347   4.533 -0.0151  0.3012  0.2055
16241W        W32502  11.689   6.034   2.016 -0.0247  0.2502  0.0484
16242W        W32503   0.301   7.605   0.529 -0.2419 -0.0402 -0.2370
16243W        W32504  17.375  15.704  14.117 -0.0859  0.2630 -0.2894
16244W        W32505  10.320   1.535   4.270 -0.0413  0.0132  0.0412
16245W        W32506  10.833   9.648  15.993 -0.1966  0.2312  0.1081
16246W        W32507  15.488   2.871  12.328 -0.1433  0.2328 -0.1974
16247W        W32508   1.803   3.512  11.836 -0.2731 -0.1026 -0.0069
16248W        W32509  13.134  15.595   5.482  0.0542  0.2755 -0.0572
16249W        W32510   4.861   9.745  12.853 -0.1782 -0.0255  0.1794
16250W        W32511   8.516   5.795  14.844  0.0186 -0.2319  0.2252
16251W        W32512   8.173  15.208   3.320 -0.3830 -0.1096 -0.1583
16252W        W32513   4.718  14.604  11.814 -0.0675  0.1267  0.0970
16253W        W32514   3.209   3.272  15.322  0.1511 -0.0630 -0.1134
16254W        W32515   5.045   2.289  12.381 -0.0255 -0.2192  0.0536
16255W        W32516  16.320   7.461  11.776  0.0721 -0.0594  0.2334
16256W        W32517   9.632   4.291   3.335  0.1152 -0.1262 -0.2035
16257W        W32518  12.973   0.030  14.460  0.0390 -0.0948  0.0381
16258W        W32519  11.200  10.519   3.586  0.2132  0.0138 -0.0134
16259W        W32520   2.796  15.210  12.890 -0.0871 -0.3571 -0.0392
16260W        W32521   6.023  16.520  16.328 -0.1720  0.2531  0.5244
16261W        W32522  13.130   1.106  11.957  0.1953  0.4856 -0.1046
16262W        W32523   4.246   2.714  11.714 -0.1789 -0.1101 -0.1460
16263W        W32524   9.958  16.880   2.886 -0.1146  0.1962  0.1053
16264W        W32525  17.079  16.306   0.246 -0.2135 -0.0173  0.1111
16265W        W32526  14.898   5.354   0.702 -0.1454 -0.1515  0.0580
16266W        W32527  17.547   1.115   0.150 -0.0521  0.0215  0.2434
16267W        W32528   5.011  13.872  15.424 -0.0409  0.1949 -0.1170
16268W        W32529   8.548   4.368  16.373 -0.1251  0.1078 -0.1243
16269W        W32530  16.112   4.305  11.519 -0.1605 -0.1270 -0.0435
16270W        W32531   4.430   6.956  14.716 -0.2981  0.1629  0.3496
16271W        W32532  12.092  13.592  15.950  0.3223 -0.1252 -0.0815
16272W        W32533   9.847  14.014   0.476  0.1368 -0.3042 -0.1581
16273W        W32534   0.194   9.110  13.504  0.1079 -0.3191  0.0398
16274W        W32535   0.173   3.265   3.811 -0.2919 -0.0660 -0.1995
16275W        W32536   4.373  10.695   5.635  0.3496 -0.2070 -0.0377
16276W        W32537   8.771  17.230   2.883 -0.1484  0.1197 -0.1773
16277W        W32538  12.137  14.390  16.615 -0.3001 -0.0230 -0.2760
16278W        W32539   5.748   8.620   5.263  0.1209  0.2834 -0.0349
16279W        W32540  12.904   8.792  14.080 -0.1354 -0.0037 -0.2048
16280W        W32541   9.070   2.298   0.490 -0.2995  0.0535 -0.1019
16281W        W32542   5.357   6.690  16.741 -0.2031 -0.0625  0.0648
16282W        W32543   7.076  14.470  16.004 -0.0595  0.0741 -0.1441
16283W        W32544   6.677  16.086  14.253 -0.0734  0.0213 -0.1198
16284W        W32545  11.471   5.030   0.688  0.2288  0.2554  0.3149
16285W        W32546  16.654  10.077  15.998 -0.2380 -0.0652  0.2683
16286W        W32547   3.784  10.066   6.176 -0.1438  0.3445  0.1788
16287W        W32548  16.640  13.127   0.325  0.2133 -0.1414 -0.1832
16288W        W32549   7.865  12.986  13.994  0.0672 -0.2686 -0.0098
16289W        W32550  13.291  14.395  13.278  0.1265 -0.2720  0.0313
16290W        W32551   0.168  17.542  16.510 -0.1549  0.0535  0.1873
16291W        W32552   3.100  13.508   2.910  0.2149  0.1229 -0.2795
16292W        W32553   8.377   1.669  16.648 -0.0599  0.0231  0.0385
16293W        W32554  11.451  13.300  12.674  0.2732 -0.2128 -0.0101
16294W        W32555  15.992  17.754   2.379 -0.0678 -0.2210  0.1564
16295W        W32556  12.439  14.538  13.791  0.1970 -0.1207  0.1029
16296W        W32557   0.239  14.190   3.062 -0.0520  0.1107 -0.1631
16297W        W32558   7.430  14.825  13.810  0.0083 -0.1043 -0.1476
16298W        W32559   7.181   5.617   0.724  0.2330 -0.0432 -0.1238
16299W        W32560   0.469   2.968   1.431  0.1128 -0.0360  0.0059
16300W        W32561   6.611   7.484   2.230 -0.1454  0.0857  0.1252
16301W        W32562   9.159  10.421  12.333 -0.3258 -0.0529 -0.0410
16302W        W32563  12.881   5.943   4.223  0.0319 -0.3648  0.1577
16303W        W32564   4.779  12.591  11.573 -0.0220  0.0851 -0.2029
16304W        W32565   0.900  16.851  11.732  0.0679  0.3574 -0.1294
16305W        W32566   2.661   5.353  14.052  0.1882  0.0357  0.2771
16306W        W32567   5.675   2.032   1.119 -0.0591  0.0746  0.1472
16307W        W32568  13.391   6.458   2.811  0.0446 -0.1700 -0.0722
16308W        W32569  16.764   9.014  12.282 -0.0563 -0.0718 -0.0722
16309W        W32570   9.151  13.606   0.733 -0.0565 -0.2897 -0.2370
16310W        W32571   1.409  15.110   4.580 -0.0562 -0.0884  0.3084
16311W        W32572  16.273   8.727  15.808 -0.0745 -0.2335  0.0482
16312W        W32573   1.960   6.170  14.640  0.3528  0.0291 -0.2117
16313W        W32574   1.829  10.665   6.136  0.0442  0.1841  0.0719
16314W        W32575   4.625  11.074   2.190 -0.2496 -0.2440 -0.0776
16315W        W32576  14.473  11.239   4.268 -0.0071  0.4443 -0.2442
16316W        W32577   3.900   8.634   5.200 -0.0607  0.2354  0.1704
16317W        W32578   4.480  17.695   3.868 -0.1130 -0.2559  0.0764
16318W        W32579   7.314  12.072   1.303 -0.0393 -0.0174 -0.3151
16319W        W32580   2.985  13.089  15.583  0.1186  0.1098 -0.0409
16320W        W32581   4.793   6.501  14.642 -0.1941  0.0771  0.0795
16321W        W32582   4.421  15.293  16.291 -0.1670  0.0609 -0.0283
16322W        W32583  16.217  11.463   4.608  0.1094  0.2425  0.0344
16323W        W32584  16.905  10.425   3.976 -0.0212  0.0904  0.1318
16324W        W32585   8.486  16.132  16.892  0.0275  0.2865 -0.2148
16325W        W32586   8.110   1.639   0.113  0.1184 -0.0995 -0.1156
16326W        W32587  16.313   2.465  13.192 -0.0199 -0.2344 -0.1414
16327W        W32588   7.484   9.947   4.104 -0.0476  0.1776 -0.2125
16328W        W32589   7.600   9.657  13.847 -0.1320 -0.1062  0.1659
16329W        W32590   8.138   3.919   0.751  0.1640 -0.0934 -0.1212
16330W        W32591   4.297   2.319   3.296  0.0273 -0.0619 -0.0687
16331W        W32592  13.228  16.683   4.748 -0.1578  0.2308 -0.0696
16332W        W32593  16.804  15.420   2.873 -0.2218 -0.0209 -0.0153
16333W        W32594   2.444  14.387   1.585  0.1158  0.1032  0.4310
16334W        W32595  17.515  10.908  12.680  0.0096  0.0001  0.1046
16335W        W32596   1.812   0.878   3.362  0.0572  0.0191 -0.1537
16336W        W32597  10.208  10.237   4.585  0.0616  0.3847 -0.2942
16337W        W32598   3.958   0.246  12.842 -0.3545  0.0893 -0.1119
16338W        W32599   2.090  15.847  12.498 -0.0676  0.0363  0.2032
16339W        W32600   3.569   7.138  14.835 -0.1907  0.3712  0.0385
16340W        W32601  17.756  16.225  16.216 -0.1327 -0.0541  0.0508
16341W        W32602   9.361  16.882  13.882  0.0521  0.0387  0.4341
16342W        W32603  17.151   9.550  13.033  0.2714  0.0282 -0.0855
16343W        W32604  16.583  17.307  15.140 -0.0853 -0.2917 -0.3192
16344W        W32605   7.671   8.192  16.803 -0.0548  0.0984 -0.2493
16345W        W32606   9.141  12.174   0.392  0.1129 -0.1827  0.3646
16346W        W32607   3.874   5.882   5.352 -0.1321  0.1305 -0.0032
16347W        W32608   8.729   4.991  13.973 -0.0739 -0.1517  0.0150
16348W        W32609  14.604  17.819   5.752  0.0298 -0.1856 -0.1475
16349W        W32610   2.062  11.496  16.189 -0.0941 -0.0613  0.0619
16350W        W32611   6.944  11.947   0.960 -0.0376 -0.0550 -0.4303
16351W        W32612   1.912   2.593   4.752 -0.0479 -0.1035 -0.0847
16352W        W32613  10.492   2.115   5.971  0.0636 -0.0694 -0.1244
16353W        W32614  10.671  17.313   1.901 -0.0067  0.2189  0.2051
16354W        W32615  11.403  11.542   3.813  0.0793 -0.0767 -0.0559
16355W        W32616  14.080  10.645   2.746  0.0737 -0.1752  0.1814
16356W        W32617   7.378   5.753   0.197  0.2548 -0.1434 -0.4147
16357W        W32618  14.316   4.827  12.207 -0.0390 -0.0973 -0.0318
16358W        W32619  13.503  15.040  13.318 -0.0477  0.0762 -0.3345
16359W        W32620  10.337   0.247   1.224  0.4953  0.0637  0.3208
16360W        W32621  11.742  12.886  15.111  0.0263 -0.1371 -0.0886
16361W        W32622  14.428  16.358   2.174 -0.0298  0.1195 -0.0638
16362W        W32623   5.133   9.399  16.365 -0.0162  0.0815 -0.0799
16363W        W32624  11.848   4.815   5.016  0.0399 -0.0648  0.1450
16364W        W32625   8.650  16.916  14.706  0.2002 -0.0196  0.0942
16365W        W32626  10.933  17.588  13.805  0.1849  0.1291  0.0287
16366W        W32627   3.708   1.855  11.321 -0.0804  0.1423  0.1341
16367W        W32628   4.929   8.585  16.125 -0.0818 -0.0985  0.0991
16368W        W32629   6.923   3.383   1.156 -0.0492 -0.1087 -0.0274
16369W        W32630  16.881  10.332  16.882 -0.1147 -0.0375 -0.0268
16370W        W32631  12.732  12.171  12.602 -0.2263  0.0178  0.1315
16371W        W32632   1.937   2.397   3.711  0.3122  0.0711 -0.2543
16372W        W32633   9.832   6.858   2.688  0.2326  0.1373  0.0891
16373W        W32634   3.894  14.600   1.002  0.0429 -0.1362  0.2999
16374W        W32635  16.013  12.198  13.112 -0.5947  0.0464 -0.4023
16375W        W32636   1.280   9.120  15.226  0.1857 -0.0244 -0.0841
16376W        W32637   3.139   9.319  15.804  0.1278  0.1294 -0.1259
16377W        W32638   7.260  14.968   0.796  0.0741  0.1819 -0.3089
16378W        W32639   4.363   1.974   1.395 -0.1080  0.2053  0.1634
16379W        W32640  16.135  13.825  15.692 -0.1521  0.2676 -0.3488
16380W        W32641  10.260   0.239  15.382  0.0823 -0.0088  0.1818
16381W        W32642  16.594   1.267  14.660 -0.4900  0.2490 -0.2040
16382W        W32643  13.855  10.188   1.565  0.1177  0.1375 -0.1281
16383W        W32644  17.537   1.611  16.207 -0.3247  0.0556 -0.0370
16384W        W32645   9.748   4.839  13.157 -0.2195 -0.0715  0.0360
16385W        W32646   0.922   9.807  13.967  0.2488  0.0754  0.1311
16386W        W32647  10.580  15.860  13.069  0.1750  0.2001 -0.0139
16387W        W32648   5.965   8.122   2.479 -0.1341 -0.0361  0.2851
16388W        W32649  14.588   0.239  13.352  0.1058  0.0810  0.3834
16389W        W32650  11.785  13.399  12.320  0.0871  0.1580 -0.2545
16390W        W32651   9.966  16.049   4.207  0.3210 -0.1580 -0.3274
16391W        W32652   1.886   7.186   3.239 -0.0762 -0.1443  0.1088
16392W        W32653  13.078   7.538  14.274 -0.0565  0.0784  0.0731
16393W        W32654  17.698  16.686  14.928  0.2938  0.0147  0.0104
16394W        W32655   2.096  13.398  13.531  0.0795  0.1616  0.4552
16395W        W32656   7.001   9.702   1.057 -0.2754  0.2074 -0.0396
16396W        W32657   7.766   9.425   5.197 -0.2653 -0.0948  0.0845
16397W        W32658   7.782  11.999   4.682  0.0728  0.2520  0.0610
16398W        W32659   2.190  15.481   5.677  0.3293 -0.1113 -0.1008
16399W        W32660  17.133  10.917   2.529 -0.1244 -0.0151 -0.1187
16400W        W32661   6.052  13.327   3.353 -0.0089 -0.0498  0.1336
16401W        W32662   7.322   0.365   3.765 -0.1821 -0.0591  0.1287
16402W        W32663   1.161   9.295  16.622  0.0052  0.0945  0.0393
16403W        W32664  14.123   8.978   0.480  0.3399  0.1070 -0.5349
16404W        W32665   0.071  13.725   5.675 -0.4742  0.0100 -0.1315
16405W        W32666   3.146   4.782  16.342 -0.3081 -0.2861  0.0219
16406W        W32667  15.181   0.810  11.850 -0.4262 -0.0820 -0.1117
16407W        W32668  16.669   1.111   1.729 -0.0889 -0.3797  0.2391
16408W        W32669   8.963   5.494  14.045 -0.2776  0.0292 -0.1832
16409W        W32670  15.155   4.245   5.004 -0.0562  0.1298  0.2911
16410W        W32671  17.442  13.253  16.488 -0.2854 -0.1335 -0.0622
16411W        W32672   7.062   9.015  14.348  0.1692  0.0806  0.1619
16412W        W32673   2.657  14.861   0.773  0.2601  0.0605  0.1266
16413W        W32674   0.240   1.224   5.254  0.0992 -0.0085 -0.0608
16414W        W32675  16.428  16.914  12.665  0.1330 -0.1083  0.2701
16415W        W32676  11.775   5.007   4.223 -0.0134  0.2460 -0.2129
16416W        W32677   8.027   7.220   2.488  0.2293  0.1090  0.2247
16417W        W32678  13.258  13.400  13.095 -0.1459  0.2174  0.2096
16418W        W32679   5.048  11.064  15.833  0.0227  0.0609  0.1232
16419W        W32680  12.368  15.307   0.294  0.0587  0.0005  0.2969
16420W        W32681   6.162   7.479  14.934 -0.2955  0.2590 -0.2019
16421W        W32682  14.451  11.371  12.849 -0.0874 -0.1778 -0.0091
16422W        W32683   7.132   3.929  12.157 -0.0237 -0.1705  0.0551
16423W        W32684   8.441   5.255   1.282  0.2055  0.0161  0.0655
16424W        W32685   0.452   0.250   1.249  0.2930  0.0416  0.2357
16425W        W32686  15.251   7.332  13.841  0.0769 -0.1971  0.2334
16426W        W32687  13.145   3.756  15.453 -0.2485  0.1530  0.2057
16427W        W32688  13.328   4.850  14.610 -0.1296 -0.0822  0.0628
16428W        W32689   0.965   6.485   0.287  0.1643  0.0438  0.0669
16429W        W32690  12.317  10.476   0.539 -0.2949 -0.4043  0.1125
16430W        W32691  10.792   9.811  11.339 -0.0861  0.0591  0.1372
16431W        W32692   3.817   3.879   0.481 -0.2492  0.0747  0.1199
16432W        W32693   6.028  13.734  15.311 -0.2694 -0.0570 -0.0039
16433W        W32694   6.455   3.953  14.791 -0.1373 -0.0355 -0.2605
16434W        W32695   3.220   5.586  12.027 -0.1088  0.0563 -0.0021
16435W        W32696   3.300   0.013  15.412  0.2050 -0.0487  0.1007
16436W        W32697  11.855   6.810   2.965 -0.0984 -0.0063  0.1721
16437W        W32698   1.099  13.100  15.237  0.1648 -0.2186 -0.1262
16438W        W32699  11.745  13.499   6.737  0.0432  0.1146 -0.3212
16439W        W32700  16.040  13.924  14.365  0.0652  0.0111 -0.2824
16440W        W32701  16.892   4.536   2.553  0.3254  0.1637 -0.0111
16441W        W32702   5.650   7.610   3.581 -0.0863  0.3119  0.0831
16442W        W32703   3.165   7.554  12.673 -0.2141 -0.0010  0.0304
16443W        W32704  15.872   3.448   1.664  0.3596  0.0037  0.0012
16444W        W32705  12.746   6.522  15.191 -0.1327 -0.0237  0.3607
16445W        W32706   9.012   6.979   0.008  0.2537 -0.1059 -0.0256
16446W        W32707   5.617   6.529   5.571 -0.2331  0.0265  0.0455
16447W        W32708   4.366   2.675   0.595 -0.3305  0.3242  0.0372
16448W        W32709  10.670  16.117  16.604  0.0667 -0.0182  0.1609
16449W        W32710   2.213   0.214   0.160 -0.0568  0.0228 -0.0453
16450W        W32711  11.608  16.745   3.498 -0.0643  0.1284  0.3160
16451W        W32712   9.419  14.275  14.542  0.4408  0.2253  0.0985
16452W        W32713  16.874   0.067  14.464 -0.0394 -0.0799 -0.1845
16453W        W32714   2.939   7.026   2.567 -0.0760 -0.2556  0.2246
16454W        W32715   0.921  14.193  14.968  0.0600  0.1585  0.0104
16455W        W32716  11.048   3.357   3.361 -0.2633 -0.3243 -0.0874
16456W        W32717   1.859   6.700   0.927  0.2626  0.0989 -0.3944
16457W        W32718   6.574   7.916   1.767  0.2682  0.1750  0.1438
16458W        W32719  10.168  13.865  13.493 -0.0203 -0.1157  0.0341
16459W        W32720  13.980   6.642  14.260 -0.1272  0.3037 -0.2068
16460W        W32721  11.460  12.013  11.859 -0.0461  0.1170 -0.0278
16461W        W32722   7.548   5.453  13.202  0.0097 -0.1724  0.2350
16462W        W32723  10.394  13.332  15.163 -0.1240 -0.3291 -0.1694
16463W        W32724   3.529   2.475  15.739 -0.1463 -0.1308 -0.1910
16464W        W32725   8.082   3.751   3.593 -0.2049  0.0804  0.0408
16465W        W32726  10.204  17.080  16.636 -0.0068 -0.2339  0.0473
16466W        W32727   5.860  16.682   5.354 -0.1820 -0.0873  0.2298
16467W        W32728  11.819  11.303   1.292 -0.1074  0.2143  0.0143
16468W        W32729  10.961   6.671  15.219 -0.0136  0.1159  0.1557
16469W        W32730  14.461   5.387   4.522 -0.3289 -0.2008 -0.4158
16470W        W32731  12.710   2.178   2.009  0.0401 -0.0733 -0.2921
16471W        W32732   7.537   7.560  15.480 -0.0754 -0.1726  0.1612
16472W        W32733  10.540  15.556  14.328  0.0563 -0.3504 -0.1299
16473W        W32734  16.848   5.553   2.922 -0.3528 -0.1179 -0.0849
16474W        W32735   3.679  14.098  14.607  0.3190  0.2479  0.4532
16475W        W32736  10.981   6.062  12.833 -0.1385 -0.0735  0.1946
16476W        W32737   3.182  11.370   0.700  0.0267  0.0025  0.0728
16477W        W32738  14.415   0.421   5.369 -0.2436  0.0170 -0.5452
16478W        W32739  11.862   2.821   0.486 -0.2678  0.0153 -0.1854
16479W        W32740   6.675   8.421  14.567 -0.1613 -0.0612 -0.0001
16480W        W32741   4.490  12.708  14.279  0.1261 -0.1007  0.1388
16481W        W32742   7.304   4.653  15.655 -0.1466  0.1505  0.2063
16482W        W32743  15.645   3.297  16.116  0.0026  0.2758 -0.0113
16483W        W32744   8.022  14.481   2.148 -0.0687  0.0674  0.0930
16484W        W32745   6.680   9.453  15.992  0.4343 -0.2050 -0.1426
16485W        W32746   5.422  16.538   4.894 -0.2429 -0.0245  0.0930
16486W        W32747   9.161  10.667   3.176 -0.3393  0.1985  0.2021
16487W        W32748   0.501  16.714  13.847  0.1589 -0.0558  0.0239
16488W        W32749  10.034   8.936  13.036  0.2701  0.2930  0.1437
16489W        W32750   8.116   1.310   2.673  0.0135  0.1243  0.1507
16490W        W32751  17.062  12.719  15.858 -0.1571  0.0421  0.0149
16491W        W32752   0.804  12.292   5.681  0.0679  0.3409  0.3320
16492W        W32753   0.257  11.381   2.796 -0.3436  0.0618  0.0740
16493W        W32754   6.470  12.386  13.037 -0.1273 -0.4326  0.4523
16494W        W32755  13.410  14.251  11.925 -0.0466 -0.3213  0.0111
16495W        W32756  16.246  11.337  12.435  0.3406  0.3535  0.1203
16496W        W32757   2.106   4.348   4.880  0.0215  0.0446 -0.1903
16497W        W32758  15.064   3.158  12.126 -0.0111  0.3755  0.2543
16498W        W32759   2.185  14.196   5.859  0.2478 -0.0105 -0.0488
16499W        W32760  14.147  13.915   4.180 -0.1426  0.0648 -0.0413
16500W        W32761  16.832   9.519   5.308 -0.0365  0.2557 -0.0119
16501W        W32762   2.051   1.805   0.410  0.1170  0.2485 -0.0609
16502W        W32763   4.783  11.802   0.467  0.1187 -0.1125  0.2525
16503W        W32764  10.356  14.959  13.328  0.0557  0.3078 -0.2784
16504W        W32765   7.879   2.030  16.018  0.1968  0.2515 -0.0332
16505W        W32766   9.202  17.584   5.705  0.0926 -0.0004  0.0522
16506W        W32767   1.705   9.276  16.062 -0.1077  0.3352 -0.4816
16507W        W32768   7.388   7.961   4.661 -0.0933  0.0901  0.2987
16508W        W32769   0.054  14.641   2.845  0.0333 -0.2108 -0.3276
16509W        W32770  14.509  10.327   2.137  0.0869  0.0988 -0.0367
16510W        W32771  15.488   3.165  16.699  0.2067  0.1978 -0.0272
16511W        W32772  16.770  17.581   1.370  0.1351  0.1066 -0.1940
16512W        W32773  15.665   9.848  13.960 -0.1992  0.0517  0.2440
16513W        W32774  17.667  17.368  14.083  0.2692 -0.1069 -0.0262
16514W        W32775  12.316   6.948  14.508 -0.2557 -0.0937 -0.0665
16515W        W32776   2.225  11.224  13.386 -0.2236 -0.3972  0.0065
16516W        W32777  11.624   0.323  14.073  0.1571 -0.3016  0.1446
16517W        W32778   2.112   7.337  14.759 -0.2183  0.2840 -0.0055
16518W        W32779   6.072   6.240   2.045  0.0330 -0.2268 -0.1925
16519W        W32780  12.265   5.307  15.137  0.1432 -0.0718  0.0919
16520W        W32781  12.836  17.201  15.465  0.0764  0.1925 -0.1473
16521W        W32782  15.979   4.599  14.483  0.0433  0.0219 -0.1224
16522W        W32783  17.248   5.666   1.174 -0.0895 -0.2101  0.1713
16523W        W32784  16.432  11.938   3.843 -0.0139  0.2767  0.0933
16524W        W32785   4.829  13.770   0.399  0.0852 -0.1412  0.0386
16525W        W32786   9.379   9.589  15.709 -0.0429  0.0048 -0.1574
16526W        W32787  16.408   1.792   4.590 -0.1294 -0.1377 -0.1519
16527W        W32788  11.365  12.802   0.693  0.1679 -0.1773 -0.1211
16528W        W32789   4.938  10.674   2.327 -0.0594 -0.0042 -0.0566
16529W        W32790   8.074  14.382  10.605  0.1136 -0.2444 -0.3296
16530W        W32791   2.339  17.682   5.177 -0.1236  0.0972 -0.0482
16531W        W32792   2.638  17.502   3.537  0.1428 -0.3297  0.0767
16532W        W32793   0.456   5.212   6.607  0.3608 -0.1750  0.0024
16533W        W32794   9.479   8.585   1.983 -0.0713 -0.0013  0.2911
16534W        W32795  16.012  13.244   4.045 -0.1317 -0.2122  0.1653
16535W        W32796   2.921   0.433  13.163 -0.1812  0.0908 -0.0093
16536W        W32797   3.389  11.471   3.877 -0.1172  0.0147 -0.1369
16537W        W32798   9.814  16.764   4.845 -0.3739  0.0655  0.0411
16538W        W32799  13.036  14.439  12.769  0.0256  0.0516 -0.3073
16539W        W32800  11.679  16.974   4.775 -0.1628  0.1392 -0.1471
16540W        W32801   0.516  15.508   1.918 -0.0001  0.0971  0.2445
16541W        W32802  12.782  17.362  14.224  0.0744  0.2670 -0.2867
16542W        W32803   1.417   8.478  14.613  0.1774 -0.0161  0.0158
16543W        W32804  16.367  10.891   1.085  0.0321 -0.0930  0.1306
16544W        W32805   4.822   7.842  14.619 -0.2973 -0.2584  0.1872
16545W        W32806  12.719  12.024  16.977  0.1497 -0.1349  0.1950
16546W        W32807   5.266   9.897  11.996 -0.2035 -0.0684 -0.0474
16547W        W32808   4.371   8.000  13.247  0.0446 -0.5345  0.1709
16548W        W32809  17.486  11.566  11.937  0.0301 -0.1447 -0.0978
16549W        W32810  11.685  16.536   3.984 -0.1165 -0.1377  0.3327
16550W        W32811   5.100  11.672   0.867  0.0800 -0.1416  0.4024
16551W        W32812  11.537   7.684  12.431 -0.2850 -0.1101 -0.0168
16552W        W32813   9.710   3.492  15.600 -0.1068  0.0825  0.0596
16553W        W32814  17.798   1.479   2.173 -0.2884  0.0142  0.0025
16554W        W32815  14.460  16.973   0.745  0.3486  0.0560  0.0761
16555W        W32816  12.749   9.540  12.214 -0.0009 -0.0025  0.0825
16556W        W32817  13.038  11.112   5.650 -0.1035 -0.1576 -0.1070
16557W        W32818   5.515  14.769  12.972 -0.2465  0.0155  0.1014
16558W        W32819   8.267  11.100  14.442  0.3618  0.0021  0.1482
16559W        W32820   2.176   9.824   3.021  0.0152 -0.0315 -0.1173
16560W        W32821  12.045  17.717   2.754  0.1543 -0.0893 -0.0756
16561W        W32822  10.949   5.282  16.397 -0.3111 -0.3164  0.0192
16562W        W32823   2.558   6.713  15.731 -0.0370 -0.0309  0.2007
16563W        W32824   9.754   1.361   3.605 -0.2728 -0.2629 -0.2739
16564W        W32825  10.213  17.152  16.194  0.1600  0.0772  0.5431
16565W        W32826  17.253   7.899   1.457  0.1742  0.0914  0.0389
16566W        W32827  11.762   1.775   5.633 -0.0201 -0.1183 -0.2253
16567W        W32828   5.023  12.608   3.241  0.0391 -0.3243 -0.1863
16568W        W32829  10.602   2.135  16.873 -0.0259 -0.1816  0.1269
16569W        W32830   4.688  10.256  12.632  0.0128  0.1304  0.0222
16570W        W32831   9.263   8.504   0.364 -0.2866  0.1808  0.1279
16571W        W32832  17.087  16.589   4.713  0.1554  0.0823  0.2015
16572W        W32833   8.407  16.245   0.965  0.1509  0.2858  0.1109
16573W        W32834   8.962  16.399   2.127 -0.0403 -0.1259 -0.0448
16574W        W32835  17.726   2.486  16.285 -0.2819  0.1853  0.0230
16575W        W32836  17.585  13.741  12.101  0.1270 -0.1635 -0.0761
16576W        W32837   6.177   6.786   2.279  0.1004 -0.0716 -0.0193
16577W        W32838  17.046   7.847  15.713 -0.3303 -0.1303 -0.1104
16578W        W32839  17.109   7.734   5.246  0.0516  0.2613  0.0054
16579W        W32840   7.911  17.376   0.500 -0.0683  0.2783 -0.1702
16580W        W32841  10.082   6.280  12.602  0.3629 -0.0179 -0.0077
16581W        W32842   3.654   7.391   1.911 -0.0076 -0.3306  0.1651
16582W        W32843  13.862   6.140  14.057 -0.1283 -0.2822 -0.0042
16583W        W32844   0.148   1.684  13.156 -0.1362 -0.1381  0.1927
16584W        W32845   5.375   9.804   5.017  0.3629 -0.0458 -0.0113
16585W        W32846  12.372  10.461  16.108  0.3481  0.3313  0.1222
16586W        W32847   4.788  15.040  11.561 -0.0567 -0.1283  0.0410
16587W        W32848   4.109  14.004   4.278  0.0221 -0.1112 -0.0250
16588W        W32849   3.469  16.544  12.236  0.1320  0.1701  0.0923
16589W        W32850  12.149   3.933   3.565 -0.1801 -0.0585 -0.0128
16590W        W32851  12.382  17.797  13.591 -0.0494  0.4508  0.0516
16591W        W32852   8.391   5.644  11.565 -0.1613  0.3847 -0.2795
16592W        W32853   8.268   2.995  16.034  0.0679  0.0856  0.0598
16593W        W32854  13.398   2.734   2.041 -0.1501  0.0530  0.2661
16594W        W32855   7.067   7.592   2.513  0.0545 -0.1029  0.2550
16595W        W32856  15.581   7.226   2.953  0.4741  0.1684  0.0282
16596W        W32857   6.538   2.439   5.174 -0.0562  0.0087  0.0827
16597W        W32858   4.857  10.417   1.880 -0.0257  0.1806  0.1863
16598W        W32859   3.749   4.706  13.509 -0.0611 -0.0426  0.1184
16599W        W32860  16.999   5.497  15.274  0.3195  0.1114 -0.2701
16600W        W32861   3.217   2.087  15.762  0.1894 -0.1056  0.0459
16601W        W32862   8.036  15.769   2.191  0.0422 -0.0077 -0.0746
16602W        W32863   1.850  13.852   2.586 -0.0626  0.1794 -0.0787
16603W        W32864   9.762  12.339  13.622  0.0293 -0.0465  0.3085
16604W        W32865   5.407  11.571   2.811 -0.1910 -0.4044  0.0278
16605W        W32866  14.080   9.888   1.959  0.2568  0.0859 -0.4602
16606W        W32867  17.745  14.149  13.679 -0.0889 -0.1494 -0.2119
16607W        W32868   2.575  15.939   4.091 -0.3687 -0.2602 -0.2652
16608W        W32869  15.249   8.035  13.120  0.1313  0.0200  0.1313
16609W        W32870   9.136   1.267   2.994 -0.5458 -0.0956  0.2710
16610W        W32871   5.118   6.814  11.634 -0.0402  0.2039  0.1501
16611W        W32872   7.862   3.589   0.535 -0.1931 -0.2227  0.0622
16612W        W32873   8.940   5.692  11.236 -0.0609 -0.1394  0.3347
16613W        W32874  17.375  15.047  15.709  0.0569  0.3478 -0.0446
16614W        W32875  11.864   9.747   1.413  0.1106  0.0116  0.0643
16615W        W32876   9.985   7.315  12.039 -0.2365 -0.1017 -0.1636
16616W        W32877   5.996   6.915  14.136  0.0996  0.0934 -0.1590
16617W        W32878   1.206   0.954  12.915  0.0162 -0.0859  0.0144
16618W        W32879  17.002   5.640   1.619  0.4886  0.3909  0.0273
16619W        W32880   7.144  10.413   4.475  0.1747  0.1406  0.1684
16620W        W32881  15.440   0.560  15.938 -0.3104 -0.1407  0.0201
16621W        W32882   1.194  14.232  15.810  0.2211  0.1891  0.1209
16622W        W32883  13.047  11.738  14.860  0.0187 -0.2043  0.2041
16623W        W32884  14.953  11.468  14.305  0.2247 -0.1382 -0.0331
16624W        W32885   6.832   6.708  15.341  0.0599 -0.0703  0.0489
16625W        W32886  12.682   9.528   2.355 -0.1135 -0.1511 -0.0348
16626W        W32887  14.758  10.287   3.517 -0.0816  0.0504  0.3587
16627W        W32888  11.025  12.305   5.080  0.0746 -0.1959  0.0814
16628W        W32889   2.056   4.784   0.422 -0.0114 -0.1514 -0.2172
16629W        W32890   1.803  15.850   0.571 -0.1275  0.2626 -0.0796
16630W        W32891  15.860  12.325   3.376 -0.1279 -0.1276 -0.1647
16631W        W32892  10.339  11.166  13.547  0.2709 -0.1813  0.1753
16632W        W32893   9.130  16.178  13.398  0.0291 -0.1352  0.0384
16633W        W32894   0.589   1.958   5.526  0.0258 -0.0093  0.6179
16634W        W32895   9.239   8.299   2.257 -0.1655 -0.0341  0.0065
16635W        W32896   5.944  10.385  11.952  0.2364 -0.1550 -0.3156
16636W        W32897  13.274  12.916   4.244  0.1282 -0.0501 -0.1223
16637W        W32898   1.290   1.386   4.962 -0.0190  0.0858 -0.1601
16638W        W32899   2.791   5.703   4.038  0.2378 -0.3679  0.0884
16639W        W32900  10.339  10.637  14.272  0.2705  0.0808 -0.3131
16640W        W32901  10.006   7.783   4.666  0.0604 -0.4112 -0.0292
16641W        W32902   9.310  11.767   4.580  0.2060 -0.2958 -0.2978
16642W        W32903   8.342  13.442  14.362  0.0751 -0.1505 -0.4107
16643W        W32904   5.799   5.226  15.394  0.1848  0.0049  0.0230
16644W        W32905  13.600   1.156  13.898  0.1702  0.0211  0.0393
16645W        W32906   3.965   9.365  14.834 -0.2218  0.3133 -0.0475
16646W        W32907   0.214   4.887  12.033  0.4318  0.0097  0.2955
16647W        W32908   9.686  12.338  12.143 -0.2119 -0.0556 -0.4760
16648W        W32909   1.776   1.083   3.822  0.1675  0.0779  0.5106
16649W        W32910  13.157  15.259   5.094  0.0162 -0.1534  0.2950
16650W        W32911   2.430  12.210   1.215  0.1454  0.2184  0.2143
16651W        W32912  13.673   8.702   3.567  0.0919 -0.0153  0.0725
16652W        W32913   1.718   2.305   0.300 -0.0755  0.2749 -0.0711
16653W        W32914  10.528   1.098  15.972  0.3299  0.0376 -0.0434
16654W        W32915  13.647  14.348   0.027  0.0115  0.3009  0.0007
16655W        W32916  16.022   0.302  15.199  0.1863 -0.1909 -0.0671
16656W        W32917   5.789   2.363  16.234 -0.1538  0.0353 -0.1286
16657W        W32918  13.918  16.803   5.656 -0.1225 -0.1925 -0.0425
16658W        W32919  10.446   7.725   3.858 -0.1088  0.1261  0.2470
16659W        W32920  17.269  16.854  16.737 -0.2040  0.0204  0.0847
16660W        W32921   1.581  10.605  14.634  0.1032  0.1741  0.0016
16661W        W32922  11.926   5.216   1.669  0.0781 -0.0333  0.0660
16662W        W32923   5.916  13.394   0.053  0.0373 -0.1290 -0.0923
16663W        W32924   7.871   5.751  14.019 -0.2600  0.1035 -0.3584
16664W        W32925   4.923   2.735   2.576 -0.0441  0.3415  0.0858
16665W        W32926   7.305  13.271  15.269  0.2123  0.0996 -0.0967
16666W        W32927   0.241   8.120   4.726 -0.1422 -0.1004 -0.1002
16667W        W32928   7.044   1.353  11.757 -0.1937 -0.0817 -0.1230
16668W        W32929   4.174   1.317   0.682  0.1865 -0.0931  0.1142
16669W        W32930  13.791  12.745  16.926  0.2023 -0.1714 -0.1304
16670W        W32931  10.372   0.643  13.432 -0.1351 -0.0412  0.1478
16671W        W32932   0.635   9.975   2.853  0.4036  0.0751  0.1184
16672W        W32933   7.217  17.080  15.939 -0.1342  0.1814  0.4099
16673W        W32934  14.236  12.103  12.159  0.0341  0.1402  0.0079
16674W        W32935   1.947   9.325   4.322 -0.0636 -0.0164  0.2650
16675W        W32936   9.463   9.652   5.739 -0.3092  0.0134 -0.0825
16676W        W32937   5.952   7.368  14.377  0.0521 -0.2224 -0.0347
16677W        W32938  15.679   3.386   4.190 -0.2300  0.1261 -0.0559
16678W        W32939  14.415  13.822   0.134 -0.1533  0.1331 -0.1357
16679W        W32940   1.882   5.910   0.345 -0.1789  0.1965 -0.1714
16680W        W32941   6.442   3.425   1.359  0.0506  0.0187  0.0375
16681W        W32942   3.103  13.295  12.748 -0.2386  0.3200  0.1619
16682W        W32943   0.155   8.916   4.478 -0.0764 -0.1626  0.1374
16683W        W32944   6.388   7.382   4.171  0.0040  0.1843 -0.2922
16684W        W32945  11.516   9.824   5.112  0.0289 -0.3014  0.0257
16685W        W32946   2.408   4.688   2.311  0.2515 -0.1410 -0.2992
16686W        W32947  13.377   0.564   1.858  0.3399  0.3557 -0.0222
16687W        W32948  10.227  17.600  16.972  0.0005  0.1317  0.1107
16688W        W32949  17.227  14.542  11.652  0.2415 -0.0070 -0.1596
16689W        W32950  13.334   9.621  15.680 -0.0845 -0.1401 -0.2035
16690W        W32951  11.119  10.132  14.889  0.0502  0.1013  0.1328
16691W        W32952   9.537   0.440   0.771  0.1008  0.0352 -0.4390
16692W        W32953  12.394   2.905   3.619 -0.0245 -0.0063  0.2765
16693W        W32954  12.496   6.423   1.770 -0.0336  0.1317 -0.0536
16694W        W32955  17.649   4.417  15.304  0.0661  0.1539  0.2216
16695W        W32956   0.759  11.935   5.264  0.1738 -0.0353  0.1921
16696W        W32957   4.047   0.247   0.373  0.0767 -0.0774  0.1496
16697W        W32958  15.672  16.050  16.003  0.2389 -0.0537 -0.2951
16698W        W32959  16.560   4.859   3.435  0.1149  0.2499 -0.0675
16699W        W32960   3.721  10.208  12.349  0.0125 -0.0291  0.0626
16700W        W32961  10.200   0.932   0.637  0.1296 -0.1666 -0.2177
16701W        W32962   6.261   9.947  14.302 -0.1643 -0.0863  0.2127
16702W        W32963  11.701  10.130  11.183  0.1034 -0.0098 -0.1172
16703W        W32964   2.103   4.685  11.922 -0.1068  0.0189 -0.0695
16704W        W32965  13.489  16.598  16.542 -0.0836 -0.3014 -0.1158
16705W        W32966  10.370   6.319  14.523 -0.2733 -0.1616  0.4317
16706W        W32967  13.219  14.300   6.034  0.1095  0.0396 -0.1729
16707W        W32968   5.103   6.619   4.300 -0.2084 -0.1886  0.1292
16708W        W32969  12.820   1.032  11.514  0.0943  0.0151  0.2231
16709W        W32970  14.513   5.615   0.986  0.1573  0.0677  0.3719
16710W        W32971  16.642  10.684   2.600  0.0772  0.2984  0.2293
16711W        W32972   5.546  11.864   3.674 -0.0078  0.0035  0.2734
16712W        W32973   7.056   3.874  12.660 -0.0866 -0.0354 -0.0425
16713W        W32974  17.267  12.196   0.014  0.5088 -0.0077  0.0269
16714W        W32975   2.667  10.904  14.079  0.1040  0.1011  0.0296
16715W        W32976  16.416  13.519  16.557  0.0689 -0.1802  0.0214
16716W        W32977  14.986   8.335  12.793  0.0614 -0.1725  0.2464
16717W        W32978  13.969  16.780   0.476  0.0735  0.1218  0.4340
16718W        W32979  11.064  17.545   2.154 -0.1503  0.1921  0.1494
16719W        W32980   9.799   7.933   3.185  0.0944  0.1191  0.0137
16720W        W32981  12.198  12.758   5.109 -0.1252 -0.0695 -0.0677
16721W        W32982   0.431   9.665  14.159 -0.0814 -0.0120 -0.0348
16722W        W32983  14.395   0.516  13.714  0.0773 -0.1589 -0.1124
16723W        W32984  13.134   2.483   4.870  0.0074  0.0054 -0.3193
16724W        W32985   0.743   8.173  13.538  0.0976  0.3383 -0.0545
16725W        W32986  10.205  12.904  12.501  0.2700 -0.3250 -0.2166
16726W        W32987   3.123   9.579  13.838 -0.0576 -0.1258 -0.3926
16727W        W32988   6.167   8.552  16.769 -0.0320 -0.2695 -0.0525
16728W        W32989   7.977   7.690  15.660  0.0071  0.1544  0.0998
16729W        W32990   2.442   4.776   1.318  0.1209  0.0564 -0.2450
16730W        W32991   8.805   1.701  14.915  0.0029  0.3325  0.0138
16731W        W32992   7.103  14.915   2.452  0.0668  0.0413 -0.2332
16732W        W32993   2.599   0.186   2.664 -0.1069 -0.0019 -0.3136
16733W        W32994  15.207   0.851   5.206  0.0209 -0.0329 -0.0343
16734W        W32995  10.412  10.227  12.966  0.1351 -0.3372  0.0579
16735W        W32996   6.606  16.048  14.776 -0.1387 -0.1301 -0.3023
16736W        W32997   6.653   2.511  14.054 -0.2839 -0.0788  0.2228
16737W        W32998   6.367   7.703   4.639 -0.3667 -0.1704 -0.0937
16738W        W32999   7.799  16.715  12.201  0.3218  0.0264 -0.2372
16739W        W33000  12.602  17.792  14.776  0.0265  0.1323 -0.0616
16740W        W33001   5.763   9.993   2.080 -0.1140 -0.0924 -0.1888
16741W        W33002   9.330   5.459   1.069 -0.0982  0.2030  0.0162
16742W        W33003   4.040   8.206  16.183  0.1271  0.1493 -0.1157
16743W        W33004   0.705   0.390   0.854  0.2491 -0.1798 -0.0307
16744W        W33005  17.459   4.646  13.028 -0.0642  0.0689 -0.1047
16745W        W33006  14.000   8.704  12.700 -0.1579 -0.2801  0.1279
16746W        W33007   8.051   5.230  11.746  0.1305  0.3909 -0.2129
16747W        W33008  16.501   2.296  12.725  0.0244  0.1181 -0.1509
16748W        W33009   7.633   3.512   0.097  0.2012 -0.0506 -0.0336
16749W        W33010  10.439   9.291  12.146 -0.0047  0.0383 -0.0605
16750W        W33011  12.299  11.329  13.326 -0.0060 -0.3106  0.0916
16751W        W33012   5.155  14.005  11.912 -0.5276  0.1184  0.1131
16752W        W33013  14.292  13.984   5.935  0.0426 -0.0157  0.0712
16753W        W33014   0.635   5.120  15.336 -0.2065 -0.0276  0.0029
16754W        W33015   0.030  13.275  13.747 -0.1581 -0.0859 -0.1780
16755W        W33016   2.617   9.139   2.781  0.1002  0.2404  0.2949
16756W        W33017   3.603   3.425  11.832  0.0280  0.2079 -0.0843
16757W        W33018   1.242  13.890   3.633  0.0329 -0.2409  0.1706
16758W        W33019   7.463   4.590   4.799 -0.1552  0.1157 -0.2496
16759W        W33020   0.338   2.351   0.794  0.0543 -0.0264 -0.1337
16760W        W33021  11.863   0.577  15.225 -0.4230 -0.1534  0.0804
16761W        W33022   5.932   0.208  15.167  0.1449  0.1441  0.1224
16762W        W33023  14.889  11.372   3.904 -0.0844 -0.1815 -0.0397
16763W        W33024  16.550   6.660   0.936  0.0924 -0.0922  0.0142
16764W        W33025   2.260   2.500  16.079  0.1059  0.1336  0.1416
16765W        W33026   2.970  12.547   1.182  0.2609  0.1260  0.2757
16766W        W33027   8.777   6.114   3.644 -0.0744 -0.3827  0.0692
16767W        W33028  17.843   1.223  12.174 -0.2053  0.1264  0.0758
16768W        W33029   1.629  15.994  13.614  0.0998  0.1407  0.1625
16769W        W33030  17.377  13.931  12.653  0.0089 -0.2737 -0.0858
16770W        W33031   6.402  12.175  12.583 -0.1510 -0.1989  0.0362
16771W        W33032   4.227   1.945   2.210  0.2128  0.3560  0.0613
16772W        W33033   9.819  16.950   5.904  0.5010  0.1596  0.0601
16773W        W33034  11.378   9.412  11.326 -0.3608 -0.3370  0.0142
16774W        W33035  16.939   5.909  16.100  0.2948 -0.1945 -0.0790
16775W        W33036   0.117  15.902   1.947  0.1229 -0.2895  0.1661
16776W        W33037  13.510   1.509   0.907  0.0670  0.1174 -0.1833
16777W        W33038   7.685  15.555  16.782  0.2539 -0.3957 -0.0326
16778W        W33039  12.344   7.305  15.392 -0.4360  0.0660 -0.0896
16779W        W33040  13.304   8.440  13.276 -0.0112 -0.2798 -0.1121
16780W        W33041   7.664   9.400  16.762  0.0604 -0.1422 -0.0537
16781W        W33042  13.453  12.010   2.629 -0.0918 -0.1419 -0.0784
16782W        W33043  13.853  13.032  15.223  0.1619  0.1949 -0.1267
16783W        W33044   9.874  13.585   1.371 -0.0463 -0.0210  0.3299
16784W        W33045   8.011  16.753  12.765 -0.0511 -0.0249  0.2048
16785W        W33046   3.445  11.921   4.068  0.2096 -0.5156 -0.1827
16786W        W33047  15.786  16.568  15.861 -0.0522  0.0925 -0.2390
16787W        W33048  12.912  16.053   5.482 -0.0835 -0.2957 -0.0644
16788W        W33049  15.405   1.529  14.936 -0.3112  0.1204 -0.0691
16789W        W33050   6.904  16.195   2.775 -0.1358  0.0702  0.2346
16790W        W33051   6.848   3.619   1.588 -0.1990  0.0558 -0.0146
16791W        W33052  10.626   8.005  15.187 -0.0175 -0.1940 -0.0910
16792W        W33053   7.369   2.405   3.180  0.2526  0.2103  0.3053
16793W        W33054   9.470   7.928   1.198  0.2563 -0.4944  0.1169
16794W        W33055  17.383   3.620   0.498 -0.0355  0.4283 -0.0613
16795W        W33056  14.971  14.794  14.201  0.0069  0.0384  0.0098
16796W        W33057   1.692   7.423  14.535 -0.1445 -0.0273  0.1992
16797W        W33058   9.308  16.670   5.791 -0.1365 -0.3483 -0.1228
16798W        W33059  17.789  12.221  13.174  0.1076  0.0363  0.0389
16799W        W33060   6.999  14.653   4.904 -0.2175  0.0215  0.0811
16800W        W33061   7.960  14.029   3.832  0.0625 -0.0973 -0.3376
16801W        W33062  13.475   5.457   1.657 -0.1981  0.0948 -0.1655
16802W        W33063   5.963   1.526   2.834 -0.1217  0.0510  0.0723
16803W        W33064  15.319   2.029   0.493  0.2336 -0.0852 -0.0686
16804W        W33065   1.807  11.778  12.269 -0.0834 -0.0553  0.3234
16805W        W33066   2.496  13.789  13.122 -0.1062  0.0476  0.0698
16806W        W33067   1.062   7.243   2.853 -0.1687 -0.1747 -0.3391
16807W        W33068  12.809   9.703  13.087 -0.2783 -0.1662  0.1167
16808W        W33069  16.703   4.029  14.030 -0.0979 -0.1979 -0.1035
16809W        W33070   0.914  11.771  15.269  0.0313  0.1909 -0.1549
16810W        W33071   4.533   2.346  14.613  0.4747 -0.0547  0.1562
16811W        W33072  12.268   6.544  12.551  0.0098 -0.0133  0.0083
16812W        W33073  13.648   0.089   5.409  0.0157 -0.2957  0.0796
16813W        W33074   4.398   3.446  16.913 -0.1419  0.1211  0.1751
16814W        W33075  11.439   1.925  16.283  0.3248  0.2449 -0.0463
16815W        W33076  16.859  12.384   4.956 -0.2157 -0.0763 -0.1866
16816W        W33077  12.744  10.467   5.233  0.0092  0.0253  0.1050
16817W        W33078   5.142  12.291   0.698 -0.0857  0.1344  0.4004
16818W        W33079  15.579   1.040  12.139 -0.1393 -0.1528 -0.2181
16819W        W33080   4.483   5.245   0.892 -0.3841  0.1047 -0.1504
16820W        W33081   4.389   2.883   4.240 -0.2338  0.2671  0.1395
16821W        W33082  14.534   1.796  12.488 -0.0935 -0.4004  0.1352
16822W        W33083  10.591   4.555  11.658  0.2696  0.2395 -0.0284
16823W        W33084   5.257   2.817  16.817  0.1240  0.1917 -0.0991
16824W        W33085   2.334  12.945  11.971  0.1014 -0.1663  0.1732
16825W        W33086   5.892   1.141   3.904  0.2656  0.1759 -0.2442
16826W        W33087   5.099  17.752   2.241  0.3158 -0.0237  0.0760
16827W        W33088   3.225  14.989   4.229  0.1215 -0.0434  0.1972
16828W        W33089  14.757   3.702  16.170 -0.0081 -0.0292  0.0562
16829W        W33090  14.930   9.051  16.349 -0.1167  0.3546 -0.0074
16830W        W33091  17.238  17.408   2.206  0.1636 -0.1607  0.0724
16831W        W33092  17.221  17.739   0.104  0.2254 -0.0430 -0.1433
16832W        W33093   0.710   9.195  14.855 -0.0426  0.3349 -0.1619
16833W        W33094   7.379  17.785  15.468  0.1599  0.3215  0.1050
16834W        W33095  16.396  15.895   3.794  0.2746 -0.0139  0.0395
16835W        W33096   2.207  10.483  12.731  0.0016 -0.0440  0.0615
16836W        W33097  13.415  16.214   3.201 -0.0250  0.0684  0.3402
16837W        W33098   1.243  14.768   3.854  0.1783  0.4907  0.2742
16838W        W33099  11.873  15.603   4.783 -0.2129 -0.1446 -0.2278
16839W        W33100   3.195   8.552   0.782  0.1424  0.0441  0.0423
16840W        W33101   2.250   5.617  15.887 -0.1339 -0.1991  0.2659
16841W        W33102  11.920  11.187  12.012 -0.0877  0.0049  0.3564
16842W        W33103   2.320  14.979  14.796  0.0622  0.0018  0.0874
16843W        W33104  16.688  10.213   4.915  0.0987  0.3296  0.1401
16844W        W33105   9.282  15.529  15.405  0.1208  0.1212 -0.0901
16845W        W33106   9.396  12.090   3.366  0.3631 -0.3643  0.0733
16846W        W33107  12.257  16.056  15.897  0.1288 -0.0597  0.0507
16847W        W33108   5.644  12.866  14.795  0.0212  0.0351 -0.0621
16848W        W33109  13.503   2.816   4.450  0.1374  0.1794  0.1385
16849W        W33110  16.137  14.252   1.604 -0.1758 -0.1135  0.1790
16850W        W33111  17.143   7.774   0.048 -0.3210 -0.0844  0.2931
16851W        W33112  15.793  12.169   2.368 -0.1454 -0.3077  0.2234
16852W        W33113   1.542  16.999  13.621  0.1295  0.1791  0.1510
16853W        W33114   3.724  10.698  10.871  0.0961 -0.0302  0.1314
16854W        W33115  12.281   9.769   4.103 -0.0606 -0.0371  0.0550
16855W        W33116  10.607   9.429   2.413  0.0669 -0.0380  0.0258
16856W        W33117   9.846   3.078  12.766  0.2779 -0.0986 -0.2568
16857W        W33118  16.069  12.142  14.471  0.0084 -0.2929  0.0872
16858W        W33119   1.192   5.946   5.688 -0.0455  0.0406 -0.2915
16859W        W33120   7.535  12.739   2.911 -0.0228 -0.2653 -0.1725
16860W        W33121  14.565   8.032   3.394  0.0669 -0.2161  0.1227
16861W        W33122   7.837  17.036  13.313  0.1853  0.0015  0.2060
16862W        W33123   8.954  12.954   3.059 -0.1772  0.1620 -0.1612
16863W        W33124  12.307   3.309  13.974  0.0302  0.0583  0.1585
16864W        W33125   5.327   7.613  13.827  0.4525 -0.3737  0.2435
16865W        W33126   6.239   9.712  12.699 -0.2420 -0.0272  0.2421
16866W        W33127  16.763   6.397   6.043 -0.1084  0.1140  0.1364
16867W        W33128  12.363  15.653   4.541  0.0064 -0.4029  0.0229
16868W        W33129   6.562   6.044  13.059  0.0778 -0.0000  0.3028
16869W        W33130   5.355   3.115   5.377 -0.2574  0.3116  0.4858
16870W        W33131   7.228   7.989  15.890 -0.1945 -0.0763  0.2187
16871W        W33132   3.100  16.551  11.820 -0.1637 -0.1651 -0.0479
16872W        W33133   4.051   2.104  15.587 -0.1737  0.2812  0.0278
16873W        W33134   3.847   9.453   0.930 -0.1084  0.1248  0.0615
16874W        W33135   1.727   9.328  14.168 -0.0545  0.0161  0.1137
16875W        W33136   5.341  13.859   0.292  0.2429  0.2029  0.0382
16876W        W33137   5.163  15.310  15.734  0.0244 -0.1086  0.0771
16877W        W33138  11.967  11.629  16.771 -0.2411  0.1838 -0.1530
16878W        W33139   3.043  11.630  15.955  0.1089 -0.3646 -0.1115
16879W        W33140  15.025  17.350  13.856  0.2384  0.3291  0.2281
16880W        W33141  16.215   7.033   0.267 -0.0507  0.1849  0.1678
16881W        W33142   7.152   1.401  12.280  0.1720  0.4425  0.1251
16882W        W33143   5.304  13.038  14.121  0.3045 -0.0743  0.2210
16883W        W33144  10.327  13.284   4.684  0.2875 -0.3615  0.0885
16884W        W33145  12.203   0.463  16.137  0.2221  0.0339  0.3295
16885W        W33146   9.716  10.886  12.857 -0.1181  0.1416 -0.1974
16886W        W33147   0.386  16.030  12.749 -0.4073 -0.1236 -0.1317
16887W        W33148  11.095   8.665  11.932 -0.0664 -0.0617  0.0300
16888W        W33149   0.028  13.917  14.517 -0.0426 -0.0581  0.1578
16889W        W33150   2.310   6.119   0.108  0.1601  0.0177 -0.1290
16890W        W33151  12.571  15.450  13.570 -0.1153 -0.3676 -0.0225
16891W        W33152   1.742  11.702   5.430 -0.1801  0.0248  0.1066
16892W        W33153   0.600   2.611   2.426  0.0923 -0.1118  0.0457
16893W        W33154   1.800   9.408   2.256 -0.0437  0.0575 -0.0683
16894W        W33155   0.076  16.082  12.318  0.1601  0.2571 -0.0598
16895W        W33156   8.207   0.514   5.229 -0.4410 -0.1751 -0.0844
16896W        W33157  10.604   9.046  15.096  0.0412 -0.1258 -0.1183
16897W        W33158   9.871   0.774   2.406  0.0178 -0.0679 -0.0198
16898W        W33159   0.666  15.874  15.125 -0.0712 -0.0567 -0.3987
16899W        W33160   7.596  10.413  16.430  0.0836 -0.1457  0.0860
16900W        W33161  15.343   8.922  13.924  0.0045 -0.1927 -0.0313
16901W        W33162   4.812   8.995  16.541 -0.0456  0.2282  0.0629
16902W        W33163   0.458  10.666  16.742 -0.1070  0.2383  0.2375
16903W        W33164   4.235   4.587   5.099  0.0905  0.2082 -0.0912
16904W        W33165  16.250   6.522  12.410 -0.1273 -0.1419  0.2646
16905W        W33166   7.685  16.619  13.100  0.2785  0.0912 -0.1587
16906W        W33167   8.776   0.370  14.899  0.0644 -0.2947 -0.1847
16907W        W33168  16.131   8.814  16.932  0.0576 -0.3435 -0.0777
16908W        W33169   6.352  10.136   3.898  0.4139  0.3159  0.0566
16909W        W33170  11.190  13.318   2.457  0.3150 -0.1471 -0.2503
16910W        W33171   2.320   2.723   0.358  0.3650 -0.2289  0.0844
16911W        W33172   4.772  16.292   3.674  0.0313  0.2295  0.0331
16912W        W33173  16.061  13.584  14.800 -0.2717  0.1495  0.1074
16913W        W33174   9.584   4.219  11.851 -0.3283  0.0085  0.0958
16914W        W33175  16.727  13.775  13.820 -0.1570 -0.0223 -0.0888
16915W        W33176  15.763  12.606  16.276  0.0996 -0.4576  0.0934
16916W        W33177  17.155   5.325   0.013 -0.2158  0.0933  0.2247
16917W        W33178   0.268   1.939  14.225  0.0642 -0.0667 -0.2714
16918W        W33179  16.187   3.761  13.818 -0.1324  0.1067 -0.1132
16919W        W33180  15.967  11.071  12.908  0.1464 -0.1814 -0.0456
16920W        W33181  12.392  13.387  13.451 -0.2013 -0.0210  0.2399
16921W        W33182   9.862   1.848  13.986  0.1265  0.2045 -0.1526
16922W        W33183  16.707  12.986   0.864 -0.1893 -0.0984  0.2487
16923W        W33184   2.718  11.883   3.155  0.2422  0.2589  0.0690
16924W        W33185  12.480  10.772   3.177  0.0571 -0.0981 -0.0330
16925W        W33186  15.755   5.243   3.957 -0.2264  0.1241  0.0954
16926W        W33187  11.402  17.352  15.369  0.2161 -0.0443 -0.1204
16927W        W33188  11.176  11.575  14.425  0.2997 -0.0481 -0.1162
16928W        W33189   9.721   4.517   0.539  0.0162 -0.0974 -0.0264
16929W        W33190   3.049  15.723   4.327  0.0956 -0.1058 -0.0409
16930W        W33191   1.564   7.220   5.703  0.0040  0.0538  0.1720
16931W        W33192   5.316   2.120  15.126  0.0266 -0.2146  0.0674
16932W        W33193  11.245   7.291   4.869 -0.0097  0.0731 -0.2114
16933W        W33194   9.169  13.002   6.510  0.3062 -0.5539  0.0401
16934W        W33195   5.593   2.079   2.181  0.1634  0.1102 -0.0632
16935W        W33196   1.028  16.419   4.017  0.3258 -0.0360  0.0247
16936W        W33197   6.710   4.926  15.191  0.0993  0.1490  0.0289
16937W        W33198   3.321   9.037  16.739 -0.1371 -0.0008  0.3873
16938W        W33199   8.573   6.538   0.909  0.0133  0.1179  0.1412
16939W        W33200  15.681  17.832  14.467  0.0560  0.0909  0.0376
16940W        W33201  15.256   0.567  13.287  0.0786  0.0093 -0.2276
16941W        W33202   7.853   5.701   0.110 -0.0764  0.0841 -0.3682
16942W        W33203  17.262  13.990   1.948  0.1417  0.2182  0.0964
16943W        W33204  15.805   9.235   4.480 -0.0423  0.1550  0.3414
16944W        W33205  13.319  12.684  12.304  0.0460 -0.3649 -0.1006
16945W        W33206   2.137   3.417   2.611  0.1580 -0.2160 -0.1382
16946W        W33207   2.111  12.567   0.552 -0.1844  0.2205  0.1528
16947W        W33208   9.711  10.048  12.986 -0.0718 -0.2903 -0.1052
16948W        W33209  14.380  10.471  12.019 -0.3712 -0.4978 -0.1258
16949W        W33210   1.038   3.566  13.520  0.0017  0.1083  0.0955
16950W        W33211   1.332   2.803  12.929 -0.0020  0.2520  0.1854
16951W        W33212   8.609  12.097   0.307  0.0158  0.0051  0.1013
16952W        W33213   0.370  12.487   1.748  0.1174  0.1295 -0.3511
16953W        W33214   1.173  16.270   4.512 -0.1277 -0.1714  0.1874
16954W        W33215   0.426  12.558   1.178 -0.0794 -0.0893 -0.0329
16955W        W33216   9.953  15.482   5.341 -0.0060  0.0711  0.0642
16956W        W33217   4.510  16.931   3.526  0.2014 -0.2325  0.0303
16957W        W33218  16.823   8.863  14.458  0.1749  0.0666  0.0422
16958W        W33219  12.675   8.327   0.660 -0.0675 -0.2298  0.1860
16959W        W33220  13.836  14.656   3.242  0.0450  0.0432 -0.0024
16960W        W33221  12.661  16.110   2.547  0.2426 -0.1106  0.0930
16961W        W33222   2.667   6.730  16.710  0.0185  0.1915 -0.1585
16962W        W33223  14.470   5.463  13.941  0.0406  0.2968 -0.0890
16963W        W33224   7.616   7.450  14.168  0.1056  0.2785 -0.4596
16964W        W33225   2.805   9.664   0.279  0.0374  0.2170 -0.1415
16965W        W33226  11.732   6.230   0.761  0.0116 -0.0060 -0.2425
16966W        W33227  14.405  14.018   2.802  0.0478  0.3112  0.4017
16967W        W33228   1.665   4.645   5.507  0.0644 -0.3032  0.0531
16968W        W33229  14.995  13.306   4.192  0.1610  0.0826 -0.2295
16969W        W33230  17.742   4.432   0.021  0.2915 -0.2769  0.0484
16970W        W33231   6.145   9.740   4.496 -0.0017 -0.0511  0.1578
16971W        W33232   3.256  14.678  15.040 -0.2443 -0.0452  0.3202
16972W        W33233  15.015   4.663  16.477  0.0596  0.1874  0.2659
16973W        W33234  17.596   8.661  14.951 -0.1808 -0.2835 -0.0609
16974W        W33235   7.302  17.687   3.813 -0.3655 -0.4006 -0.2213
16975W        W33236   1.909  11.216   0.222 -0.0549 -0.2893  0.1166
16976W        W33237   7.231   0.856  16.298 -0.2587  0.0606  0.0631
16977W        W33238   7.585   8.583  14.618 -0.0863 -0.0598  0.0218
16978W        W33239   9.880   8.688  15.093  0.0876  0.0882 -0.1335
16979W        W33240  15.388  10.055   4.439  0.0339  0.0383  0.2275
16980W        W33241   1.202   4.614   5.809 -0.0950 -0.0251 -0.1319
16981W        W33242   9.546   2.313   1.746 -0.2771  0.0736 -0.1138
16982W        W33243  15.419   6.573   0.395 -0.0017  0.1993 -0.3039
16983W        W33244  16.189   1.071  13.545 -0.0454 -0.3100  0.0013
16984W        W33245   8.307   5.714   4.579  0.0799  0.3335  0.1144
16985W        W33246   7.918   3.071  13.990  0.0363  0.0537 -0.0224
16986W        W33247  11.414   1.134  16.868 -0.0311  0.0115  0.0374
16987W        W33248   8.678   5.036   4.871 -0.0049 -0.0274  0.2571
16988W        W33249   7.473   3.154  14.186  0.1111 -0.1963  0.0081
16989W        W33250   3.215   0.744   1.404 -0.2389 -0.0836 -0.3246
16990W        W33251  17.188   6.380  15.200 -0.0866  0.6568  0.0783
16991W        W33252   2.944  12.610  15.865 -0.2772 -0.0328  0.0512
16992W        W33253   6.135   1.656   5.695  0.0275 -0.0145  0.1177
16993W        W33254  12.891   5.896  15.481 -0.0822  0.0341 -0.2149
16994W        W33255  15.453   2.953   2.383  0.0668 -0.3769  0.0976
16995W        W33256   9.458   7.621  14.271 -0.4956 -0.1128  0.1032
16996W        W33257  11.581   7.423  15.044 -0.4122  0.3484  0.2173
16997W        W33258  14.127   3.582  14.295 -0.2336  0.0582 -0.3892
16998W        W33259  17.524   5.124   0.478 -0.0792  0.1430  0.1325
16999W        W33260   5.082   3.341   5.923  0.2748 -0.0809 -0.0389
17000W        W33261   1.946   3.382   4.156  0.0041  0.2513  0.2628
17001W        W33262   1.305  12.481  15.074 -0.1962  0.0000 -0.0058
17002W        W33263  14.668  13.880  12.277 -0.0705 -0.0291  0.1606
17003W        W33264   4.150  10.664   4.020  0.0627  0.1489 -0.1165
17004W        W33265   3.136   4.133   3.389 -0.3964 -0.2867  0.2920
17005W        W33266   3.331  12.772  15.503 -0.0437  0.1752 -0.0090
17006W        W33267   5.513   3.882   3.693  0.2339 -0.1805 -0.2704
17007W        W33268  15.124   3.701   5.028 -0.1435  0.0938  0.0676
17008W        W33269   8.610  14.835  16.132  0.0866 -0.1341  0.1020
17009W        W33270  12.737   3.141   3.982  0.0127  0.0108 -0.1653
17010W        W33271   5.745  11.511  15.438  0.0628 -0.1081 -0.0257
17011W        W33272  17.006   8.391   3.272  0.1804  0.0561  0.2908
17012W        W33273   9.669  14.442   3.608 -0.1708  0.0863  0.1522
17013W        W33274   7.192  14.372   6.296 -0.0379 -0.1029  0.0580
17014W        W33275  13.051   3.399   4.245 -0.0273 -0.1945 -0.1321
17015W        W33276  17.360  13.801   3.267 -0.2070 -0.1021 -0.0246
17016W        W33277  14.929   1.663   0.554  0.2721 -0.0980 -0.2049
17017W        W33278  12.159   1.780  13.182  0.1653  0.0133  0.1094
17018W        W33279  13.987  16.331   2.508  0.1213 -0.2377  0.2710
17019W        W33280   8.924   7.791  14.249  0.0886  0.0908 -0.1476
17020W        W33281   5.659  14.732   3.157  0.0100  0.3089  0.0489
17021W        W33282  15.873   2.332   1.208  0.2340  0.1189 -0.0222
17022W        W33283  15.230   1.845  15.931  0.0316 -0.0084 -0.3919
17023W        W33284   9.017  15.329  14.932 -0.1414  0.0043  0.3548
17024W        W33285  12.350   1.299   0.115 -0.3489 -0.1131 -0.2745
17025W        W33286   4.872   9.019   2.918 -0.0426 -0.2149 -0.0333
17026W        W33287  11.783   0.105   4.915  0.0354 -0.0088 -0.1996
17027W        W33288   0.883   3.922  16.770  0.3469 -0.0434  0.1936
17028W        W33289  11.389  12.130  15.615 -0.0653  0.3032 -0.3456
17029W        W33290   5.032  14.092  14.997 -0.0488 -0.1939 -0.1527
17030W        W33291  10.646   2.874  11.723  0.1556  0.5187 -0.1810
17031W        W33292   2.507  12.358  16.039  0.3053 -0.2221 -0.0024
17032W        W33293  15.605  12.840   5.097  0.1576 -0.0135 -0.0122
17033W        W33294   9.740   9.953   4.236  0.2988  0.1286  0.0689
17034W        W33295   6.788  13.100   5.934 -0.1178 -0.0341  0.0876
17035W        W33296  10.335  14.441   5.644 -0.2432  0.0946  0.1646
17036W        W33297   5.726   6.009   2.385  0.0796 -0.1363  0.2833
17037W        W33298  15.814  12.013  15.895  0.0198 -0.1559  0.2605
17038W        W33299   1.063   6.130   3.956  0.0634 -0.1191 -0.1141
17039W        W33300   3.742   5.936   2.345 -0.1508  0.0223  0.2333
17040W        W33301   8.161  17.111  16.744 -0.0319  0.2836  0.1674
17041W        W33302   7.488   6.569  16.395  0.0903 -0.0936  0.1189
17042W        W33303  12.353  14.419  13.324  0.0120  0.1624  0.0177
17043W        W33304   6.986   4.033   3.698  0.1166 -0.0170 -0.3085
17044W        W33305  14.433   9.428   3.783  0.0147  0.1841 -0.0263
17045W        W33306  13.665   8.460  13.647  0.3723 -0.2583  0.0149
17046W        W33307  11.014  16.052   3.814  0.0707 -0.1482 -0.0111
17047W        W33308  15.904   2.055   4.798  0.1286  0.0702  0.2955
17048W        W33309  17.547   2.572   1.651  0.1830  0.0552 -0.0155
17049W        W33310   2.828   6.357   4.408 -0.0904  0.2856  0.0413
17050W        W33311  17.758   9.762  16.965 -0.1886 -0.0776  0.1617
17051W        W33312   2.724   8.359  11.762  0.0273 -0.2091  0.2490
17052W        W33313  12.808   8.849   3.741 -0.1478 -0.1224 -0.0613
17053W        W33314  16.286   5.793   5.522  0.4105  0.0852  0.1314
17054W        W33315   9.222   6.860   2.151 -0.0064  0.3544 -0.0326
17055W        W33316   8.404  13.685   0.108 -0.4541 -0.0655  0.1129
17056W        W33317  14.075   1.195   0.659  0.0381  0.0412 -0.0645
17057W        W33318   1.668  12.461  15.427 -0.1277 -0.0828 -0.0806
17058W        W33319  16.865   6.495  15.610 -0.3273  0.0015  0.1018
17059W        W33320   3.100   7.487   4.271 -0.0099 -0.0792  0.0331
17060W        W33321   9.537   1.042  16.039  0.0461  0.2398 -0.0333
17061W        W33322  12.962  16.909   2.854  0.0475  0.0308 -0.1663
17062W        W33323  12.420  13.679  14.475 -0.0695  0.0023  0.0159
17063W        W33324  11.283   9.806  14.498  0.2114  0.1026 -0.1112
17064W        W33325   3.199  15.182  15.146 -0.0974 -0.0893  0.0158
17065W        W33326   1.663   2.655   2.641 -0.1343  0.1933  0.2678
17066W        W33327   7.655  16.078  16.864 -0.3316  0.3216  0.0725
17067W        W33328  15.016  11.979  12.987 -0.2513 -0.0802 -0.1531
17068W        W33329   1.200   5.188  13.461  0.1776 -0.0849 -0.3582
17069W        W33330   5.335   8.425   3.330  0.2826 -0.1959  0.2335
17070W        W33331   3.927   6.431  15.961 -0.1384  0.0247 -0.0395
17071W        W33332   4.327   2.719   2.011  0.3835 -0.3629  0.1202
17072W        W33333   6.254   3.862   2.599  0.1535  0.2016 -0.1464
17073W        W33334  17.789  15.464  14.199 -0.6775 -0.2435 -0.2939
17074W        W33335  12.393   5.122  14.587  0.0417 -0.0759 -0.1603
17075W        W33336  10.291   1.100   2.286  0.0231 -0.2219  0.2276
17076W        W33337   5.443   2.322   5.618 -0.0978 -0.2581  0.1091
17077W        W33338   0.084  11.373   1.793  0.1132  0.2058  0.0891
17078W        W33339  12.907  16.378  13.836  0.2426 -0.1823 -0.0462
17079W        W33340   6.148  10.210  12.449 -0.0346  0.1074  0.1944
17080W        W33341   1.726  14.332  15.078 -0.1090 -0.0257  0.3125
17081W        W33342  12.238  15.601   2.007 -0.0019  0.0857  0.2067
17082W        W33343  15.597  12.898  13.407 -0.0956 -0.1705 -0.1584
17083W        W33344   5.098  13.644  15.875 -0.0207  0.0190 -0.2526
17084W        W33345   9.991  16.074  11.515  0.0294  0.1012  0.4346
17085W        W33346  11.723  12.081   0.004 -0.2289 -0.2649  0.0589
17086W        W33347  16.940  10.821   5.963  0.0659  0.4000 -0.0005
17087W        W33348   9.231  13.318  12.517 -0.0656  0.0820  0.0147
17088W        W33349   9.635   9.438   3.519 -0.0602  0.2988 -0.1827
17089W        W33350  10.273   1.969   4.047  0.2793  0.6936 -0.4188
17090W        W33351   7.088   3.279   3.993  0.1022  0.1276  0.0267
17091W        W33352  10.329   5.070   5.441 -0.0252 -0.0441 -0.4364
17092W        W33353   6.189   9.585   3.670 -0.0658  0.1784  0.1456
17093W        W33354  16.471  15.824   4.725  0.1416  0.0109 -0.0424
17094W        W33355   9.950  12.413   4.930 -0.2159  0.2682 -0.2876
17095W        W33356   6.400  11.264   2.370 -0.0339  0.0226 -0.1453
17096W        W33357  13.306  14.747   5.232  0.2417  0.1164 -0.0097
17097W        W33358   7.364   4.898  16.402  0.2058 -0.1817  0.2816
17098W        W33359  14.971   8.213  15.444  0.0514 -0.1909  0.4742
17099W        W33360  12.064   2.303   0.539  0.0869 -0.1236  0.0681
17100W        W33361  11.973   7.683   1.407 -0.1645 -0.2692 -0.0988
17101W        W33362   7.172   7.362  14.811 -0.1619 -0.1902 -0.3318
17102W        W33363  15.767   1.442  11.614 -0.0402 -0.2818 -0.0138
17103W        W33364  15.310  17.502   0.558 -0.1684 -0.0887  0.1283
17104W        W33365   6.118   2.491   4.379 -0.1292 -0.0452 -0.1560
17105W        W33366  13.079  16.872  12.005  0.4779  0.0286  0.0870
17106W        W33367   6.380  13.886   0.249  0.1241 -0.0059 -0.0977
17107W        W33368   7.600   8.339  15.959 -0.1523 -0.1560 -0.1072
17108W        W33369   8.078  12.222   2.638 -0.0900  0.0705  0.0004
17109W        W33370   4.192  12.717   2.872 -0.0126 -0.0992 -0.1723
17110W        W33371   2.584  15.238   4.998 -0.1384 -0.1496  0.0210
17111W        W33372  16.989  13.815  16.078  0.3142 -0.1875  0.1184
17112W        W33373   1.012   0.099   0.047 -0.0351 -0.1925  0.3384
17113W        W33374  10.286   5.577   5.464 -0.1298 -0.0238 -0.2448
17114W        W33375  11.902   7.623   2.997  0.2455 -0.1199  0.1393
17115W        W33376   6.748   5.984   0.806  0.2360 -0.1271  0.0798
17116W        W33377  10.142  16.282  16.984 -0.0312  0.0975  0.2769
17117W        W33378   9.892  17.668   5.059  0.0772  0.0103 -0.2248
17118W        W33379  12.878   8.481  11.064 -0.0273 -0.2889 -0.0064
17119W        W33380   4.970   9.473  12.204  0.1017  0.2333  0.4159
17120W        W33381   5.552   4.348   2.011  0.1953  0.0342 -0.1436
17121W        W33382   7.125   4.211  15.688 -0.2600 -0.4067 -0.0381
17122W        W33383  12.477   9.218  14.361 -0.0466 -0.0461  0.1291
17123W        W33384  12.376  11.927  16.384 -0.0427 -0.1958  0.0906
17124W        W33385  15.226  11.521   5.286 -0.0846  0.1086 -0.1267
17125W        W33386   8.337  15.639  14.425 -0.3474 -0.1339  0.1537
17126W        W33387  14.746   6.713   4.872  0.1050  0.0978 -0.0433
17127W        W33388   6.330   8.356   4.402 -0.2538 -0.0402 -0.0368
17128W        W33389   2.901   6.499   2.305 -0.0387  0.0580 -0.2067
17129W        W33390   3.883  13.031  15.880  0.0027 -0.0708 -0.1307
17130W        W33391   7.300  15.713   6.085 -0.0675  0.1501 -0.1167
17131W        W33392   7.443   3.785  14.278 -0.0215 -0.0120 -0.1810
17132W        W33393   8.170  12.261  14.944  0.2782 -0.0987  0.0667
17133W        W33394  16.313  12.685   0.937  0.0039 -0.0315  0.1227
17134W        W33395  16.194  16.910  15.843  0.0778  0.0016  0.2038
17135W        W33396  10.575  10.372   3.705  0.1942  0.3365 -0.1675
17136W        W33397  16.459   8.413   3.425  0.0970 -0.2057 -0.0931
17137W        W33398  11.161   3.195  13.825 -0.1791  0.1981 -0.0920
17138W        W33399   2.987   6.096   6.194  0.1750  0.0474  0.0921
17139W        W33400   3.540   8.772   1.439 -0.0986 -0.0864  0.1953
17140W        W33401  17.536  15.061   6.379 -0.3897  0.0801 -0.3276
17141W        W33402   7.632   8.898   3.156 -0.0373 -0.2923  0.3873
17142W        W33403   4.671   6.081   1.442  0.4206  0.0053 -0.1395
17143W        W33404  16.679  12.801   2.778 -0.1693  0.1610 -0.0541
17144W        W33405   6.945   1.534   2.802  0.0216 -0.1528 -0.0575
17145W        W33406   0.129   7.173   6.247 -0.0614  0.1024  0.1652
17146W        W33407  11.811  15.926   3.835  0.1220 -0.1494 -0.0025
17147W        W33408  14.892  13.812  16.621 -0.1227 -0.0054  0.0804
17148W        W33409  10.591  13.714  13.173  0.1637 -0.1886 -0.0488
17149W        W33410  15.173   2.924  13.095  0.0360  0.2584 -0.0417
17150W        W33411  11.851   0.138  11.522 -0.2721  0.1326  0.3041
17151W        W33412  16.303   2.341   2.562 -0.1071  0.0754 -0.2147
17152W        W33413  13.344   4.558  12.849  0.1274 -0.4947 -0.1329
17153W        W33414   8.532  12.882  15.595 -0.2741  0.1695 -0.0814
17154W        W33415  13.738  13.127  12.866  0.2304 -0.0819  0.2941
17155W        W33416   3.672  12.833   1.842 -0.1602  0.0346 -0.2360
17156W        W33417   4.002  10.918  16.430 -0.2035 -0.0271 -0.4575
17157W        W33418   1.813   4.417   3.717 -0.0757 -0.2339 -0.0883
17158W        W33419  13.936  10.984   5.444  0.2341  0.1549 -0.2065
17159W        W33420  15.819  15.469   5.800  0.0036  0.1255  0.0805
17160W        W33421  12.861  13.624   0.522  0.1890  0.0242  0.0538
17161W        W33422  16.090   2.188   0.762  0.5070  0.2808 -0.0746
17162W        W33423  14.883   0.711   0.360  0.1520  0.1294  0.1603
17163W        W33424  14.641   5.878   1.416  0.2638  0.0380  0.2686
17164W        W33425   4.569  12.729  13.789  0.1649 -0.1665  0.4254
17165W        W33426  15.866  16.671  11.390 -0.0675  0.1461  0.0692
17166W        W33427  14.100   3.899   1.332 -0.0328 -0.0953 -0.2734
17167W        W33428   2.195  12.688  12.392 -0.3689 -0.0400 -0.1338
17168W        W33429  15.926  14.359   2.037 -0.0946  0.3510 -0.0362
17169W        W33430   2.625  12.277   2.027  0.2314  0.1269  0.1803
17170W        W33431   8.075   7.282  14.010 -0.1074  0.1533  0.0077
17171W        W33432   7.699   4.134   5.750  0.0037  0.0484 -0.1859
17172W        W33433   8.727  17.686   5.517 -0.3407  0.0315  0.2243
17173W        W33434   6.124   6.003  16.060 -0.0788 -0.0281 -0.1520
17174W        W33435   0.121   0.197   0.191 -0.1525  0.0392  0.1344
17175W        W33436   4.520  12.878  12.419  0.0658  0.0670 -0.0587
17176W        W33437  13.724   4.757  13.877 -0.0981  0.0874 -0.0329
17177W        W33438   2.953   5.226   3.919 -0.0356  0.0810 -0.1214
17178W        W33439  16.617   7.706  13.629 -0.2512  0.2272 -0.0956
17179W        W33440  15.901  14.237  12.727  0.1443  0.0526  0.2473
17180W        W33441  10.915  14.559  12.999 -0.2478  0.0347  0.1312
17181W        W33442  17.696  14.585  16.186  0.1080 -0.0403 -0.1952
17182W        W33443   9.092   7.246   6.457 -0.1398 -0.0057 -0.0186
17183W        W33444  12.499   8.438  15.777  0.1432 -0.1697 -0.0079
17184W        W33445  17.229   7.422  14.058  0.0417 -0.0340  0.0197
17185W        W33446   8.748   6.651   0.412 -0.1884 -0.2143 -0.2640
17186W        W33447   6.935   5.220   1.923  0.1800 -0.0594 -0.0877
17187W        W33448  13.558   7.641   5.879  0.0438 -0.3132 -0.1084
17188W        W33449   2.279   5.510  13.019  0.1615  0.0386 -0.3910
17189W        W33450  16.520   4.741  15.332 -0.0735 -0.1438  0.0189
17190W        W33451   7.874  16.613   2.859  0.0847  0.1039  0.2203
17191W        W33452   3.070   4.607  13.004  0.1469 -0.0188 -0.0869
17192W        W33453  12.689   5.654  12.831 -0.3020  0.2459  0.0802
17193W        W33454   2.418   0.294  13.481  0.1557  0.1734 -0.0323
17194W        W33455   1.303   0.046   2.898 -0.0990 -0.2543  0.3305
17195W        W33456   7.564   4.459  16.556  0.1562  0.3009 -0.2047
17196W        W33457   1.763  17.459  15.878  0.1313 -0.0343  0.2119
17197W        W33458   9.259   8.406  13.124  0.1380 -0.1358 -0.0803
17198W        W33459   9.251   9.254  15.432  0.0590 -0.1913  0.3788
17199W        W33460   9.282   8.485  15.838  0.0101 -0.0591  0.2211
17200W        W33461   3.193   6.449   1.265  0.2291  0.0727 -0.2486
17201W        W33462  17.096  11.536   4.197 -0.4147  0.2046 -0.2327
17202W        W33463   7.936   3.945  15.984  0.3171  0.0185  0.3018
17203W        W33464   5.262  11.614  12.394 -0.0796  0.5050  0.0597
17204W        W33465  16.561   3.040  12.072  0.0381 -0.0547  0.1550
17205W        W33466   3.426   6.548  15.707  0.0821  0.0655  0.2226
17206W        W33467  10.722   0.064  12.091 -0.1549  0.0188 -0.0226
17207W        W33468   9.205   7.291  11.690  0.0344  0.2156 -0.0179
17208W        W33469  12.507  13.019  12.077 -0.0010  0.2307  0.3356
17209W        W33470   5.576  17.227   4.942 -0.1177  0.0197  0.2033
17210W        W33471  11.723  16.408  14.429 -0.0002  0.3431 -0.4918
17211W        W33472   7.823  10.856  16.162  0.1459 -0.3656  0.0467
17212W        W33473  11.670   0.808   3.844 -0.1974  0.0728  0.0370
17213W        W33474   9.059   7.490  16.891 -0.2224 -0.0766  0.0374
17214W        W33475  11.510  12.810  16.265  0.1343 -0.0130  0.0583
17215W        W33476   2.576   8.147   0.808  0.0383 -0.1273  0.0931
17216W        W33477  16.581   6.198  12.230 -0.2702 -0.1720 -0.1945
17217W        W33478  13.076  11.005  11.070 -0.1504 -0.1420  0.0736
17218W        W33479   8.830   9.316   0.108  0.0339 -0.1951 -0.1344
17219W        W33480  15.119  11.732  15.843  0.4642  0.0280  0.1397
17220W        W33481   7.046  11.313   4.273  0.1380 -0.2738  0.0759
17221W        W33482  11.703   9.966  16.056 -0.1134 -0.1084  0.1873
17222W        W33483  14.711   7.608  13.219 -0.0686 -0.1477 -0.3255
17223W        W33484  15.686  13.341   5.109 -0.0291  0.0528 -0.1253
17224W        W33485  14.862   0.171   4.645 -0.1325 -0.4247 -0.1135
17225W        W33486   0.648  17.188  13.748 -0.3013  0.0940 -0.1769
17226W        W33487  16.878  13.214   3.588  0.0581 -0.2140  0.1865
17227W        W33488  12.647  10.023  12.274 -0.0869  0.0298 -0.1082
17228W        W33489  11.307   4.050  15.995 -0.0215  0.1842  0.1550
17229W        W33490   2.131  16.139   4.203  0.1946  0.0720  0.2547
17230W        W33491   2.627   1.982  12.274 -0.1524  0.0518 -0.3006
17231W        W33492   1.078   4.857   1.913  0.2254  0.0742  0.2589
17232W        W33493   5.077   4.773   3.748 -0.1741  0.2640  0.0191
17233W        W33494   8.639   7.334   5.120 -0.4179  0.0736 -0.3083
17234W        W33495  10.928   0.425  12.701  0.1360  0.4477  0.2078
17235W        W33496   3.038   0.553   1.849  0.2584 -0.0119  0.1115
17236W        W33497  10.158   0.453  15.852 -0.2311  0.4041 -0.0088
17237W        W33498  13.001  14.165   5.547 -0.2115  0.0649  0.1725
17238W        W33499   8.704   1.851   1.457 -0.2387 -0.0316  0.1116
17239W        W33500   0.835  16.128   2.585  0.1918  0.1237 -0.1625
17240W        W33501   3.582   3.272  16.871  0.0977 -0.1452 -0.0895
17241W        W33502  10.561   3.633   1.564  0.3786  0.0790 -0.0401
17242W        W33503  15.623   2.358  14.557  0.2161 -0.1566 -0.2002
17243W        W33504   7.165   5.188   0.960  0.2994  0.0001 -0.3081
17244W        W33505  14.878   9.954   2.705  0.0305 -0.0156 -0.0384
17245W        W33506  16.266  11.420   1.199 -0.0506 -0.3521 -0.0272
17246W        W33507  10.527   1.014  14.501 -0.0417  0.2868 -0.1517
17247W        W33508  10.220  12.946  14.879  0.0325 -0.1786 -0.1505
17248W        W33509   6.331  10.153   3.407 -0.0543  0.1868  0.1611
17249W        W33510   1.801   9.781   5.036  0.0201  0.0404  0.1733
17250W        W33511   8.149   6.342   0.009  0.2561  0.4342 -0.1082
17251W        W33512   4.005  11.840   4.083  0.1625  0.0696  0.0041
17252W        W33513   0.685   4.840  12.306 -0.1075  0.1435  0.2138
17253W        W33514   6.332  14.310  13.099 -0.2784 -0.5232  0.0283
17254W        W33515   7.200  11.316   3.424  0.0612  0.0273 -0.2225
17255W        W33516  17.179  10.311   1.832 -0.1483  0.1722 -0.1271
17256W        W33517  16.647  15.816  14.968  0.0500 -0.2417  0.1551
17257W        W33518  11.579  15.595  15.520 -0.1969 -0.1145 -0.0234
17258W        W33519  10.569  12.665  14.091 -0.1326 -0.0175  0.1438
17259W        W33520   9.773   2.508  15.747  0.1431 -0.0361  0.2231
17260W        W33521   8.251  13.139   1.683 -0.2746 -0.0064  0.0520
17261W        W33522   5.571   0.596  13.936 -0.0625 -0.1195  0.2175
17262W        W33523   3.594  11.290  11.608 -0.0208 -0.1480 -0.0484
17263W        W33524  14.179  12.846  14.888 -0.0892 -0.1063  0.0287
17264W        W33525   8.094  15.800  16.775 -0.3096 -0.0881 -0.0717
17265W        W33526   1.353   1.318   1.758  0.3165 -0.0974 -0.3455
17266W        W33527  14.951  10.927   4.263 -0.0770 -0.1889  0.0834
17267W        W33528  13.865  14.624   5.486  0.1630  0.0386  0.2587
17268W        W33529   7.551  12.242  14.053  0.0720  0.3546 -0.3499
17269W        W33530   8.754   1.047  16.051  0.0961 -0.1105 -0.2908
17270W        W33531   5.140  12.519  12.816  0.1818  0.0246  0.2720
17271W        W33532  12.572   3.433  12.880  0.1941  0.1426  0.0264
17272W        W33533  10.214   6.073   5.303 -0.0198 -0.0526  0.0595
17273W        W33534   3.991  17.748   3.765  0.0219 -0.0278 -0.1985
17274W        W33535   8.007  16.918   4.132  0.0595 -0.3622  0.3865
17275W        W33536   5.630  11.892   1.689  0.1880 -0.1613 -0.0823
17276W        W33537  14.567  16.759  16.299  0.1714 -0.5020 -0.0463
17277W        W33538  10.980   1.072  12.229  0.5236 -0.2827  0.2162
17278W        W33539   1.708  14.093  16.069 -0.0392 -0.1255  0.0790
17279W        W33540   5.186  13.656   1.409 -0.2402  0.0941  0.1380
17280W        W33541  10.807  13.562   4.744  0.3143 -0.3301  0.1530
17281W        W33542   3.924   7.911   3.906 -0.2823 -0.0170  0.0456
17282W        W33543  17.145   1.974   0.419  0.2049  0.1721 -0.1924
17283W        W33544   9.861  14.282  12.281  0.0954  0.1714 -0.0531
17284W        W33545   2.766   0.265  14.925  0.2370 -0.1001 -0.1734
17285W        W33546   0.952  16.992   5.185  0.0061 -0.1798 -0.0676
17286W        W33547   4.731   4.534   2.046  0.4082 -0.0836  0.0257
17287W        W33548   3.892  15.206   4.727  0.0807 -0.3409  0.1529
17288W        W33549  13.354   6.257  16.709  0.2670 -0.0302  0.0536
17289W        W33550   2.268  13.140   4.888 -0.2343 -0.0469 -0.2604
17290W        W33551  16.841   3.330   3.865  0.0461  0.4252  0.0462
17291W        W33552  10.896  11.076  16.285 -0.1710  0.1229  0.4560
17292W        W33553   4.507   6.996  15.625 -0.0614 -0.0072  0.0148
17293W        W33554  10.200  11.879   1.907 -0.0469 -0.1131 -0.0611
17294W        W33555   3.605   9.066   1.853  0.3566 -0.2807 -0.0841
17295W        W33556  17.514  17.400   3.747  0.0925  0.0863 -0.0141
17296W        W33557  15.242  13.922  13.901 -0.0984  0.2082 -0.0172
17297W        W33558  14.542  16.676  14.210  0.4068 -0.0920 -0.0662
17298W        W33559   9.316  13.058  12.130  0.1630 -0.3643  0.0410
17299W        W33560   1.049  12.598   4.447  0.0050 -0.0341 -0.2762
17300W        W33561  16.605  16.260  14.296 -0.1404  0.0119 -0.0840
17301W        W33562  15.176   5.233   3.190 -0.2854  0.1459 -0.1455
17302W        W33563   9.559   5.957   0.462  0.1456  0.0498  0.2359
17303W        W33564  14.208  13.499  11.561 -0.1690 -0.2575  0.1363
17304W        W33565   2.687  11.018   1.871  0.0507  0.0875  0.1166
17305W        W33566  10.375  13.606   1.457  0.3777 -0.0353 -0.1332
17306W        W33567  15.537   9.200   4.927  0.0710 -0.2148  0.1262
17307W        W33568   1.661   0.621   0.634 -0.7300  0.0686  0.2219
17308W        W33569   8.028   3.785   2.480 -0.0336  0.0061 -0.2153
17309W        W33570  17.852   0.302  15.602 -0.0505  0.3236 -0.0552
17310W        W33571  15.911   5.798  12.835  0.1232  0.0455  0.0375
17311W        W33572   2.439   3.470   0.907 -0.0440  0.0036 -0.1544
17312W        W33573  16.327   7.697  12.220  0.2139 -0.0063  0.0160
17313W        W33574  17.407  12.322   5.519  0.2105  0.3426  0.0990
17314W        W33575  15.871   4.804  13.595 -0.0127  0.0252  0.0213
17315W        W33576  14.631   9.011  14.360 -0.1786  0.0570  0.1814
17316W        W33577   9.352   2.277   2.856 -0.2182 -0.1572 -0.0293
17317W        W33578   4.300  14.280  12.948 -0.1528 -0.4267  0.0697
17318W        W33579  15.513  12.741  14.895  0.0825 -0.3951 -0.2076
17319W        W33580  14.610   0.629  14.171 -0.1479  0.4300 -0.1732
17320W        W33581   7.824   1.965  13.389 -0.4442 -0.0542  0.0473
17321W        W33582   5.593  14.762  14.783  0.0244 -0.0411 -0.1784
17322W        W33583   2.920   9.294  14.418  0.2682  0.1455 -0.2254
17323W        W33584   0.772   6.975  14.555 -0.0544  0.0252 -0.3775
17324W        W33585  15.526  10.100   3.850 -0.1057  0.0351  0.0681
17325W        W33586  10.992  16.233  14.930  0.0325  0.0044 -0.1763
17326W        W33587   1.651   4.233   5.139  0.0121 -0.0820 -0.0574
17327W        W33588   6.301  10.775  16.765 -0.0437  0.0336  0.0334
17328W        W33589   9.288   5.406   3.338 -0.0222  0.2672  0.1614
17329W        W33590   8.574   4.596  13.697 -0.0852 -0.0224 -0.3002
17330W        W33591  15.964   7.810   5.779  0.0811  0.2567  0.0301
17331W        W33592  12.176   8.640   4.577  0.1107 -0.2846  0.1150
17332W        W33593  15.157   6.380   2.643  0.2013  0.0661 -0.0572
17333W        W33594  12.740  12.400   5.918  0.0034  0.1058 -0.0881
17334W        W33595   9.909   5.130  14.181 -0.0723  0.0236 -0.1672
17335W        W33596   5.287   8.035   0.716 -0.0341  0.3647  0.1107
17336W        W33597  11.653  15.870   0.233  0.0651 -0.3321 -0.0297
17337W        W33598   1.234   8.399  13.750  0.1394 -0.2450  0.0121
17338W        W33599   3.554  11.216   2.019 -0.0951 -0.1222  0.0993
17339W        W33600  17.730   4.712  14.884 -0.1030 -0.1465 -0.2732
17340W        W33601   1.449   3.561  13.858  0.3422 -0.1865  0.1474
17341W        W33602   9.725  13.974   3.285 -0.1505  0.0059  0.1059
17342W        W33603   4.509   4.848  11.744  0.0138  0.2927  0.0072
17343W        W33604  15.054   0.261   3.946 -0.0626  0.0484 -0.2758
17344W        W33605  14.881  15.668  14.945 -0.1761 -0.0502 -0.2117
17345W        W33606  10.117  12.232   0.704 -0.4690 -0.1208  0.0674
17346W        W33607   6.855  16.690  15.945  0.2182 -0.1045  0.2511
17347W        W33608  12.206   5.792  11.341  0.3541 -0.0531  0.1507
17348W        W33609  12.083   8.204  16.890  0.1076  0.0055  0.0358
17349W        W33610  14.377  15.735  15.016 -0.0669  0.1420  0.0374
17350W        W33611   9.269   3.135   5.014 -0.0734  0.0741 -0.3040
17351W        W33612  11.823   6.570   4.530  0.1335  0.0464 -0.0762
17352W        W33613  16.136   1.926   5.358  0.0528  0.0253 -0.1008
17353W        W33614   0.117  10.075  13.160 -0.2004  0.0697 -0.1243
17354W        W33615   4.145   1.546  15.841  0.0611 -0.0118 -0.0760
17355W        W33616   2.414   0.392   5.251 -0.0658  0.1375  0.0547
17356W        W33617   0.596  10.339   1.458  0.0977  0.1328 -0.2164
17357W        W33618  10.522  12.124  12.124  0.1310  0.0676 -0.0541
17358W        W33619   2.915   0.753  16.703 -0.0368  0.0948 -0.0376
17359W        W33620   9.346   0.548  14.262  0.0559  0.0071 -0.0468
17360W        W33621  12.922   4.077   4.718 -0.0797  0.2440  0.2133
17361W        W33622  15.454   5.124   2.746 -0.1292 -0.1203 -0.1384
17362W        W33623   7.359   3.383  15.172 -0.1866  0.1377  0.0527
17363W        W33624   2.580   6.250   5.437  0.0545  0.0583 -0.1474
17364W        W33625   9.082  13.006   6.007 -0.1075  0.1693  0.0821
17365W        W33626   6.858   7.314   0.717 -0.2129 -0.2146  0.1959
17366W        W33627   2.434  11.803  15.248 -0.1240  0.0444 -0.0991
17367W        W33628  11.855  10.391  14.832  0.2040  0.0944 -0.0108
17368W        W33629   4.715  12.468   0.878  0.1726 -0.0510 -0.1618
17369W        W33630  17.808   8.445   3.763  0.0460 -0.2778  0.1405
17370W        W33631  16.571   9.865   4.578  0.2899 -0.3224  0.1089
17371W        W33632  11.085  12.590  12.143  0.1397  0.1735 -0.2721
17372W        W33633  15.365  11.942   1.279  0.2446 -0.0136  0.0756
17373W        W33634   4.900   1.835  13.197  0.0102 -0.1521 -0.2830
17374W        W33635  13.338   7.055   0.240  0.1775 -0.0500 -0.2214
17375W        W33636  13.097  13.296  16.739  0.3200  0.0968  0.0541
17376W        W33637  12.639   4.507  16.807  0.1105 -0.0893 -0.2546
17377W        W33638  14.736   2.437  14.129  0.3807 -0.0983  0.2408
17378W        W33639   4.426  16.540  13.552 -0.2889  0.0673  0.1665
17379W        W33640   9.573   7.177  11.302  0.2528 -0.0795  0.2347
17380W        W33641   4.195  13.701  15.139 -0.3460  0.0846 -0.3100
17381W        W33642   5.014  11.049  14.095 -0.0635 -0.4146  0.3097
17382W        W33643   4.935   1.504   2.042  0.3557 -0.1032 -0.1400
17383W        W33644   8.523  10.660   6.181  0.4384 -0.2308  0.1439
17384W        W33645   1.128   5.416   2.604 -0.0270 -0.1810  0.0873
17385W        W33646  17.073   5.977   2.535  0.2253 -0.3116  0.2343
17386W        W33647  11.174  16.534   5.565  0.3056 -0.1072 -0.1885
17387W        W33648   5.338   0.177  14.012  0.2262 -0.2301  0.1327
17388W        W33649   8.812  13.927   3.265  0.0093  0.0897 -0.0257
17389W        W33650   2.445   0.053   3.860  0.2071 -0.1599  0.0221
17390W        W33651  13.581   2.369  14.632  0.3089 -0.0182  0.0737
17391W        W33652   1.785   1.150  11.917  0.1638 -0.1291 -0.2710
17392W        W33653  17.315   3.423   5.286  0.1031 -0.1440  0.1902
17393W        W33654   3.867  11.678  16.073  0.0879  0.0417  0.2168
17394W        W33655   9.348  15.840  15.001  0.0220 -0.1664  0.2750
17395W        W33656   0.714  12.772  15.445  0.2937  0.1178 -0.0184
17396W        W33657  11.686   9.345  13.014 -0.0130 -0.0960 -0.0333
17397W        W33658  13.971  15.438  15.046 -0.1557 -0.1141  0.3027
17398W        W33659  15.551   7.835  15.249  0.0512  0.2666  0.0059
17399W        W33660   9.339  16.554   3.123  0.2071 -0.0303  0.2833
17400W        W33661   1.015   1.388  12.704  0.0487 -0.2829  0.2681
17401W        W33662   6.595   9.232  11.833  0.0925  0.0609  0.0861
17402W        W33663   8.028   9.597   4.371  0.0156 -0.1820  0.1081
17403W        W33664   7.837  15.611   3.752  0.1994 -0.2752 -0.2858
17404W        W33665   1.372   0.394   2.475 -0.0828 -0.0690  0.0004
17405W        W33666  10.305  11.173  14.384  0.0647  0.0073 -0.1468
17406W        W33667  10.693   9.564  13.881  0.0927 -0.0911  0.0028
17407W        W33668   5.361  13.512  13.166  0.0475  0.1755  0.2194
17408W        W33669   2.383  10.414   4.994 -0.0563  0.0645 -0.1428
17409W        W33670   7.371  13.730  12.759 -0.3846  0.0645  0.1940
17410W        W33671  10.776  10.138   2.601  0.0895  0.2823 -0.0923
17411W        W33672   4.493   9.334   3.280  0.1563 -0.1873  0.3385
17412W        W33673   1.375   8.931   4.722  0.0553 -0.2657  0.0567
17413W        W33674   2.526   6.691  15.195 -0.1668  0.0528 -0.0540
17414W        W33675   8.156   7.934  14.433  0.0926 -0.2055  0.1022
17415W        W33676   9.314   4.130   0.054  0.2227 -0.3185  0.0571
17416W        W33677   4.467   5.969  12.844  0.2184 -0.0616  0.1470
17417W        W33678   9.405  14.796   1.849  0.0283 -0.3045 -0.1815
17418W        W33679   1.296  17.380   3.770  0.3552  0.3905 -0.1144
17419W        W33680   3.660   5.208   1.001 -0.2610 -0.0713 -0.0321
17420W        W33681  16.326  10.316   0.982  0.2321 -0.0001 -0.0488
17421W        W33682   1.984   6.782   4.445 -0.2347 -0.1863 -0.0586
17422W        W33683  16.072  17.210   5.768  0.2154  0.0685  0.0598
17423W        W33684  14.931   7.858   0.799 -0.2191  0.0406  0.0657
17424W        W33685   1.575  17.221  14.032  0.0142 -0.3200 -0.2825
17425W        W33686  12.162   3.531   0.240 -0.1902  0.0882  0.2492
17426W        W33687  10.514   8.563  14.937 -0.0996  0.1741 -0.1144
17427W        W33688   7.403   0.536  16.622 -0.1232  0.1302 -0.0740
17428W        W33689  12.969   7.366   2.069  0.1046  0.1872 -0.0532
17429W        W33690   1.404  11.519  12.981 -0.2683 -0.2425  0.0608
17430W        W33691   0.281  16.778   4.779  0.1218 -0.1931 -0.0531
17431W        W33692   3.032   5.719   5.001 -0.0330 -0.1108 -0.4386
17432W        W33693  15.673  11.283  16.701  0.1412  0.1002  0.2309
17433W        W33694   9.775   5.307  13.165  0.2437  0.0905 -0.3077
17434W        W33695   4.023  11.461   2.379  0.0910 -0.2278  0.2692
17435W        W33696   9.011   3.477   3.485 -0.3044  0.0807  0.1805
17436W        W33697  13.749   4.619   3.304 -0.2346 -0.2339 -0.0894
17437W        W33698  13.371  14.852   3.549  0.1878  0.1117  0.0167
17438W        W33699  17.545  14.579   4.848 -0.0285 -0.1584  0.3947
17439W        W33700  17.403   6.475   0.651  0.1129  0.3042 -0.0032
17440W        W33701  17.425   0.510   3.731 -0.0704  0.0587 -0.0657
17441W        W33702   4.692  11.681   1.456  0.5621  0.1373  0.2437
17442W        W33703   7.113   5.882  15.252 -0.2005 -0.0570  0.0821
17443W        W33704   3.746   1.953   5.223  0.3369  0.2218 -0.0034
17444W        W33705   5.074   8.064   3.143  0.0602 -0.1246  0.0783
17445W        W33706   2.329   3.373   5.133 -0.3336 -0.1252  0.2547
17446W        W33707   0.227   5.898  13.826 -0.3403  0.1600  0.2919
17447W        W33708   7.311  11.773  14.942  0.0429 -0.0698  0.0189
17448W        W33709  16.827   2.477  15.294 -0.2674  0.5124  0.0572
17449W        W33710  13.635  15.950   2.685 -0.1694 -0.0368  0.3869
17450W        W33711   7.942  10.714   5.448  0.2623  0.2153  0.0014
17451W        W33712   7.756  15.498  11.479 -0.2500  0.2712 -0.1326
17452W        W33713  10.549   5.298   1.140 -0.1990 -0.1259 -0.2731
17453W        W33714   3.424  14.680   5.200 -0.1812 -0.0859  0.0840
17454W        W33715   0.498  14.252  15.234 -0.3154  0.1590  0.0286
17455W        W33716   9.898   2.770  16.693  0.2705  0.3121  0.2048
17456W        W33717   2.413   8.100   4.541 -0.0394  0.2711  0.0853
17457W        W33718  17.683   2.063   5.384 -0.2261 -0.0577 -0.1658
17458W        W33719  10.388  13.717  16.758 -0.0663  0.0963  0.0731
17459W        W33720  12.947   4.938   4.405 -0.0264  0.1390 -0.0007
17460W        W33721  11.730   9.348   3.347 -0.0866  0.1152 -0.0521
17461W        W33722   3.439  13.492   5.702  0.0445 -0.0429 -0.0811
17462W        W33723   4.222   1.836   3.607  0.1088 -0.2928  0.2653
17463W        W33724  12.048  10.877  16.932 -0.3303 -0.0200 -0.0404
17464W        W33725   4.146   2.796  14.288  0.2828 -0.0619 -0.0117
17465W        W33726  15.421   7.877   2.237  0.1322  0.0738 -0.1396
17466W        W33727  16.813   8.369   1.764  0.1382 -0.0520  0.1367
17467W        W33728   9.325  10.720  13.543  0.3423 -0.0068  0.0854
17468W        W33729   2.304   9.921  13.976 -0.2011 -0.1789 -0.2013
17469W        W33730   8.986   1.180   3.561  0.1452 -0.2774 -0.2225
17470W        W33731   6.139   3.748  16.571  0.0274  0.1724 -0.2030
17471W        W33732   1.003   0.477   2.845 -0.0744 -0.0807  0.0717
17472W        W33733   4.959  13.919  16.862  0.1220  0.0937  0.3357
17473W        W33734  10.696  11.306   2.288 -0.2452  0.1092  0.1796
17474W        W33735   6.935   4.663   2.979 -0.1319 -0.1165  0.0954
17475W        W33736   3.327   1.850   4.944  0.2524  0.3240  0.1659
17476W        W33737  11.517   6.259  13.530  0.1956  0.2618 -0.0360
17477W        W33738   5.073   0.791   0.859  0.0165  0.0202  0.2679
17478W        W33739   0.472   2.517  12.475 -0.0675 -0.0293  0.2540
17479W        W33740  17.110  16.995   1.917  0.1525  0.1330 -0.1820
17480W        W33741  14.175  17.746  15.373  0.1644 -0.2506  0.1408
17481W        W33742  10.263   6.768  15.854  0.1423  0.2507  0.2257
17482W        W33743  12.620  17.298  13.602  0.1658 -0.0246  0.0082
17483W        W33744   7.338   8.716  12.808 -0.1041  0.1557 -0.2389
17484W        W33745  13.040  10.692   4.733 -0.1259 -0.1833 -0.0224
17485W        W33746  17.080   1.581   0.931 -0.1941  0.1973  0.0125
17486W        W33747   5.955  13.591  16.212  0.0569  0.1930 -0.1753
17487W        W33748   1.280  11.095   3.199 -0.1334  0.1931 -0.1504
17488W        W33749   4.269  11.640   5.379  0.0129  0.0505  0.2123
17489W        W33750   5.009  13.949   5.123 -0.0416  0.0270  0.2857
17490W        W33751   5.272  16.462  14.441  0.0189 -0.1266  0.4372
17491W        W33752   1.633  17.003   3.661  0.1021 -0.0805 -0.0637
17492W        W33753  15.754   5.122  16.138 -0.1377 -0.0905  0.0456
17493W        W33754   8.437   2.546  16.266 -0.3884  0.0975 -0.1936
17494W        W33755   2.887   9.072   3.262 -0.2265  0.0610 -0.0858
17495W        W33756  12.369  14.119   3.761 -0.1725  0.1371 -0.0538
17496W        W33757  10.693  12.954   4.927  0.1325  0.0175 -0.3045
17497W        W33758   0.121   1.017  11.580 -0.0516 -0.3293  0.2452
17498W        W33759   6.719   7.752   4.255 -0.0517 -0.0009  0.0378
17499W        W33760  13.615  11.620  14.882  0.1086  0.0534  0.0331
17500W        W33761   0.719  10.294  13.725 -0.0931 -0.1723 -0.0101
17501W        W33762  10.619   4.254   4.634 -0.0918  0.2910 -0.1518
17502W        W33763  13.280  12.901   2.570  0.0409 -0.1782  0.1964
17503W        W33764   0.524  16.189   1.075  0.1076 -0.2943 -0.2630
17504W        W33765  11.572  14.100   1.015 -0.0221  0.2379 -0.1927
17505W        W33766   8.127  14.703  12.786  0.0800 -0.1350 -0.0003
17506W        W33767  16.909   3.893  16.174 -0.3680 -0.0653  0.0773
17507W        W33768   2.107  11.657  13.721 -0.1097 -0.3860 -0.1274
17508W        W33769  10.321  13.603   5.030  0.1201  0.3005 -0.0169
17509W        W33770  15.310   9.480  14.900  0.0801  0.3481  0.1227
17510W        W33771  12.958   8.152  12.952  0.0802 -0.2484  0.1277
17511W        W33772   3.034  13.632   0.449  0.2857  0.1451 -0.1154
17512W        W33773  16.090   2.052  14.584 -0.1068  0.1372 -0.2713
17513W        W33774   2.388  15.089   3.968 -0.0135  0.1767  0.1787
17514W        W33775  16.970  12.468  14.683 -0.2226 -0.0082  0.0372
17515W        W33776  11.043   1.025  16.064 -0.0696 -0.1952  0.0025
17516W        W33777   5.318  10.492   1.957  0.0215 -0.0806 -0.0588
17517W        W33778  14.394   7.230   4.066  0.1434  0.0018  0.0553
17518W        W33779   8.398  10.039  12.279  0.1971 -0.1040  0.0450
17519W        W33780  16.330   6.925   4.324 -0.2025  0.1513 -0.0018
17520W        W33781  16.149  14.386  15.730 -0.2307  0.0111 -0.1334
17521W        W33782  13.035   0.980   0.579 -0.0816  0.4869  0.2745
17522W        W33783   3.372  12.381   4.853 -0.3165  0.2247  0.0835
17523W        W33784  15.765  13.022  15.508  0.3797  0.1708 -0.0032
17524W        W33785  11.319   7.755  11.396 -0.0177  0.2421  0.2821
17525W        W33786  12.290  15.279   4.920  0.1875  0.3111 -0.0747
17526W        W33787  13.040   4.607  15.939  0.1827  0.5038 -0.0091
17527W        W33788   6.541  11.194   1.545 -0.2095  0.0889  0.3481
17528W        W33789   3.320   0.002  14.412  0.0979 -0.1704 -0.0322
17529W        W33790   8.455   2.176   2.493  0.2584  0.1370  0.1981
17530W        W33791   5.222  16.804  14.853  0.1273 -0.2076 -0.0260
17531W        W33792   9.045   5.037   5.596  0.0756 -0.1488  0.0376
17532W        W33793  17.171  13.138   1.119 -0.1864 -0.0456 -0.1579
17533W        W33794   7.407  15.408  16.388 -0.0995  0.0291 -0.0090
17534W        W33795   7.460  10.981   1.572 -0.1109 -0.1216 -0.0618
17535W        W33796   5.643  14.390  12.531  0.0016 -0.1194  0.0248
17536W        W33797  16.099   8.002  13.537  0.2256  0.0764  0.1727
17537W        W33798  11.332   2.038   4.276 -0.0917  0.0674  0.0900
17538W        W33799  13.328   1.944   4.924  0.2432 -0.2271 -0.2902
17539W        W33800  12.175  11.068  15.686 -0.2123  0.1638  0.1503
17540W        W33801  11.951  10.849   2.084  0.0082 -0.1700  0.4315
17541W        W33802   5.388   6.307   0.063  0.1635 -0.2284 -0.1547
17542W        W33803  10.752   1.830   5.541 -0.1986 -0.2198 -0.2521
17543W        W33804   7.586  10.360  12.403  0.0763 -0.2281  0.0689
17544W        W33805  14.662  11.513  15.589 -0.2118  0.0903 -0.0294
17545W        W33806   5.509  11.971  15.894 -0.2611 -0.0275  0.1742
17546W        W33807   6.618  17.678  13.785 -0.3660 -0.0134  0.0613
17547W        W33808   4.529   1.916   5.058  0.0832  0.0438 -0.3036
17548W        W33809  15.878   1.687   3.912 -0.0118 -0.0545  0.0141
17549W        W33810  11.707   4.935  13.390 -0.3247 -0.0757  0.0424
17550W        W33811   3.088   0.334   2.389 -0.1252 -0.2634  0.2659
17551W        W33812   6.896   0.781   4.629  0.0450  0.2427  0.1145
17552W        W33813   3.997   4.201  15.675 -0.2748  0.0312  0.0608
17553W        W33814  17.812  10.336   0.011  0.1721 -0.1241  0.4693
17554W        W33815  12.117  15.465  11.978  0.1628  0.2188  0.0984
17555W        W33816  13.001   4.999  11.710 -0.0662 -0.1471  0.1183
17556W        W33817  17.649   8.221   2.450 -0.0597  0.0761 -0.0902
17557W        W33818  12.337  10.629   4.416 -0.0764  0.3904  0.1166
17558W        W33819  10.811   5.407  14.138 -0.2395 -0.1211  0.1028
17559W        W33820   6.509  15.197   0.754  0.3437  0.0780  0.0811
17560W        W33821   9.563   6.110   2.221 -0.0736 -0.0998 -0.2375
17561W        W33822  10.894   3.799  15.745 -0.0426 -0.0246 -0.1278
17562W        W33823   9.245   4.497   2.343  0.2079 -0.3172  0.0130
17563W        W33824  10.198  16.116  11.073  0.0687  0.2012 -0.2238
17564W        W33825  16.859  10.213   5.744  0.0414 -0.0257  0.2123
17565W        W33826   6.063  15.359  12.487  0.1085  0.2891 -0.0056
17566W        W33827   6.052   2.335   5.310 -0.2471 -0.1035 -0.1969
17567W        W33828   4.556  17.128   4.870  0.2699  0.2834  0.0245
17568W        W33829   0.426  13.599   5.248 -0.0579 -0.1302  0.0767
17569W        W33830  17.237   0.709   0.305 -0.2642  0.0364  0.1225
17570W        W33831   2.417   8.501  15.465 -0.1202  0.2351 -0.1149
17571W        W33832   8.019   1.244  12.614 -0.1106 -0.0524  0.0050
17572W        W33833  10.486  13.371  14.650  0.0992 -0.1719  0.0069
17573W        W33834   0.029  12.218  15.684  0.0238  0.0008  0.1250
17574W        W33835   1.693   6.601  15.925 -0.0535  0.2653  0.1769
17575W        W33836   0.721  16.299  16.452  0.2557 -0.1109  0.0360
17576W        W33837   5.865   8.789  14.447 -0.1525 -0.0813  0.0061
17577W        W33838  10.090   1.711   2.837  0.1276  0.0036  0.3588
17578W        W33839   2.822   3.674  13.222  0.1356 -0.2702  0.0098
17579W        W33840  15.050   9.541   1.181 -0.1053 -0.1120  0.0005
17580W        W33841   7.529   4.189   3.012  0.0562  0.2602  0.1524
17581W        W33842  17.700  17.702   1.653  0.0526 -0.2905  0.0617
17582W        W33843   2.276   2.737  11.737 -0.2089 -0.2379 -0.0832
17583W        W33844  11.630   2.615   6.072 -0.1866  0.0572 -0.0841
17584W        W33845   4.755   7.972   0.371  0.3922  0.0137  0.0572
17585W        W33846   9.291   0.112  13.974 -0.1098  0.1248 -0.0180
17586W        W33847   6.713  11.933  14.380 -0.2626 -0.1709 -0.3528
17587W        W33848   1.639   1.983  14.962  0.2149 -0.0494  0.0224
17588W        W33849  12.253  13.066  15.873  0.1686 -0.0895  0.0066
17589W        W33850   4.953   8.901   3.403  0.1523 -0.2097  0.3328
17590W        W33851   6.328  12.941  13.045  0.3072  0.1506  0.2734
17591W        W33852   0.241   8.002   3.776  0.0513  0.0375  0.1070
17592W        W33853   1.957   4.174  14.293 -0.3909  0.0914 -0.3260
17593W        W33854   0.325  14.349  16.055  0.0674  0.1395  0.0839
17594W        W33855  14.371   2.428  13.355  0.0166 -0.3641 -0.2708
17595W        W33856   0.298  14.123  14.148 -0.0301  0.0693 -0.2023
17596W        W33857   0.503  11.124   4.144 -0.0596 -0.0432  0.0865
17597W        W33858   0.300  12.701   0.653  0.0265 -0.0803 -0.2347
17598W        W33859  17.649   5.970   3.638 -0.0298  0.3256  0.0195
17599W        W33860   7.204   9.582   5.498 -0.3471 -0.1790  0.2239
17600W        W33861  12.746  15.780  12.675  0.0099  0.1441  0.1761
17601W        W33862   5.658   3.699  11.336 -0.2677  0.5629 -0.0217
17602W        W33863   7.983  13.098  11.183  0.2421  0.4361 -0.4116
17603W        W33864  13.398  15.875  14.944 -0.2267 -0.1095  0.0510
17604W        W33865   6.885  11.251   3.822 -0.0168  0.3985 -0.2008
17605W        W33866  16.128   9.225  13.014  0.1350 -0.0655  0.0615
17606W        W33867   2.507  12.694   5.748  0.2340  0.1256 -0.1714
17607W        W33868   4.159   0.196   5.497  0.0846  0.1108  0.3044
17608W        W33869   6.644   6.558  13.169  0.0196 -0.0813  0.0808
17609W        W33870   1.368   0.921  11.993  0.3397  0.0726  0.2545
17610W        W33871   6.002  15.913  13.414  0.2032  0.0385  0.0828
17611W        W33872   8.114  10.414  16.296 -0.2839 -0.0356  0.1677
17612W        W33873   6.730   9.777   2.786 -0.1349 -0.2429 -0.1829
17613W        W33874  11.899   5.233  16.080 -0.2610 -0.2382  0.0039
17614W        W33875  13.296  17.207  11.670 -0.2415 -0.0443  0.0691
17615W        W33876   1.627   5.554   5.128  0.4890  0.1395 -0.1651
17616W        W33877   3.904   3.978   6.293 -0.1869 -0.1460  0.0367
17617W        W33878  11.317  16.809   0.280  0.0472  0.1241  0.0514
17618W        W33879   4.110  14.538   2.331  0.2925 -0.1711  0.0120
17619W        W33880  10.995   0.397  11.750  0.2388  0.0104  0.2176
17620W        W33881  13.987   4.214   2.179  0.4171  0.2327  0.0727
17621W        W33882   5.174   3.693  13.208  0.1031 -0.0377 -0.2454
17622W        W33883  16.029  14.584  16.708 -0.1242 -0.1368  0.0580
17623W        W33884  16.186  13.143   5.084 -0.0153  0.0911  0.3468
17624W        W33885   4.806  10.321  11.728 -0.2470  0.0156 -0.2102
17625W        W33886  11.590   4.214  15.087 -0.2322 -0.0695  0.0485
17626W        W33887   8.979   7.424   3.829 -0.0462  0.4015  0.0303
17627W        W33888   6.641  10.873   5.094 -0.6484 -0.0353  0.1427
17628W        W33889   1.678   5.252  12.732  0.0161  0.1865  0.0016
17629W        W33890  17.122  13.359  12.067  0.2215 -0.1766 -0.2552
17630W        W33891  10.680   6.174   2.452 -0.0652  0.1639  0.0873
17631W        W33892  17.682   2.184   4.449  0.2091 -0.0797 -0.0483
17632W        W33893  16.922  13.463  16.412 -0.2066  0.2159 -0.0398
17633W        W33894  13.527   6.285   3.622  0.0835 -0.2187 -0.1361
17634W        W33895   7.192  16.797   1.609 -0.0196  0.1436 -0.2353
17635W        W33896   5.367   9.117   1.904  0.2308 -0.1215  0.0492
17636W        W33897  13.639   3.072   5.220  0.0145 -0.1415 -0.2095
17637W        W33898  16.838   1.926   2.314 -0.0137  0.1707  0.0407
17638W        W33899  12.338   7.980  15.987 -0.2510  0.0534 -0.0892
17639W        W33900  15.782  10.414  14.850 -0.0383  0.1110  0.2091
17640W        W33901   7.396  15.394   4.961  0.0159 -0.1135 -0.0745
17641W        W33902  12.807  11.080   1.756 -0.1362 -0.0555  0.0034
17642W        W33903  11.240   6.482   0.860  0.3604 -0.0152  0.0331
17643W        W33904  12.898  17.092   1.494  0.0065 -0.1156 -0.1898
17644W        W33905   6.158   6.688   1.397 -0.1503 -0.0127 -0.0768
17645W        W33906  14.089   5.217  12.506  0.0205  0.3357 -0.1801
17646W        W33907   9.445  13.484   4.509  0.1064 -0.2735 -0.1066
17647W        W33908   5.745  16.394   3.076  0.0187  0.0805  0.3525
17648W        W33909   9.341   3.020   3.903  0.1069  0.0770 -0.3245
17649W        W33910   8.164  17.378   4.833  0.1548  0.0808 -0.2374
17650W        W33911  16.518   5.899  16.450  0.0398  0.0788  0.0067
17651W        W33912  12.367  14.851  14.461  0.0638 -0.2217 -0.2129
17652W        W33913   7.542  17.004  16.449  0.1197  0.3766 -0.0775
17653W        W33914  12.727  10.058   3.284  0.0034 -0.0703 -0.1414
17654W        W33915  11.242  14.169   4.867  0.2130 -0.1035 -0.0637
17655W        W33916  14.237  12.229   3.694  0.0072  0.2233 -0.1090
17656W        W33917  10.431  11.727  11.780 -0.0716  0.1252 -0.0964
17657W        W33918  12.834  11.367   0.863 -0.0287 -0.1239 -0.0622
17658W        W33919   6.872   0.041   3.599 -0.3176  0.2445  0.2909
17659W        W33920   5.200  17.421   1.852  0.0239 -0.1474 -0.2952
17660W        W33921  10.034   1.234   2.726  0.3080  0.1050 -0.1099
17661W        W33922   9.067  14.028  11.974  0.0461  0.1464 -0.0027
17662W        W33923  12.563  17.018   0.231  0.1328 -0.0798  0.1564
17663W        W33924   0.643   0.477  15.554 -0.0907 -0.2583  0.1327
17664W        W33925  12.558   0.726  14.051  0.3740 -0.1099 -0.0305
17665W        W33926   6.696   8.001  13.212  0.0442 -0.0142 -0.1537
17666W        W33927  12.627   5.130  14.140 -0.2158  0.0225  0.5593
17667W        W33928  10.523   9.399  14.592 -0.0662  0.1020  0.2560
17668W        W33929   7.375  11.979  13.073 -0.0380 -0.0102 -0.0773
17669W        W33930   3.324   2.647   4.456 -0.0782 -0.2176 -0.1359
17670W        W33931   1.015  15.405  16.102 -0.1916  0.0502 -0.0578
17671W        W33932   5.069  14.213  11.416  0.0816 -0.2790 -0.1946
17672W        W33933  13.961   6.564   0.898  0.1439  0.1697 -0.2304
17673W        W33934   0.370   6.755   2.462  0.1776  0.0043  0.0490
17674W        W33935   8.339  10.915   5.658  0.0141 -0.2869 -0.0992
17675W        W33936   6.235   9.059  14.876  0.2471 -0.1038  0.3041
17676W        W33937  13.656   4.130   0.804 -0.2261  0.0529  0.0736
17677W        W33938   5.143  13.299  15.467 -0.2398 -0.1439  0.0313
17678W        W33939   3.365   7.162  14.337 -0.3773 -0.1622 -0.1756
17679W        W33940   1.578  11.900  13.827 -0.2444 -0.0926 -0.0490
17680W        W33941  17.786   3.343   2.878  0.2910 -0.0017  0.1691
17681W        W33942   0.595   0.471   1.821 -0.1030  0.2489  0.1541
17682W        W33943   0.878  16.935  12.943  0.0915 -0.1322  0.2162
17683W        W33944   5.332  11.575  11.766 -0.0179  0.0508  0.3515
17684W        W33945   7.334  10.953   6.038  0.0573 -0.1585  0.1541
17685W        W33946  13.316   7.756  11.728  0.3121  0.5439  0.0217
17686W        W33947  13.876  10.511  11.785 -0.0723 -0.1402 -0.0577
17687W        W33948   4.462   5.875  16.781 -0.0294  0.1509  0.0749
17688W        W33949   3.260   9.521   0.585 -0.1528  0.0306 -0.0656
17689W        W33950  17.778  11.755  12.619 -0.0164  0.1932  0.3317
17690W        W33951   0.117  12.940   5.423 -0.1617 -0.0201  0.0421
17691W        W33952   3.504   1.754   2.665 -0.3279 -0.0814  0.0546
17692W        W33953  13.551  13.518   0.590  0.0551 -0.0763 -0.1597
17693W        W33954   1.286   4.195   6.554  0.0117 -0.1374 -0.0070
17694W        W33955   6.073   3.208   1.663  0.0653 -0.2005  0.0192
17695W        W33956   4.222   0.224  16.399 -0.1082  0.0278 -0.3171
17696W        W33957   2.708  14.746   4.828 -0.3317  0.0537  0.0118
17697W        W33958   4.048   2.393  12.614  0.0326 -0.1689 -0.2479
17698W        W33959  17.101   3.628  11.474  0.2539 -0.0550  0.2723
17699W        W33960   6.785   3.841  15.827  0.2207 -0.2031 -0.0490
17700W        W33961   7.378   3.526   1.374  0.1138  0.0881  0.4154
17701W        W33962   3.452   0.340   3.217  0.0371  0.1645  0.1197
17702W        W33963   9.034  12.453  16.938 -0.0973  0.1002  0.0487
17703W        W33964   6.257  13.950  15.955  0.1549 -0.3525  0.0089
17704W        W33965  17.525  12.424  12.195  0.0633  0.0019  0.3851
17705W        W33966   2.167  16.079  13.641 -0.2506  0.1619  0.1354
17706W        W33967   2.215   3.757  14.380 -0.1019  0.1206  0.0861
17707W        W33968   6.739  13.174   4.019  0.0252 -0.1649  0.0669
17708W        W33969   1.656   6.439  12.836 -0.2950 -0.0293  0.1266
17709W        W33970  11.613   5.247   5.928 -0.0239 -0.2928  0.2907
17710W        W33971   7.080   4.284   2.686  0.1966  0.0032  0.1673
17711W        W33972  10.280   4.028   1.570  0.4520  0.2457  0.0929
17712W        W33973  14.016   8.305   1.237  0.1493 -0.2222  0.0785
17713W        W33974   5.708  12.986   6.346  0.0419 -0.0067  0.2038
17714W        W33975   4.176   7.886   3.398  0.0998  0.1424 -0.0774
17715W        W33976   1.976   1.974   3.332  0.1463  0.1511  0.1863
17716W        W33977   9.228  16.417   1.490  0.1331  0.0888 -0.0364
17717W        W33978   1.874   3.137   1.510  0.0568 -0.0873 -0.0317
17718W        W33979  11.620   9.040   0.060  0.1146  0.0602 -0.1069
17719W        W33980  13.175  16.084   1.463  0.0856  0.5348  0.0802
17720W        W33981  12.314  11.139  13.779  0.0348  0.0673  0.0271
17721W        W33982   5.988   6.189   1.534  0.2052  0.1183  0.0677
17722W        W33983   2.238   8.697  14.509  0.2540 -0.3577  0.1670
17723W        W33984  12.250   6.481   4.765 -0.1382  0.1527  0.1384
17724W        W33985  10.821   2.269   4.323  0.0098 -0.0830  0.3295
17725W        W33986   3.762  12.061  12.297 -0.1528  0.0988  0.0350
17726W        W33987   6.159  14.010   2.243  0.2329  0.2200 -0.2663
17727W        W33988  14.406   5.274   0.018 -0.1629  0.0487 -0.1940
17728W        W33989   6.386  14.804   4.370  0.2124 -0.1858  0.0075
17729W        W33990   3.680  11.079   1.008  0.1491  0.1238  0.3623
17730W        W33991  16.969   6.689   1.943 -0.2277  0.0941 -0.0078
17731W        W33992  15.731   4.234   2.281 -0.5342  0.1592 -0.0372
17732W        W33993   9.129  11.470  16.443 -0.0463 -0.1985  0.2938
17733W        W33994   9.141  14.653  16.804  0.1945 -0.2612  0.0481
17734W        W33995  17.150  14.505   5.192  0.1362  0.2070 -0.3359
17735W        W33996  13.282   4.672  15.510  0.0696 -0.1942 -0.0323
17736W        W33997   7.322   2.188   1.502 -0.2288  0.1642 -0.1491
17737W        W33998   1.222   8.426   4.676 -0.0527 -0.0463  0.0353
17738W        W33999   6.131   8.079  13.427 -0.0697  0.1293  0.1271
17739W        W34000   9.688  11.527   3.525 -0.0832 -0.2474  0.2512
17740W        W34001   0.262   7.800   1.449  0.0861 -0.0811  0.0111
17741W        W34002  10.707  10.974   3.864 -0.3757  0.0244  0.1927
17742W        W34003  17.483   6.283   1.137 -0.1161  0.1212 -0.3550
17743W        W34004   7.712  11.693  13.698  0.1049  0.0471 -0.1898
17744W        W34005  15.627  15.184   2.757  0.2256  0.0031  0.2062
17745W        W34006   7.059  14.521   5.385  0.1920  0.1131 -0.0494
17746W        W34007   3.172  10.921   4.007 -0.4715 -0.2478 -0.0045
17747W        W34008  10.576   4.467  16.351 -0.1868  0.1022  0.2998
17748W        W34009  12.332   3.730  14.431 -0.0602 -0.0915  0.1881
17749W        W34010   7.997  13.636   0.409 -0.1306  0.2104 -0.0758
17750W        W34011  13.534   7.699  15.134  0.0733  0.4001 -0.0832
17751W        W34012   2.425  16.356   1.028 -0.1278 -0.2704 -0.0355
17752W        W34013   0.001   7.900  12.486 -0.0352  0.0707  0.0700
17753W        W34014   6.141   9.650   2.255  0.0673 -0.2178 -0.1144
17754W        W34015   8.953   9.810  16.498 -0.1907 -0.2023  0.0107
17755W        W34016   0.361  12.730  11.898 -0.0975 -0.1127  0.0267
17756W        W34017  10.673  14.261   0.968 -0.1770 -0.1429 -0.1926
17757W        W34018  12.670  10.929   0.575 -0.0833  0.1193  0.0872
17758W        W34019   8.186   0.101   6.220 -0.1937  0.1860 -0.1330
17759W        W34020  13.952   4.236  13.349 -0.0707  0.2675  0.0206
17760W        W34021  11.612   3.543   3.234  0.3090 -0.0027  0.1417
17761W        W34022   2.694   9.778  13.646 -0.0156 -0.3117 -0.3676
17762W        W34023  11.866   9.955   0.935  0.0153 -0.1923  0.1743
17763W        W34024  11.322   5.409  14.055 -0.0003  0.0864  0.2372
17764W        W34025   3.064  13.196  14.514  0.0422  0.2184 -0.0070
17765W        W34026   0.253  17.298   1.646  0.0331 -0.1433  0.2210
17766W        W34027  12.940   9.324  14.430  0.1036 -0.1371  0.0415
17767W        W34028   0.046   4.864   0.333  0.1570 -0.0157 -0.0370
17768W        W34029  17.066   8.875  15.798 -0.1763  0.0868  0.1006
17769W        W34030  16.202   6.187  14.240  0.0332  0.1911  0.0781
17770W        W34031   7.967   9.964   3.960 -0.0186  0.1228 -0.1951
17771W        W34032  15.221   1.080   4.635  0.2519 -0.3591 -0.1594
17772W        W34033   8.823  13.075   0.717  0.2267  0.3225  0.0326
17773W        W34034   9.014   1.865  12.273 -0.0935  0.1009 -0.0584
17774W        W34035   7.423   3.129   5.234  0.2111 -0.0352  0.1003
17775W        W34036   9.502  15.504   2.573 -0.0862 -0.2528  0.3254
17776W        W34037  17.241  13.462   2.744 -0.1292 -0.1811  0.0717
17777W        W34038  14.538  14.869   4.786  0.0382 -0.0437 -0.2240
17778W        W34039  14.995   7.064   2.046  0.0613 -0.5708  0.2229
17779W        W34040   1.690   9.075   3.971 -0.0176  0.1229  0.1888
17780W        W34041  13.326   2.959  11.720 -0.1416 -0.0668  0.2845
17781W        W34042  14.450  11.120  12.189 -0.0321  0.1920  0.2860
17782W        W34043   0.717  17.035   2.090  0.0752 -0.1977  0.1261
17783W        W34044   0.099  16.704  13.452 -0.0758 -0.0919  0.0484
17784W        W34045  14.652  14.304   4.982 -0.3313  0.0718  0.0398
17785W        W34046  12.631  13.557   1.738 -0.0689 -0.2505  0.2815
17786W        W34047  16.426  10.989  15.319  0.3032 -0.1140 -0.0531
17787W        W34048  13.534   1.316  16.408  0.2476  0.1579  0.1094
17788W        W34049  15.910   8.273  11.643  0.2178 -0.0402 -0.1383
17789W        W34050   3.768   4.016   2.346  0.0239 -0.0320  0.1122
17790W        W34051  12.686   4.335   2.233  0.2952 -0.1038  0.2384
17791W        W34052   1.168  11.361  14.025  0.0837  0.0734  0.2083
17792W        W34053  14.178   3.091   3.354 -0.1357  0.1338 -0.3740
17793W        W34054   5.476   6.008  15.055 -0.1771 -0.1518 -0.0093
17794W        W34055   7.948   3.468  15.926  0.2533 -0.0036 -0.4512
17795W        W34056  17.788   8.570  14.523 -0.0971  0.0221  0.4751
17796W        W34057   1.564   3.049  13.860  0.0160  0.1322  0.2273
17797W        W34058  14.584  15.542   4.001  0.4859  0.3077 -0.0739
17798W        W34059  16.762  10.020   1.719  0.0285 -0.1332  0.1076
17799W        W34060   2.222  11.419   0.640  0.3255  0.2843  0.1117
17800W        W34061   2.987   6.036  12.175 -0.1548  0.3209  0.1405
17801W        W34062   2.006  11.400  14.568 -0.1884  0.0378  0.0082
17802W        W34063  10.938   2.877  12.084 -0.1437  0.4306 -0.1287
17803W        W34064  15.126   3.570   5.559 -0.2972  0.1507  0.0088
17804W        W34065   0.106  17.474   2.849 -0.2954  0.1037 -0.0463
17805W        W34066   6.499   0.203   1.586 -0.1332 -0.2398 -0.0684
17806W        W34067  12.410   5.351  12.603  0.1703  0.1760  0.1366
17807W        W34068   8.214   6.972   3.509 -0.1607  0.2205  0.0107
17808W        W34069   7.372  17.693  15.931 -0.0226  0.1709 -0.1191
17809W        W34070   0.759  15.253   5.389 -0.1627 -0.0092  0.0750
17810W        W34071   1.503  11.435   0.074  0.0246  0.2068  0.2122
17811W        W34072   2.793   9.626   1.456 -0.1407 -0.0025 -0.0993
17812W        W34073  16.466   3.315  14.932 -0.1950 -0.0757 -0.0636
17813W        W34074  11.992  12.940   2.264  0.2883  0.2779 -0.0285
17814W        W34075  13.079   3.784  14.892  0.4327  0.0546 -0.0285
17815W        W34076  10.570  11.253  16.716 -0.3874 -0.2990  0.5472
17816W        W34077  17.143   1.852   3.739 -0.0170 -0.0315 -0.1734
17817W        W34078  13.693   2.752  12.634  0.0356 -0.1674  0.0932
17818W        W34079  10.483  11.777   1.462 -0.0935  0.1448  0.1062
17819W        W34080   1.852   1.590  16.922 -0.3180 -0.0638  0.0852
17820W        W34081  11.894   0.530  12.100  0.0542  0.1534 -0.1070
17821W        W34082   3.222   1.308  11.446 -0.2165 -0.0649 -0.4309
17822W        W34083  12.206   3.906   1.654  0.0163 -0.0789  0.2444
17823W        W34084   8.426  11.431   4.483 -0.1194 -0.2618  0.0034
17824W        W34085   5.779  14.222   4.654 -0.1441  0.0006  0.2971
17825W        W34086   6.729  12.740   4.909  0.0792  0.0178 -0.2722
17826W        W34087   1.199  13.592  15.151 -0.1053 -0.0478 -0.3698
17827W        W34088   1.076   6.281   4.933 -0.0244 -0.1285  0.0240
17828W        W34089   7.280   5.674  16.234  0.2045 -0.1215 -0.0565
17829W        W34090  10.040  17.425   3.180 -0.0550 -0.2298 -0.0928
17830W        W34091  16.824   9.783   3.562  0.0582  0.1026 -0.1623
17831W        W34092  17.129  17.537   4.748  0.2220  0.0341  0.2321
17832W        W34093   8.961  14.768  14.150 -0.1185  0.0191  0.1447
17833W        W34094  14.004  13.173  16.741 -0.2865  0.1237  0.0795
17834W        W34095   2.322  17.120  14.832  0.3020  0.0573 -0.2658
17835W        W34096   7.730   7.851  16.038 -0.1963 -0.2839 -0.1000
17836W        W34097   0.550   3.034   5.860  0.0011 -0.1474 -0.2549
17837W        W34098  15.067   7.407  12.366  0.0190  0.1275  0.3173
17838W        W34099   4.438   5.229   5.594  0.0399  0.1827 -0.0143
17839W        W34100  15.412   0.640  14.722 -0.2345 -0.1872  0.0961
17840W        W34101   7.711  11.792   1.311  0.2051  0.0254  0.1516
17841W        W34102  10.143   3.886  15.497  0.3662  0.2613 -0.0609
17842W        W34103   6.140   5.157  15.793 -0.0211 -0.1128  0.1942
17843W        W34104   8.770   6.842  14.505 -0.1244  0.1408 -0.0114
17844W        W34105  17.473  17.723  16.378  0.0674  0.1568 -0.0846
17845W        W34106  10.428   4.986  15.809 -0.1899  0.1541  0.0526
17846W        W34107   0.120   4.222  14.437  0.0285 -0.1635 -0.2743
17847W        W34108   4.677  10.248   5.579  0.2544  0.1881  0.1948
17848W        W34109  10.039   1.134  14.567  0.1371 -0.2398 -0.3313
17849W        W34110  12.941  10.811   3.854  0.0383 -0.3273 -0.0960
17850W        W34111   5.602   7.322   3.029 -0.1236  0.0136  0.0265
17851W        W34112   7.495  14.006   2.900 -0.1116 -0.1479 -0.2642
17852W        W34113  10.677   8.687  16.388  0.0437  0.2605 -0.0767
17853W        W34114   0.410  10.958   3.582  0.3140 -0.1556 -0.2906
17854W        W34115  17.668   0.455   0.547 -0.1372  0.1423 -0.0943
17855W        W34116   5.563   8.034  15.559  0.0275 -0.0373 -0.0142
17856W        W34117   9.353  10.417   0.615 -0.0275 -0.1060  0.1547
17857W        W34118  16.447   5.835   1.177  0.2055 -0.2024 -0.0614
17858W        W34119   2.325   2.104   2.985  0.1637 -0.0123 -0.0376
17859W        W34120   2.069   5.847  16.711  0.2173  0.0477  0.0118
17860W        W34121  14.538   7.972  12.790  0.2849 -0.2275  0.0056
17861W        W34122  12.572  14.909  12.140 -0.1480  0.1822 -0.0558
17862W        W34123   7.108  11.415   1.811  0.2348  0.2058 -0.2232
17863W        W34124   1.044   2.646   1.957 -0.0861 -0.0349 -0.1666
17864W        W34125   5.263  11.218   0.972 -0.1780  0.1300 -0.2559
17865W        W34126  15.042  15.350   5.196 -0.1177 -0.1641  0.1707
17866W        W34127  13.199   4.102  12.491  0.1114 -0.0800 -0.3691
17867W        W34128   6.171   6.940  11.670  0.0465  0.3350  0.0517
17868W        W34129   5.206   2.678  14.289 -0.3893 -0.0738  0.2660
17869W        W34130   9.083   3.257  12.504  0.0355 -0.1367  0.0863
17870W        W34131   1.823   2.276   2.982 -0.0524  0.1327 -0.0167
17871W        W34132   6.835  14.728   1.886  0.0338 -0.0097 -0.1281
17872W        W34133   7.100   3.424   5.596 -0.1312 -0.0977  0.0606
17873W        W34134   5.638  16.666   4.043 -0.1224 -0.3035  0.1415
17874W        W34135  11.085   8.853   2.273 -0.0711  0.0833  0.1740
17875W        W34136   7.819  17.702   5.019  0.1508  0.0996 -0.0426
17876W        W34137   6.107  14.392   0.890  0.0157 -0.0837 -0.1929
17877W        W34138   8.148   7.597   6.218  0.3337 -0.1633 -0.0882
17878W        W34139  10.933   9.300   2.979  0.0915 -0.1196  0.0757
17879W        W34140   3.967  14.654  15.706 -0.1094  0.0262  0.0397
17880W        W34141   8.410  15.721   1.631  0.0179  0.0706  0.1442
17881W        W34142  15.131  11.771   2.818  0.0558  0.0539  0.1692
17882W        W34143  15.130   5.985  16.438 -0.1388  0.2460  0.1734
17883W        W34144   8.314  14.505   2.822 -0.1481  0.5117  0.0199
17884W        W34145   7.251  15.731   3.745 -0.0135  0.2400 -0.1587
17885W        W34146   7.937   9.045  14.810 -0.2145 -0.1541  0.0227
17886W        W34147   2.585   6.344  12.853  0.2486 -0.3205  0.1003
17887W        W34148   4.166   2.513  15.966 -0.2024 -0.0520  0.3800
17888W        W34149   4.797  12.067   3.182  0.0866 -0.0276 -0.1354
17889W        W34150   3.743   6.936  16.180  0.1213  0.1835  0.0112
17890W        W34151   4.382   4.770  15.935 -0.0289 -0.0322  0.1207
17891W        W34152  14.272   5.694  12.511 -0.1456 -0.1971 -0.1855
17892W        W34153   6.654   2.111  16.116  0.1555 -0.3509 -0.0758
17893W        W34154   3.144   1.625   1.584  0.0548 -0.0684 -0.0074
17894W        W34155   4.696  14.575  12.617  0.2631  0.0392 -0.0927
17895W        W34156  16.233   1.968  13.636  0.1472  0.2729 -0.2677
17896W        W34157  16.358  17.783   1.195 -0.0027 -0.1693 -0.3360
17897W        W34158  11.876   0.557   4.761 -0.1592  0.1240 -0.1660
17898W        W34159   6.139  12.201   5.621  0.0200 -0.1486 -0.1515
17899W        W34160  17.628   0.209  13.012 -0.4158 -0.4664 -0.1863
17900W        W34161   3.472  14.089  16.324  0.0269  0.2082 -0.4755
17901W        W34162   9.311  15.991  16.054  0.1342  0.0850 -0.2753
17902W        W34163   5.290   1.257  12.275 -0.0963 -0.1377  0.0940
17903W        W34164   3.009   4.965   3.038 -0.2960  0.0365  0.2388
17904W        W34165   4.860  14.796   3.802 -0.0359  0.0696  0.2646
17905W        W34166  13.979   7.753   0.597 -0.1467 -0.1432  0.0784
17906W        W34167   5.331  17.491   0.106 -0.0743  0.0832  0.3424
17907W        W34168   3.840   6.329  15.382 -0.2044  0.1583  0.1737
17908W        W34169   6.127   0.257   4.540 -0.0755 -0.3164  0.0016
17909W        W34170   9.310   8.572  12.606 -0.0275 -0.2958  0.2010
17910W        W34171   4.537  14.697  14.458  0.1281 -0.1459 -0.0317
17911W        W34172   3.682   9.017   2.406 -0.0627 -0.0227  0.1522
17912W        W34173  11.005   1.321   2.928  0.3241 -0.3599  0.1577
17913W        W34174   4.762  15.788   4.784 -0.0487 -0.1865  0.1074
17914W        W34175   8.216   8.180  13.827  0.1236  0.1386 -0.1480
17915W        W34176  12.499  11.009   1.071  0.0103 -0.0708  0.1813
17916W        W34177   9.622  12.796   2.155  0.2659  0.0600 -0.1462
17917W        W34178  10.073   2.115   1.002  0.1532 -0.3012  0.2671
17918W        W34179   1.792  17.703   5.082 -0.0235  0.0653 -0.3080
17919W        W34180   0.557  16.621  12.430 -0.2008  0.1379 -0.0480
17920W        W34181   8.144   7.216  13.498 -0.0425 -0.0774 -0.0392
17921W        W34182  16.578   0.394  12.949  0.2531  0.0011 -0.1373
17922W        W34183   5.240   0.776  15.918 -0.0952 -0.0057 -0.1955
17923W        W34184   8.659   2.506   5.726 -0.4192  0.1132 -0.0606
17924W        W34185   1.511   5.932   4.810 -0.0102  0.0537 -0.3684
17925W        W34186   2.941   7.291   1.343  0.0698 -0.0435  0.3068
17926W        W34187   0.042   5.585   4.380 -0.1639  0.0807 -0.1080
17927W        W34188  11.243  11.899   5.188 -0.1293  0.2372  0.1162
17928W        W34189   0.901  14.117  11.660 -0.2703 -0.0262 -0.0818
17929W        W34190   8.549   9.195   1.555 -0.2180  0.1347  0.1110
17930W        W34191  11.323  13.056   1.995 -0.2157  0.2509 -0.0246
17931W        W34192  10.501   7.495  12.164 -0.2014  0.1154 -0.0626
17932W        W34193  12.660  11.004   4.565  0.1275  0.0919  0.0216
17933W        W34194   2.390   3.592   0.136  0.1766 -0.2512  0.0722
17934W        W34195   3.399   2.993  12.042 -0.0457  0.1686  0.0982
17935W        W34196   8.746   7.065  14.064  0.1229 -0.0135 -0.0273
17936W        W34197   9.958   3.291  16.792  0.1394 -0.0561  0.0408
17937W        W34198  10.223   6.284  15.037 -0.2622  0.0662  0.1660
17938W        W34199   7.074   8.341   3.262  0.0513  0.0027 -0.0509
17939W        W34200  17.267   6.500  16.343 -0.0446 -0.1860  0.1553
17940W        W34201  17.533   2.080   0.152 -0.0608  0.0709  0.3605
17941W        W34202   4.032  13.917  13.350  0.2151 -0.2784  0.1747
17942W        W34203  15.215   3.317  11.632  0.1396  0.1010 -0.2842
17943W        W34204  11.235  15.061   0.381 -0.1615 -0.3084 -0.1678
17944W        W34205  12.662   8.728  14.484 -0.1194 -0.0006  0.1707
17945W        W34206   2.650   4.124  16.408  0.2060 -0.2994 -0.3089
17946W        W34207   4.118   9.338  15.312 -0.0736  0.0452  0.0571
17947W        W34208   2.550  14.999  12.341  0.2457  0.1419  0.2193
17948W        W34209   5.843   4.157   2.370  0.3610  0.1188 -0.2485
17949W        W34210  12.077   1.332  14.411  0.0698  0.1327  0.3313
17950W        W34211   6.317   7.361   5.058  0.0797 -0.4218 -0.0053
17951W        W34212   3.282   2.866   1.356 -0.1605 -0.1566  0.1346
17952W        W34213  14.695  17.127   0.254  0.1467  0.0192  0.1839
17953W        W34214   9.009  15.523   0.425 -0.1154  0.1292  0.0681
17954W        W34215  17.129  12.057  15.010  0.1249 -0.0552 -0.0466
17955W        W34216   9.977  13.150  16.078  0.2194  0.1611 -0.3053
17956W        W34217   8.166  14.037  15.025  0.0360 -0.0211 -0.0010
17957W        W34218  12.807  13.410  12.753 -0.2447 -0.0462 -0.4830
17958W        W34219   2.121   5.502  12.001  0.0498  0.0880  0.0593
17959W        W34220   8.954  17.797   4.521  0.0490 -0.0440 -0.3185
17960W        W34221  16.779  13.102  14.540 -0.2363 -0.2150  0.0057
17961W        W34222  15.379  11.647  12.712  0.2290 -0.0394 -0.0207
17962W        W34223  11.362   8.760   5.667 -0.1768  0.1111  0.2426
17963W        W34224   4.334  15.340  11.650  0.1494 -0.0308 -0.1231
17964W        W34225   0.001   1.485   4.791 -0.1024  0.0954 -0.0634
17965W        W34226  12.942   6.278   5.871  0.0590  0.5960 -0.1109
17966W        W34227   9.722   8.866   3.486 -0.0308  0.0103 -0.1289
17967W        W34228  15.510  14.267  16.067 -0.2801  0.0706  0.1107
17968W        W34229   6.701   9.976  12.380 -0.2156  0.1605  0.1210
17969W        W34230   4.420  16.640  12.350  0.0353 -0.1058 -0.1427
17970W        W34231   7.503   4.316  13.007  0.4868  0.2562  0.1127
17971W        W34232   5.706   9.559   5.300  0.3135 -0.0280 -0.1071
17972W        W34233  17.304   6.312   5.027  0.0559  0.0552  0.0625
17973W        W34234  14.744  13.405   0.647 -0.2935 -0.0818 -0.2580
17974W        W34235   8.196  11.289   1.009 -0.2752  0.1113  0.2508
17975W        W34236  10.684   3.719   2.894  0.0045 -0.1428  0.0516
17976W        W34237  14.891   2.204  11.259 -0.1996  0.0039  0.0948
17977W        W34238  11.664   5.125  14.384  0.0523 -0.0734  0.3132
17978W        W34239  13.109   5.812  16.483  0.1061 -0.2127 -0.1369
17979W        W34240  16.029  17.521  13.059  0.2447 -0.0327 -0.1441
17980W        W34241   3.598  17.031  11.976  0.0167  0.0275 -0.0335
17981W        W34242  17.655   2.472  13.748 -0.1160  0.0968  0.1458
17982W        W34243   6.274   5.926   2.330  0.0261  0.2460  0.0788
17983W        W34244   2.886   8.952  16.539  0.1449 -0.0477 -0.1386
17984W        W34245  12.321   8.972   5.409  0.0126 -0.0433 -0.0105
17985W        W34246   3.176  13.239   4.259 -0.3891 -0.0272 -0.1488
17986W        W34247  16.397   9.194   1.033 -0.0536  0.1702 -0.3384
17987W        W34248   7.194   8.199  14.579  0.0481 -0.1141 -0.1195
17988W        W34249  16.929   5.545   5.500 -0.2828  0.1974 -0.1803
17989W        W34250  10.333   9.354  15.582 -0.3121 -0.2040 -0.0119
17990W        W34251   8.399   6.079   3.180  0.0300 -0.1092  0.1083
17991W        W34252   1.545   9.267   3.441  0.2011  0.0139 -0.2950
17992W        W34253   1.812  14.375   4.528 -0.2493 -0.0155  0.1285
17993W        W34254  13.860  11.429  15.941  0.1726 -0.2969 -0.1588
17994W        W34255   7.314   3.791   5.929  0.2569 -0.1057  0.0882
17995W        W34256   8.361  15.188  14.652  0.0886 -0.0068  0.0728
17996W        W34257   3.793  10.972   5.130  0.0035 -0.0506 -0.1473
17997W        W34258  12.445   3.993  12.662  0.2521  0.0824  0.3529
17998W        W34259  15.521   3.509   4.627  0.0079  0.1632  0.0280
17999W        W34260  15.484  14.594  14.201  0.0586 -0.0673 -0.1115
18000W        W34261   8.652  12.136   5.209 -0.2921  0.1521  0.0458
18001W        W34262  17.616   1.715  14.419 -0.2382 -0.1765  0.0702
18002W        W34263  12.604   1.041  16.683 -0.1732 -0.0368  0.2720
18003W        W34264  10.542  10.857   2.535 -0.1017 -0.1957 -0.5393
18004W        W34265   7.390   8.743   2.441 -0.4271  0.0971  0.1270
18005W        W34266   6.423   1.442   2.137 -0.1856 -0.1668 -0.0759
18006W        W34267   6.513   4.223   5.405 -0.0823  0.2772  0.4304
18007W        W34268   6.148   1.276   0.001 -0.0081 -0.1334  0.0043
18008W        W34269  12.054  14.989   5.248 -0.1016 -0.1888 -0.1128
18009W        W34270   8.669   7.155   2.240 -0.1010 -0.3524  0.3812
18010W        W34271   0.177  14.795   5.010  0.2505 -0.0480 -0.1231
18011W        W34272   1.616  11.632  16.443 -0.0714  0.2830  0.0647
18012W        W34273   3.158   4.773  12.181  0.3360 -0.5391 -0.1694
18013W        W34274  10.225   5.455  14.848  0.2075 -0.1347  0.0923
18014W        W34275  11.480  10.258   0.060 -0.0050  0.0705  0.0969
18015W        W34276   8.824  12.444   2.193  0.2607  0.0024  0.2239
18016W        W34277  17.667   9.772   3.222  0.0300  0.1018 -0.0097
18017W        W34278  12.566   3.636  11.846  0.3130 -0.1891 -0.1221
18018W        W34279   2.335   8.048  15.614  0.1435 -0.0224  0.1419
18019W        W34280   3.002  16.175   0.361 -0.0800 -0.2892  0.2633
18020W        W34281   2.804   1.957   1.554 -0.0402 -0.0004  0.2310
18021W        W34282   9.343   3.848  12.924 -0.0225  0.5629 -0.1883
18022W        W34283   5.233   6.998   3.970  0.4015  0.0778 -0.2216
18023W        W34284   7.359   9.059   5.006 -0.2378  0.0069 -0.2215
18024W        W34285   3.936  11.781  15.079  0.1983  0.0254  0.0053
18025W        W34286   8.473  17.694   4.596 -0.0330  0.0823  0.0852
18026W        W34287   7.521   0.470  13.640 -0.1850 -0.0454  0.1993
18027W        W34288   5.366  17.370  15.250 -0.1897 -0.1944 -0.0900
18028W        W34289   8.387  10.205   3.817 -0.1075  0.0223  0.1254
18029W        W34290  10.986   4.509  14.158  0.3941  0.0705  0.1817
18030W        W34291   7.149   7.681  16.414 -0.2130 -0.3300  0.2869
18031W        W34292   0.852   3.575   0.386  0.1353 -0.0005 -0.0134
18032W        W34293  13.737  13.366  13.309  0.0769 -0.2161  0.2944
18033W        W34294  11.810   1.865  14.330 -0.0470 -0.1909  0.0239
18034W        W34295  14.204  12.177   4.659  0.0796 -0.1567 -0.1780
18035W        W34296   2.734   8.501  14.682 -0.2818 -0.1870  0.0121
18036W        W34297   9.026   7.020   3.039  0.1148  0.1801  0.0006
18037W        W34298   3.172  10.551   5.714  0.0267 -0.0819 -0.1004
18038W        W34299  16.662   1.186  13.685  0.0479  0.2790  0.0135
18039W        W34300  13.052   5.086  15.363 -0.2377  0.1501 -0.0513
18040W        W34301   2.131   5.569   5.137 -0.4278  0.3842  0.0812
18041W        W34302   4.248   0.709  13.925  0.1598  0.1292 -0.0777
18042W        W34303   8.558   1.592   4.483 -0.3998 -0.2011 -0.0912
18043W        W34304   3.525  15.052  15.462  0.0025 -0.0998  0.0351
18044W        W34305   4.314  15.065   0.668  0.0968 -0.0269 -0.0423
18045W        W34306  12.378  11.134   2.819 -0.3162  0.0405 -0.1041
18046W        W34307  17.322   0.972  12.533  0.0295 -0.1521  0.0028
18047W        W34308   2.905   8.653   4.710  0.0836 -0.0703 -0.1430
18048W        W34309   1.824   5.549   5.566  0.0504 -0.0611 -0.2168
18049W        W34310  12.831   3.434  14.625 -0.0386 -0.1653 -0.0909
18050W        W34311   8.251  12.606  16.337 -0.0912 -0.1600  0.0317
18051W        W34312   1.570   3.614   2.015  0.0579  0.1649  0.2210
18052W        W34313   0.664  12.467  12.242 -0.2593  0.0200 -0.1375
18053W        W34314   7.922  16.190  15.117  0.2089  0.0206 -0.0097
18054W        W34315   8.353  12.807   0.648  0.0403 -0.0373 -0.0784
18055W        W34316   4.645   3.744   4.870  0.1934  0.3466 -0.0101
18056W        W34317  11.041  14.819  13.844 -0.0415  0.0587 -0.2291
18057W        W34318  12.764   1.173  15.281 -0.0297  0.1577 -0.1722
18058W        W34319  16.850  10.542  13.641 -0.1618 -0.1148  0.2105
18059W        W34320   9.772  11.136   4.354  0.0113 -0.0866 -0.1835
18060W        W34321   5.544   6.697  15.798 -0.0462 -0.1625  0.0906
18061W        W34322   7.843  15.188   4.041  0.0749 -0.0838  0.2976
18062W        W34323  16.117   2.725   0.956  0.0450  0.1126  0.1223
18063W        W34324  11.046  14.823  14.429 -0.2976 -0.0053  0.2152
18064W        W34325   1.839   7.638   0.882 -0.3058 -0.0862  0.1857
18065W        W34326  13.680   4.143   2.997 -0.0290 -0.1450 -0.0563
18066W        W34327  10.383   0.601   3.755  0.2859 -0.2072  0.0145
18067W        W34328   3.624   6.590   1.525 -0.0235  0.2728  0.1345
18068W        W34329   7.108  15.813   0.483 -0.2567 -0.0487  0.0711
18069W        W34330   5.881   0.089  14.096  0.1332  0.1561 -0.1130
18070W        W34331   1.440   9.027  13.889 -0.2875 -0.1245  0.0904
18071W        W34332  13.019   8.354  16.722 -0.4327 -0.1221  0.2338
18072W        W34333   1.464   5.273  12.188  0.0019 -0.0107  0.2151
18073W        W34334   6.402  17.405   0.102  0.2113  0.0949  0.1292
18074W        W34335   8.924   5.563  12.187 -0.1416  0.0839  0.0107
18075W        W34336   6.615   8.627  15.021  0.2091  0.0716 -0.0012
18076W        W34337  15.334  15.575  14.059 -0.1046  0.1376 -0.3143
18077W        W34338   3.447   8.421   4.586  0.0249 -0.1825  0.0016
18078W        W34339   0.352   0.206  11.017  0.1225 -0.1814 -0.2540
18079W        W34340   7.937  13.567   1.676 -0.3235 -0.0638 -0.0173
18080W        W34341  14.151   2.633  12.208 -0.1311  0.0781  0.0366
18081W        W34342   7.773   1.680  12.903  0.0187  0.1636  0.1660
18082W        W34343  15.789  14.505  11.993 -0.0392 -0.1968 -0.2753
18083W        W34344  14.697   2.944   5.005 -0.2153  0.0912  0.0339
18084W        W34345  13.205  16.870  16.797  0.1089 -0.2869  0.2783
18085W        W34346   7.444  17.502   0.093 -0.1004  0.0359  0.1954
18086W        W34347   0.145  15.013   2.272 -0.2178 -0.1708 -0.2865
18087W        W34348  15.722   2.122  13.068 -0.3970 -0.0343 -0.1025
18088W        W34349   4.147   6.954   3.039 -0.0751  0.2884 -0.2792
18089W        W34350  13.148   8.686   1.421  0.1232  0.1400 -0.1497
18090W        W34351  16.559   1.498   6.067  0.1112  0.0108 -0.2132
18091W        W34352  11.335  12.057   1.342  0.0750  0.0070 -0.0187
18092W        W34353   4.888   4.478  15.380 -0.1107 -0.0379 -0.0014
18093W        W34354   8.953   1.743   0.568 -0.1264  0.2202  0.0736
18094W        W34355  15.237   4.494   0.892  0.4307 -0.1252 -0.1971
18095W        W34356   3.672   6.786  12.463 -0.1042  0.0612 -0.0203
18096W        W34357  15.549   0.342  16.681  0.1444 -0.0528 -0.3043
18097W        W34358   4.572   3.418   5.651  0.3977  0.1452 -0.0101
18098W        W34359   1.430   4.004  14.176 -0.1380  0.0290 -0.3565
18099W        W34360   1.135  10.414  13.409 -0.2244 -0.3651 -0.4119
18100W        W34361   0.031   2.295  12.922  0.1253  0.1209  0.1370
18101W        W34362   4.853  17.320  10.871  0.0666 -0.0071  0.0750
18102W        W34363  17.676  14.159   1.622  0.1533  0.1644 -0.0660
18103W        W34364   8.445  14.781  13.902  0.0906 -0.0431  0.0308
18104W        W34365   9.408  12.069  16.762  0.2614 -0.3843 -0.0998
18105W        W34366  13.055  13.262   4.930 -0.1710  0.0604 -0.0269
18106W        W34367   9.261  13.414   6.224  0.1885  0.2934 -0.0992
18107W        W34368   4.532   7.934  14.178 -0.1461 -0.2562 -0.1546
18108W        W34369   7.820   4.531  14.761  0.2656  0.1873 -0.2033
18109W        W34370   3.903   0.309   2.990  0.1829  0.1799 -0.1622
18110W        W34371   0.181   9.335  16.010 -0.1486 -0.0736  0.4666
18111W        W34372   0.520   8.086   4.266 -0.1494 -0.1199 -0.0184
18112W        W34373  13.992  12.160  15.238  0.3160 -0.0516  0.1574
18113W        W34374   0.289   8.350   3.381 -0.2294 -0.2982 -0.0943
18114W        W34375   0.009   3.693  15.964  0.0526 -0.0376 -0.2607
18115W        W34376   3.873  16.125  16.762 -0.0869  0.2860 -0.2801
18116W        W34377  12.350   2.302  12.602  0.2256 -0.0346  0.4309
18117W        W34378  10.102   4.605   2.102  0.0807  0.0985  0.2083
18118W        W34379   5.655  14.189  10.602  0.0015 -0.2156  0.3943
18119W        W34380   6.262   3.242  14.141  0.1327 -0.0661  0.2590
18120W        W34381  12.233   6.045  15.905  0.0008 -0.0179  0.2522
18121W        W34382   0.741   9.673   1.677 -0.0082 -0.2028  0.0524
18122W        W34383   1.946   3.283   0.216 -0.2360  0.2357  0.0437
18123W        W34384  10.225  17.050  13.377 -0.2239 -0.0141  0.3910
18124W        W34385  13.821   5.161  15.997 -0.0004 -0.0073 -0.1453
18125W        W34386  15.819  17.708   3.258  0.1406  0.0229 -0.3445
18126W        W34387   6.361   2.241  13.667 -0.0468 -0.1082  0.4422
18127W        W34388  13.108  11.145  12.031 -0.0590  0.5655 -0.0358
18128W        W34389  17.483   6.541  15.569  0.2939 -0.0188 -0.1649
18129W        W34390  15.907  13.057  14.569 -0.1005 -0.0519 -0.1724
18130W        W34391   3.810   6.087   1.427 -0.2393  0.1045  0.4051
18131W        W34392  10.640  15.822   4.119 -0.0791  0.0690  0.0169
18132W        W34393  14.240   6.391  13.898  0.1190 -0.2376  0.2222
18133W        W34394  16.098   4.932   5.132  0.0014  0.0684 -0.0344
18134W        W34395   2.682   9.422  16.335  0.1162 -0.0022 -0.1626
18135W        W34396   4.813  14.703   0.507 -0.2739  0.0443 -0.5697
18136W        W34397  17.153   6.886  11.808  0.0867  0.1343 -0.1492
18137W        W34398   5.374  15.778   4.403  0.1434 -0.0329 -0.0785
18138W        W34399   3.894   9.906   5.261 -0.3523  0.3061 -0.1867
18139W        W34400  12.775   9.327  12.691  0.2111 -0.0219  0.0541
18140W        W34401   0.953  12.187   4.851  0.0470 -0.0536 -0.0932
18141W        W34402   0.701   6.585   5.190 -0.0452  0.0740  0.0173
18142W        W34403   3.011   1.837  13.159 -0.2208 -0.1596  0.2475
18143W        W34404  15.499  11.822  15.456 -0.0894  0.2008 -0.0468
18144W        W34405   2.238   7.323   3.613  0.0522  0.1599  0.2473
18145W        W34406  17.646   1.054   2.412  0.0283 -0.0132  0.1561
18146W        W34407  10.646  17.844  16.883  0.0571 -0.2440 -0.0133
18147W        W34408  11.462  14.076   1.600 -0.0006  0.0948  0.1305
18148W        W34409   9.070  15.500   0.895  0.3407 -0.1921 -0.0469
18149W        W34410   9.802   8.303   4.006  0.0049  0.2156  0.0074
18150W        W34411  11.787   1.605  16.022 -0.1641 -0.3346  0.0965
18151W        W34412  16.399  15.937   5.295 -0.0722 -0.3803 -0.1540
18152W        W34413   8.403   5.564   0.738  0.0659  0.2261 -0.1437
18153W        W34414  14.864   5.284   5.602 -0.0454 -0.2295  0.0115
18154W        W34415  11.273  16.009   5.308  0.2896  0.2474  0.1178
18155W        W34416   1.517  10.297   0.304 -0.0706  0.0731  0.2484
18156W        W34417  11.474   4.192   0.853  0.0102  0.1545  0.1075
18157W        W34418   8.930  16.519   0.200 -0.0503  0.1401  0.0346
18158W        W34419   6.082  15.322  15.178 -0.1708  0.2093  0.1074
18159W        W34420   6.114   7.117  11.126 -0.5814 -0.0576 -0.0647
18160W        W34421  14.991   4.028  13.274  0.1384  0.0504 -0.0145
18161W        W34422  10.010   0.437   5.703 -0.0464  0.1022 -0.0754
18162W        W34423  16.491   0.272  11.456 -0.3307 -0.0534  0.2000
18163W        W34424  16.089  15.189   5.464  0.1566 -0.0522  0.0598
18164W        W34425  16.551   7.359   1.652 -0.0654 -0.2012  0.0205
18165W        W34426   3.249   0.398  13.846  0.3617 -0.0375  0.2511
18166W        W34427  13.620  17.303   1.140  0.2220  0.1403  0.5374
18167W        W34428  14.249   3.601   2.281 -0.1315 -0.1269 -0.3851
18168W        W34429  11.874   2.653   1.650  0.1278  0.0354  0.0104
18169W        W34430  10.432  15.877   0.161  0.3569 -0.2968 -0.0312
18170W        W34431  14.357   8.420  14.962  0.2855 -0.0539  0.1374
18171W        W34432   8.267  11.399   5.871  0.1382 -0.1959 -0.2319
18172W        W34433   7.364   6.634  13.611 -0.3314  0.2490 -0.2984
18173W        W34434   6.934   1.023   6.003  0.0798  0.1426 -0.0373
18174W        W34435   4.266  11.277   6.308  0.3356  0.4413 -0.1932
18175W        W34436   2.129  16.470   5.513  0.0750 -0.1223  0.1779
18176W        W34437   3.994  15.256   2.003 -0.0948 -0.2699  0.0649
18177W        W34438  16.749   9.300  14.832  0.1970 -0.0388  0.0160
18178W        W34439   6.559   3.930  12.570  0.0486 -0.4023  0.1834
18179W        W34440  10.970  10.951   5.223 -0.3448 -0.0436 -0.1439
18180W        W34441  14.214  15.786   3.620 -0.0949  0.2697  0.1035
18181W        W34442   5.557   1.189   3.105 -0.1173  0.1676  0.0788
18182W        W34443   8.316   2.048   5.180 -0.0515  0.0351 -0.0464
18183W        W34444   9.436  12.500   4.895 -0.0797  0.0321  0.1386
18184W        W34445   4.096  12.258   5.976 -0.0664 -0.1242  0.0061
18185W        W34446  10.470   6.935  12.021  0.1507 -0.0555 -0.1690
18186W        W34447  12.333   3.791  15.589  0.1403 -0.0169 -0.2645
18187W        W34448  10.932   0.673   4.192 -0.0498 -0.0198 -0.3504
18188W        W34449   8.893   4.124  16.699  0.1194 -0.0875 -0.0321
18189W        W34450   8.618   9.136   4.894 -0.0708  0.3065 -0.1121
18190W        W34451   4.034  14.183  15.070 -0.0094  0.3372  0.0101
18191W        W34452  12.160   2.669  16.238  0.1148 -0.2056 -0.3008
18192W        W34453   8.457   3.156  13.565 -0.1408  0.2391  0.0433
18193W        W34454   0.544   8.840   3.525  0.0574 -0.0644  0.0237
18194W        W34455   1.120   4.307  16.513  0.2118 -0.1212 -0.0817
18195W        W34456  10.621  17.112  15.238  0.2326 -0.2209 -0.1710
18196W        W34457   4.851   7.742  15.924  0.1790  0.0407  0.0697
18197W        W34458   8.724   1.997   4.161 -0.1397  0.0276  0.0425
18198W        W34459  12.705   9.910  10.371  0.1410  0.0628 -0.2098
18199W        W34460   9.413  16.231   1.977 -0.3636 -0.0336  0.1448
18200W        W34461   2.160   1.963   5.927 -0.1071 -0.0082 -0.0642
18201W        W34462   9.261  16.647  15.295 -0.0304  0.1635  0.2062
18202W        W34463   5.059   7.970   4.926  0.1912 -0.2422 -0.1081
18203W        W34464   9.918   0.049  15.662 -0.0895  0.0328  0.0308
18204W        W34465  14.238  16.947  11.513  0.4388 -0.1773  0.0059
18205W        W34466   7.734   9.781   0.505  0.0476 -0.1340 -0.0756
18206W        W34467   3.865   6.125  14.433 -0.0617  0.0743 -0.0578
18207W        W34468   2.035   3.123  12.018 -0.1963 -0.0387 -0.0574
18208W        W34469  11.067   4.112   0.117  0.2387 -0.2590 -0.3294
18209W        W34470   3.294  13.722  14.827  0.3161 -0.0024 -0.0019
18210W        W34471   7.740  14.983  16.351 -0.2289 -0.2937  0.0964
18211W        W34472  10.586   5.486  16.142  0.1460  0.1483 -0.0326
18212W        W34473   9.815   9.808  13.405  0.0233 -0.5797 -0.5128
18213W        W34474   1.588  14.624  15.465 -0.0178 -0.2610 -0.1812
18214W        W34475  12.950   5.470  13.206 -0.5954 -0.1547  0.0921
18215W        W34476   5.890   7.536   4.317 -0.0174  0.3834  0.0421
18216W        W34477  10.654  16.829   0.288  0.1557  0.0386  0.1690
18217W        W34478  10.211  15.017   5.382 -0.1152 -0.3977  0.0414
18218W        W34479   7.856   2.692   2.018 -0.1384  0.0891  0.0233
18219W        W34480  16.163  16.570   0.974  0.0386 -0.1073  0.3587
18220W        W34481  15.420  16.640  16.282 -0.0930  0.2063 -0.1007
18221W        W34482  12.031  16.249   5.358 -0.1956 -0.2826  0.0634
18222W        W34483   5.331   8.617   0.896  0.2992 -0.0533 -0.1435
18223W        W34484  13.436   4.890   3.068  0.2209  0.1391  0.0782
18224W        W34485   3.744   8.900  16.461 -0.1141 -0.0900  0.0011
18225W        W34486  14.357  10.446  12.481  0.1371 -0.1513 -0.2444
18226W        W34487  12.490  17.851  16.669  0.1965  0.2290  0.0928
18227W        W34488   8.914   4.597   4.618 -0.0827 -0.2472 -0.1125
18228W        W34489  10.447   0.616   2.306 -0.0283 -0.2711 -0.1496
18229W        W34490   3.017   6.769  15.588  0.0452 -0.0130 -0.1651
18230W        W34491   9.611  15.643   1.188  0.1423 -0.1524  0.0644
18231W        W34492   6.126   4.578  14.312 -0.0174 -0.0602  0.2441
18232W        W34493   8.983   8.405   1.265 -0.0049  0.0168  0.0845
18233W        W34494  14.735   2.087  12.089 -0.0931 -0.1922  0.2350
18234W        W34495  16.847  16.109   4.676 -0.0316 -0.3356 -0.2971
18235W        W34496   2.997   8.473   3.770 -0.1031  0.0432 -0.0465
18236W        W34497   4.883   1.845   2.781  0.0435 -0.0898 -0.0385
18237W        W34498  16.708  14.819   0.879 -0.1934 -0.0745 -0.1471
18238W        W34499  15.799   7.744   0.527 -0.0145  0.1227 -0.4251
18239W        W34500  17.550   3.153  15.974  0.1298  0.2666  0.0754
18240W        W34501   7.827  15.164   1.552 -0.1644  0.0912 -0.6641
18241W        W34502  14.124  17.041  12.077  0.1697  0.2078 -0.1202
18242W        W34503   1.142  10.930  11.727 -0.0316 -0.2347 -0.1703
18243W        W34504   7.154  15.908   4.710 -0.2005  0.0885 -0.2842
18244W        W34505   8.893   5.400  11.673 -0.2212 -0.0134 -0.1567
18245W        W34506   3.112   8.223  14.929 -0.0238 -0.0898 -0.0867
18246W        W34507  11.685  14.075  14.755  0.0326 -0.3280 -0.1043
18247W        W34508  16.730  14.392   5.525 -0.0870 -0.1148 -0.0735
18248W        W34509  11.354   7.295  13.225 -0.2575  0.3597  0.2073
18249W        W34510   3.522   4.994   2.913  0.0516 -0.2041 -0.0082
18250W        W34511  10.723  16.945  16.673 -0.0288  0.2032 -0.0626
18251W        W34512   7.349   9.330   3.412 -0.2295 -0.0051  0.0793
18252W        W34513  11.975  15.940  11.939 -0.2856 -0.0613 -0.0275
18253W        W34514  16.781  17.097   1.535  0.2280 -0.0700  0.0688
18254W        W34515   5.887   5.003   5.607  0.2524 -0.2568 -0.1977
18255W        W34516   6.009   7.350   5.456  0.1131 -0.1410  0.1306
18256W        W34517  12.510  12.564  12.297 -0.0411 -0.1680 -0.0454
18257W        W34518   1.287  13.193   0.835  0.0367  0.2864  0.0109
18258W        W34519   6.468   3.718   0.412 -0.0079  0.2005  0.0783
18259W        W34520   5.864   0.004  14.644  0.0037 -0.1684 -0.1065
18260W        W34521   9.573   0.420   2.680  0.1594  0.0044  0.1125
18261W        W34522  12.241   2.220  14.563  0.1353  0.3511  0.1585
18262W        W34523  11.965   4.843   5.979  0.2751 -0.1279  0.1642
18263W        W34524   9.072  12.014   5.515  0.1765 -0.3114  0.0624
18264W        W34525   1.390  14.896  11.318 -0.2099  0.1135 -0.2626
18265W        W34526   5.741   6.522  13.668 -0.0514  0.0822  0.1470
18266W        W34527   8.797   7.567  11.527  0.1756 -0.1867 -0.3239
18267W        W34528  16.842  13.746   1.926  0.0424 -0.2516  0.0360
18268W        W34529  10.110   1.324  11.575  0.1691 -0.1231  0.1597
18269W        W34530   0.361  17.652   5.927 -0.1210 -0.1135 -0.0253
18270W        W34531   6.409  15.456   3.156  0.0166  0.2089 -0.0444
18271W        W34532   3.019   6.573   2.837 -0.1577  0.0474  0.2873
18272W        W34533   1.982  10.930  14.560  0.0105  0.0252  0.1876
18273W        W34534   4.720   6.889  14.279  0.1052 -0.3229 -0.0562
18274W        W34535   7.747   1.831  15.237 -0.1566  0.0159  0.0138
18275W        W34536   8.144   5.983  15.546 -0.1838 -0.2412 -0.1441
18276W        W34537   0.050   8.783   2.427  0.0287 -0.1475  0.1619
18277W        W34538  13.457   3.502  11.648 -0.2580  0.0481  0.2155
18278W        W34539   8.465   6.238   1.853 -0.0760 -0.0840  0.0211
18279W        W34540   3.012   6.398   5.340 -0.2587 -0.1642  0.3036
18280W        W34541  17.594  16.968   2.933 -0.2004 -0.0283 -0.0746
18281W        W34542   4.388  14.099  12.315  0.1945  0.2702  0.1591
18282W        W34543   7.259  16.662   0.541 -0.0512  0.2303  0.2687
18283W        W34544   3.788   7.647  15.461 -0.0972  0.0559 -0.3335
18284W        W34545   9.753   3.015   5.241 -0.1438 -0.0349  0.0345
18285W        W34546   8.340  16.865  13.234 -0.2080 -0.0245  0.1514
18286W        W34547  15.698   6.347  16.979 -0.0064  0.1811  0.1441
18287W        W34548   2.430   3.809   1.785 -0.0342  0.0122  0.1003
18288W        W34549  17.106   9.796  16.130  0.0583 -0.0389  0.1162
18289W        W34550   2.955   3.443   2.598 -0.0236 -0.1598  0.0925
18290W        W34551   4.234  16.980   2.214  0.3192  0.0459 -0.0574
18291W        W34552   8.167  12.731  14.585  0.1212 -0.0040  0.4175
18292W        W34553  17.832   8.778  12.700  0.1669  0.4165 -0.1379
18293W        W34554   4.238   4.269   0.753 -0.0759 -0.3129 -0.1230
18294W        W34555   6.111   7.071   3.830  0.2341 -0.2225  0.1827
18295W        W34556  14.428   7.292  11.730  0.2845  0.0453  0.0215
18296W        W34557   7.962  15.809  14.833  0.1464 -0.0227  0.0164
18297W        W34558   7.738  13.940  13.129 -0.0083  0.0519 -0.0562
18298W        W34559  10.738   7.082  14.659  0.0187  0.4913  0.1302
18299W        W34560  16.766   3.632  14.540 -0.0615  0.1369  0.0671
18300W        W34561  12.052   0.651   6.114  0.0200  0.0374  0.2561
18301W        W34562  16.226   3.632   2.493  0.1994 -0.1681 -0.1386
18302W        W34563   8.728   8.096   4.759  0.1763  0.1877 -0.1810
18303W        W34564  10.889  10.567  15.553 -0.0362  0.4481  0.0496
18304W        W34565   3.736   6.286   3.898  0.1224 -0.0764  0.0439
18305W        W34566   9.940  12.113   5.661  0.1103 -0.0396  0.0667
18306W        W34567  11.566   5.893  12.333  0.3226  0.0822  0.2068
18307W        W34568  14.253   0.691  11.600  0.1094  0.0932  0.1866
18308W        W34569  14.490  14.872   2.054  0.2556 -0.2172  0.0329
18309W        W34570   2.845  10.333  12.211  0.0538  0.1863 -0.0364
18310W        W34571   2.087  13.244   4.077 -0.3415  0.4725  0.1767
18311W        W34572   3.638   2.261   4.264 -0.3754  0.0066 -0.1513
18312W        W34573   8.617  11.898   5.784 -0.3005 -0.1662 -0.1316
18313W        W34574   2.931  11.305   2.826 -0.1163 -0.1479  0.3162
18314W        W34575  15.779  15.448  15.798  0.3094 -0.0955 -0.0574
18315W        W34576  16.961  15.461   0.275  0.1135  0.0726  0.3404
18316W        W34577   3.031   7.986   3.979  0.0207  0.4915 -0.2484
18317W        W34578   7.102   3.227  16.442 -0.0862 -0.1118  0.0837
18318W        W34579   0.687  16.841   5.623 -0.0175 -0.0586  0.0213
18319W        W34580  16.791   4.576  13.756  0.5147  0.1301 -0.2026
18320W        W34581  13.108  15.818   3.378 -0.1103 -0.1988 -0.0670
18321W        W34582   6.933  14.902  16.878 -0.2518 -0.1537  0.0270
18322W        W34583   2.718  12.633  12.323 -0.4335 -0.0897  0.0574
18323W        W34584  11.902   2.939   5.073  0.1660  0.1163  0.0328
18324W        W34585  17.786  13.011  16.112 -0.1409  0.1653  0.2025
18325W        W34586  16.939  12.459   0.746 -0.0041  0.1035 -0.0473
18326W        W34587   7.034  10.073  13.363 -0.2888  0.0816  0.1766
18327W        W34588  13.775   6.266   5.860 -0.3433  0.1717 -0.1361
18328W        W34589  13.865   3.932   6.099 -0.2753  0.1098 -0.0935
18329W        W34590   6.626  16.573  14.516 -0.0073  0.2297 -0.0711
18330W        W34591   6.814  15.917   0.065 -0.1427 -0.0120 -0.2000
18331W        W34592   5.940   8.779   5.702 -0.1709  0.0854  0.3307
18332W        W34593   5.856   5.205  11.737  0.2246  0.0807  0.1912
18333W        W34594  16.663  15.968   0.642 -0.0523 -0.0769  0.0354
18334W        W34595  11.881   8.670   4.136 -0.0867  0.2168 -0.3188
18335W        W34596   9.861   0.204   1.642  0.0339  0.1320  0.0433
18336W        W34597   0.734   6.009  15.013  0.0845 -0.0961 -0.2088
18337W        W34598   1.719  15.400   0.790 -0.0178 -0.0760  0.0571
18338W        W34599   2.439   8.198  13.649  0.0388 -0.0348  0.2046
18339W        W34600  16.420   3.532   5.246  0.0161  0.1452 -0.1405
18340W        W34601   2.659   7.645  13.522 -0.2362  0.0273  0.1834
18341W        W34602  16.777  14.160   4.634  0.0820 -0.2026 -0.0357
18342W        W34603  12.778   6.361   0.123  0.2700 -0.1345 -0.2566
18343W        W34604   0.081  10.753   4.986 -0.0840 -0.1836  0.0841
18344W        W34605   5.715   6.069  14.494  0.1402  0.3359  0.1243
18345W        W34606  13.400  16.409  15.721 -0.0463  0.1371  0.1604
18346W        W34607   9.680   3.132   2.463  0.2719  0.3808  0.2409
18347W        W34608   1.234   5.682  12.014 -0.1665 -0.3423  0.0345
18348W        W34609  10.874   7.845   4.580  0.0739 -0.1052 -0.4520
18349W        W34610   6.895   1.900  15.251  0.0899 -0.0044 -0.1395
18350W        W34611   4.796   2.529  11.936 -0.1655  0.1069  0.1409
18351W        W34612   8.623   3.870   0.657 -0.3221 -0.3810  0.2744
18352W        W34613   0.903   4.469   1.722 -0.1935  0.2123 -0.0498
18353W        W34614   6.640   9.355   1.005  0.0111 -0.0015  0.4204
18354W        W34615  14.938   5.584  13.711 -0.1105 -0.1494 -0.4434
18355W        W34616   3.370  14.582   3.072 -0.2103  0.2480  0.2391
18356W        W34617  12.981   0.771  16.238  0.0755 -0.2247 -0.1360
18357W        W34618   2.617   7.376   5.238  0.0611  0.1137  0.2418
18358W        W34619   7.682  15.287  13.495  0.0525 -0.1424 -0.2746
18359W        W34620   7.887   6.870  12.046  0.4012  0.1536 -0.0817
18360W        W34621   4.408  12.423   5.192  0.1842  0.5216 -0.2774
18361W        W34622  16.378   0.043   5.097  0.1065 -0.0628 -0.2494
18362W        W34623  11.638  11.287   2.342 -0.1950 -0.1505 -0.0513
18363W        W34624  12.866   1.154  13.336  0.0874  0.1309  0.0345
18364W        W34625   6.186  13.201  15.283  0.1426  0.1188 -0.0540
18365W        W34626   4.159  11.364  16.734  0.2420 -0.0736  0.0788
18366W        W34627   9.000   8.705  14.440 -0.5263 -0.2041  0.0021
18367W        W34628  12.142   6.413  14.315  0.0958 -0.0460 -0.1196
18368W        W34629  11.913   3.507   5.126  0.1085 -0.2151  0.1692
18369W        W34630   3.291   8.852  16.263  0.3195  0.0259 -0.0652
18370W        W34631  12.102   1.763  12.648 -0.0371  0.0353 -0.1604
18371W        W34632   9.741  17.850   0.477  0.0251  0.1245 -0.0251
18372W        W34633  11.365   3.185  12.240  0.0617 -0.1797 -0.2957
18373W        W34634  13.325   9.881   2.802 -0.1366  0.0029 -0.0142
18374W        W34635  17.710  11.958   3.438 -0.0271  0.2899  0.2258
18375W        W34636  10.092  17.369   5.498  0.1079 -0.1934  0.0419
18376W        W34637  10.452  17.564   4.946  0.1997 -0.0539  0.4783
18377W        W34638   8.711  10.460   4.769  0.1720  0.2655  0.0595
18378W        W34639   6.832   6.073  16.780  0.0061 -0.0486 -0.1138
18379W        W34640   6.695  13.178  13.323 -0.1863 -0.0335  0.1973
18380W        W34641  15.303  13.083  12.473  0.0742  0.0295  0.0749
18381W        W34642   1.192  15.840  12.901 -0.1022 -0.2648 -0.1200
18382W        W34643   0.077   0.717  14.970  0.2635  0.1831  0.2311
18383W        W34644   2.419   2.791   3.577 -0.1529  0.2752 -0.0994
18384W        W34645  17.536   9.108   2.524 -0.0453 -0.1998  0.0635
18385W        W34646   1.740  17.385   3.327  0.0204 -0.1473  0.3134
18386W        W34647  13.913  12.195   2.737 -0.0198  0.1149  0.0271
18387W        W34648  10.906   2.947   1.047  0.0094 -0.2781 -0.1881
18388W        W34649   2.623  12.932   5.306  0.2159  0.0657 -0.0942
18389W        W34650   2.265   5.731   6.093  0.0957  0.1079  0.3025
18390W        W34651   7.472   0.311  16.146  0.0336  0.2442 -0.0545
18391W        W34652   4.991   7.220  13.546 -0.1884 -0.2632  0.0154
18392W        W34653   2.966  13.223   3.279 -0.0170  0.1549 -0.0427
18393W        W34654  11.862  16.417  12.057 -0.2137  0.0878  0.0924
18394W        W34655   8.431   5.708   3.539 -0.0290 -0.0425  0.1601
18395W        W34656   1.257   1.615  14.972 -0.1523 -0.0692 -0.2218
18396W        W34657  13.185   4.888   1.000 -0.2929  0.0759  0.6019
18397W        W34658   1.154  12.057  14.238  0.0236 -0.0159  0.4030
18398W        W34659   7.405   0.539   0.551  0.0973 -0.0389  0.1908
18399W        W34660   3.385  14.311  14.216 -0.3020 -0.3711 -0.3086
18400W        W34661  17.787   7.346  14.126  0.0232 -0.0106  0.1513
18401W        W34662   1.173  16.016  11.633  0.0283  0.0967 -0.0466
18402W        W34663   1.340  10.505  14.045  0.0589 -0.3511  0.0513
18403W        W34664   8.322   8.813   3.841  0.1112 -0.0779  0.0767
18404W        W34665   8.338   1.120   0.024 -0.0393  0.2109 -0.0491
18405W        W34666   4.317  13.431  13.377 -0.1024 -0.2219 -0.2272
18406W        W34667  16.471   4.109   5.565  0.0394 -0.3099  0.1155
18407W        W34668   7.234   0.838  11.640 -0.0717  0.0202 -0.1460
18408W        W34669   1.310   5.841   1.094 -0.0100  0.4296 -0.2559
18409W        W34670  16.641  16.399  12.224  0.0017 -0.0553 -0.0601
18410W        W34671  16.026  15.692  14.485  0.2166  0.2255 -0.1693
18411W        W34672  11.948   9.988  16.924 -0.2095 -0.0651 -0.1514
18412W        W34673   4.759   1.961  16.306 -0.1665  0.2126  0.0851
18413W        W34674  15.956  14.368   3.879  0.1278  0.0890  0.1912
18414W        W34675  15.510   5.167  14.343  0.2201 -0.4657  0.1144
18415W        W34676  13.938   8.345  14.574 -0.0326 -0.0258  0.1971
18416W        W34677  11.902  16.769  16.366 -0.0612  0.1121 -0.2724
18417W        W34678  13.301  15.233  15.636  0.1662  0.0353 -0.1701
18418W        W34679  11.453  16.368   4.989 -0.0007 -0.0694  0.2835
18419W        W34680   3.141   6.927  16.031 -0.1198  0.3882 -0.1103
18420W        W34681   9.297   1.609   3.467  0.2876  0.2037  0.3356
18421W        W34682  14.586   8.170   6.062  0.1171 -0.0265  0.0926
18422W        W34683   0.304   0.656   4.441  0.0372  0.0393  0.3397
18423W        W34684   9.570   4.764  15.007  0.2928 -0.0774 -0.0356
18424W        W34685   0.156   2.686   2.218  0.2478  0.0967  0.0604
18425W        W34686   8.588   9.274   3.021 -0.2267  0.1460  0.2854
18426W        W34687   6.567   0.726   4.250 -0.0556  0.1047  0.1094
18427W        W34688   7.007  13.232   2.648  0.2142  0.2844  0.2359
18428W        W34689  12.995  10.510   6.279 -0.3005 -0.1923 -0.0840
18429W        W34690   6.232  16.691  12.403 -0.2507  0.1339  0.0146
18430W        W34691   7.274   6.601   1.329  0.0192  0.0179  0.1256
18431W        W34692   6.019   6.467   5.217  0.0142 -0.2241 -0.1083
18432W        W34693   6.122   6.900   0.923  0.3401  0.2690  0.3121
18433W        W34694  17.430   4.731   4.025 -0.0676 -0.3227 -0.0933
18434W        W34695  13.756   9.186   1.546  0.0502 -0.0473 -0.3690
18435W        W34696  13.654   6.516  13.824  0.0913  0.2216 -0.1568
18436W        W34697   4.580  12.963  13.296  0.2390  0.0328  0.1483
18437W        W34698  12.544   2.326   0.470  0.2155 -0.0129  0.1763
18438W        W34699   1.027   0.879   4.036  0.1475  0.1918 -0.0656
18439W        W34700   7.928  16.288   2.465  0.1366  0.0947  0.0243
18440W        W34701   2.793  17.346   2.132  0.1076 -0.1596  0.2835
18441W        W34702   1.597  17.751  16.279 -0.0125  0.1832  0.2455
18442W        W34703  17.096  11.334  16.558 -0.3116  0.3062  0.0126
18443W        W34704  16.232   9.417  12.244  0.1859 -0.3470 -0.0690
18444W        W34705   2.716   5.692   6.289 -0.2230  0.3224  0.4023
18445W        W34706   7.918  10.218   0.560  0.1799  0.0433  0.0369
18446W        W34707  11.545   9.742  12.257 -0.2755 -0.0065  0.1017
18447W        W34708   2.823   9.851   4.328 -0.0786 -0.0486 -0.2312
18448W        W34709   8.326  11.750   4.837 -0.2082  0.2208 -0.0725
18449W        W34710  13.244   9.422   5.954  0.1983  0.1639 -0.2063
18450W        W34711   6.264   3.829  16.021  0.0619  0.1160 -0.1812
18451W        W34712   2.347   7.686  15.195 -0.1310 -0.2722 -0.0671
18452W        W34713   0.761   1.638  11.954  0.0018  0.1818 -0.3203
18453W        W34714   0.971   6.594  13.642 -0.2056  0.4933  0.0371
18454W        W34715   6.131  15.556  15.978 -0.0331 -0.0822 -0.2011
18455W        W34716  11.277   0.152   1.987  0.1663  0.1314  0.1104
18456W        W34717   5.097  11.166   2.580 -0.0505  0.0766  0.0068
18457W        W34718   8.924  14.121   3.752 -0.0609 -0.0404  0.0039
18458W        W34719   0.117   6.138  12.826 -0.1505 -0.1691  0.2097
18459W        W34720  12.734  12.425   4.344 -0.2764  0.1202 -0.0533
18460W        W34721  13.265   7.386   0.726 -0.1268 -0.3273  0.0615
18461W        W34722  15.823  13.588   4.420  0.1722 -0.1631 -0.2015
18462W        W34723  17.163   9.549  14.878 -0.1202 -0.2766 -0.0175
18463W        W34724   3.481   6.831   1.064 -0.2292  0.2771 -0.2674
18464W        W34725  12.121  15.704  13.859 -0.2058 -0.0564  0.1198
18465W        W34726   1.318  12.292   1.759  0.3088  0.2050  0.1320
18466W        W34727   3.630   4.816   4.483 -0.4703  0.1325  0.2343
18467W        W34728   3.945   9.926  16.667 -0.2623  0.1513 -0.0306
18468W        W34729   0.552  13.035  14.499  0.2777 -0.0791  0.0844
18469W        W34730   2.885   1.780   2.438 -0.0756  0.4245  0.2163
18470W        W34731  11.671   2.163   1.557 -0.1368 -0.3037  0.0370
18471W        W34732   5.741   8.491  13.015 -0.3360 -0.0658 -0.0536
18472W        W34733  10.882  16.227   4.362  0.0728  0.1777  0.0744
18473W        W34734  15.364   4.030   0.090  0.0599  0.0049  0.0910
18474W        W34735  10.498   7.521   3.059  0.1884  0.0109  0.0706
18475W        W34736   1.053  13.388  12.398  0.1549 -0.0507 -0.1538
18476W        W34737   7.161   2.908  15.943  0.1210  0.1006  0.4223
18477W        W34738  17.079  16.175   2.538  0.0397  0.3295  0.0406
18478W        W34739  14.156   4.900   4.885  0.0681  0.0451  0.2248
18479W        W34740  15.317   5.880  14.488  0.2851 -0.1218  0.0481
18480W        W34741   2.407   7.698  16.871  0.4572 -0.0544  0.0711
18481W        W34742  10.888   2.206  13.939 -0.1039  0.0328  0.1214
18482W        W34743  17.077   0.834  11.240  0.2533 -0.1422 -0.1804
18483W        W34744  11.267  12.921  10.866  0.0773 -0.1181 -0.0810
18484W        W34745   4.871   8.172  13.320  0.1057 -0.0801  0.0255
18485W        W34746   8.172  16.645  15.977  0.0612 -0.0176 -0.2068
18486W        W34747  11.837  16.440   0.917  0.3573  0.0167 -0.2272
18487W        W34748   4.567  17.732  15.071  0.0021  0.1333 -0.0778
18488W        W34749   9.232   1.322  12.752  0.1681  0.0783  0.2947
18489W        W34750   2.791   3.187   3.584 -0.0092  0.0441  0.1204
18490W        W34751  16.980   0.493   2.292 -0.0563  0.1247  0.2224
18491W        W34752   0.941   5.270  12.166 -0.0616  0.1563 -0.0101
18492W        W34753  11.611  16.480   4.496  0.1581 -0.0036  0.0125
18493W        W34754   3.701  14.128   3.964  0.0024 -0.1015 -0.0004
18494W        W34755   5.752   0.120   0.526  0.2304  0.0692 -0.1106
18495W        W34756   6.253  13.333  12.605  0.1011  0.1212  0.1206
18496W        W34757   5.946  16.054  12.846 -0.1074 -0.1671 -0.1087
18497W        W34758  10.853  11.862  11.392  0.1060 -0.0080  0.0506
18498W        W34759   5.680  17.122   1.397 -0.0210 -0.1103  0.0972
18499W        W34760   8.468  16.027  15.153  0.3753  0.0745 -0.0412
18500W        W34761  15.611   3.711   5.613 -0.5569  0.0802 -0.1980
18501W        W34762   5.450  13.338   5.964  0.0279  0.0341 -0.1314
18502W        W34763  17.574   0.495   3.248 -0.0696 -0.0089 -0.2220
18503W        W34764   7.657  16.084   1.988 -0.1160  0.0992  0.0039
18504W        W34765   5.163  10.612   0.155  0.0043 -0.0345  0.0858
18505W        W34766   0.260  13.840  16.018  0.0984 -0.5665  0.1391
18506W        W34767   6.943  16.836  15.081 -0.3660 -0.1373 -0.0395
18507W        W34768   1.203   8.642  14.200  0.1218  0.0715  0.1427
18508W        W34769   5.588   5.444   5.906 -0.1219  0.0310 -0.1329
18509W        W34770   5.656  12.173   5.394  0.0519 -0.1422  0.0321
18510W        W34771   8.442   3.007  16.491 -0.0725  0.0069  0.4454
18511W        W34772   4.575   3.249  16.464  0.0895 -0.0508  0.0029
18512W        W34773   0.963   9.605   2.899  0.0557 -0.0206  0.0889
18513W        W34774  15.721  11.570   1.447 -0.2685  0.2747 -0.1070
18514W        W34775   0.322   4.011  15.810  0.2794 -0.2275 -0.1600
18515W        W34776   6.717   9.085  14.749  0.0992  0.0174 -0.1102
18516W        W34777   6.062  10.371  16.424  0.0634  0.2331 -0.0656
18517W        W34778  14.227  11.201  16.109  0.0899  0.0559  0.0025
18518W        W34779   0.454  11.949   5.778  0.0653 -0.0919 -0.1574
18519W        W34780   0.649   9.350   6.019 -0.0649  0.3018 -0.2369
18520W        W34781  17.648   0.808  16.333 -0.2057  0.1500 -0.0747
18521W        W34782  16.714  14.026   0.393  0.0745 -0.1353  0.0523
18522W        W34783  10.723   0.579   2.790  0.1330 -0.0203  0.1565
18523W        W34784   7.482  10.477  15.114  0.0057  0.2254  0.0847
18524W        W34785  17.104   7.036   3.135 -0.1097 -0.0012  0.0790
18525W        W34786  13.492  15.746  13.948  0.1859  0.0852  0.2163
18526W        W34787  10.727  14.345  13.948 -0.1305 -0.2595  0.0494
18527W        W34788  14.160  10.996  12.565  0.2829  0.1225  0.1248
18528W        W34789   5.694  17.001  15.558 -0.0947 -0.1923 -0.0554
18529W        W34790   0.315  11.008   1.078  0.2051  0.4443  0.0679
18530W        W34791  11.784   4.982  11.904 -0.0116 -0.0023 -0.2889
18531W        W34792  10.238   7.130  15.474  0.0140 -0.1710  0.0607
18532W        W34793   5.304  13.256   1.146  0.1176  0.0288 -0.0074
18533W        W34794   0.994   6.774  16.731 -0.2441 -0.1013 -0.1019
18534W        W34795  16.704   5.360  13.317  0.0431 -0.2494 -0.4051
18535W        W34796  15.230   0.869   1.262 -0.0700 -0.4592  0.0015
18536W        W34797   5.745  11.644  12.390  0.3153 -0.0582 -0.2446
18537W        W34798  14.596  17.816   1.861  0.4430  0.0437 -0.0406
18538W        W34799   7.705  13.245  16.423  0.0856  0.1882  0.1343
18539W        W34800  17.719   0.271  12.235  0.1180  0.2094  0.2874
18540W        W34801  10.532   9.230   1.107  0.1275 -0.2155 -0.1330
18541W        W34802   1.899   0.362   2.139 -0.0266  0.1010 -0.0480
18542W        W34803   4.645  14.155  16.427  0.1659  0.0416 -0.1195
18543W        W34804  11.768   8.529  14.149  0.3470  0.0922 -0.0536
18544W        W34805   3.479   4.201  15.883  0.0296  0.0744  0.2257
18545W        W34806   7.754   2.826   4.590  0.0963  0.0804 -0.0010
18546W        W34807   1.717   2.201  14.022  0.0731 -0.0949  0.0415
18547W        W34808  16.537   2.231   1.530  0.2335 -0.2572  0.2169
18548W        W34809  17.476   3.643  13.118 -0.0389  0.1427  0.0744
18549W        W34810   3.538   2.060   0.719  0.1169 -0.1827 -0.0315
18550W        W34811  12.551   5.661  15.852  0.2049 -0.0935  0.2765
18551W        W34812  14.126  11.264  13.921 -0.1289 -0.1233  0.0111
18552W        W34813  13.687  13.643  12.075 -0.1454 -0.0422 -0.1622
18553W        W34814  17.561  14.704  12.043  0.2824  0.0050  0.0481
18554W        W34815  10.820  14.512   3.181 -0.1240 -0.2472  0.3736
18555W        W34816   2.567  10.355  14.774 -0.0726  0.2442 -0.1305
18556W        W34817  14.177  16.972  15.418  0.2235 -0.0271  0.4176
18557W        W34818   2.030   3.506  16.519 -0.2717 -0.2184 -0.0417
18558W        W34819   2.181   8.608   2.188 -0.6223 -0.1878  0.0658
18559W        W34820   9.945   4.114   2.865 -0.0228 -0.3043 -0.2434
18560W        W34821   3.842   5.713   3.655 -0.1823 -0.2996 -0.2068
18561W        W34822   0.234   7.362  13.364 -0.3283 -0.0087  0.2582
18562W        W34823   2.612   5.299  12.768  0.2084 -0.0567 -0.0996
18563W        W34824  11.020   0.715   5.351 -0.2275  0.1575 -0.2561
18564W        W34825   5.824  17.630   4.428  0.2772  0.1050 -0.1321
18565W        W34826   2.848  16.676   1.677  0.2395  0.2279 -0.1089
18566W        W34827  12.703  11.666  12.686 -0.1158  0.0415 -0.3194
18567W        W34828   7.869   8.956   4.038  0.1141  0.2763 -0.1075
18568W        W34829   4.773  13.909   5.590 -0.2246 -0.2324 -0.0143
18569W        W34830   9.406  14.566   4.921  0.4250 -0.0010 -0.0374
18570W        W34831   5.708  10.049  12.685 -0.0146 -0.1031 -0.0657
18571W        W34832   4.863  15.325  13.838  0.0196  0.0319  0.1031
18572W        W34833  10.480   9.736   2.810  0.0948 -0.0862 -0.0715
18573W        W34834  16.661  12.152   0.419  0.0351 -0.0224  0.0444
18574W        W34835  17.367   5.842   5.222  0.2772 -0.2075 -0.3686
18575W        W34836   1.092   2.274  12.404 -0.1088 -0.0200  0.0150
18576W        W34837   8.701   7.874  13.751 -0.1758  0.1862 -0.3444
18577W        W34838  12.723   0.330  13.623 -0.1219 -0.0760  0.1784
18578W        W34839   6.861  16.747   4.501  0.1105  0.0431  0.0539
18579W        W34840   5.091   5.524   5.852 -0.1499  0.0461 -0.0881
18580W        W34841   3.010   9.868   1.027  0.1697 -0.3214 -0.1678
18581W        W34842  17.726   4.163   1.377  0.4420 -0.0334 -0.3436
18582W        W34843   6.861  14.307   3.094 -0.2935 -0.0262  0.3540
18583W        W34844  16.867  10.039   5.318  0.3712  0.2934 -0.1282
18584W        W34845   6.729   1.360  15.222  0.0037  0.1445  0.0044
18585W        W34846  14.767  10.630   5.268 -0.2970 -0.2130  0.1812
18586W        W34847  14.455  13.841   1.847  0.0182 -0.1844  0.0450
18587W        W34848   5.854   7.464  15.688  0.2949 -0.0701  0.3028
18588W        W34849  16.133   4.504   5.409  0.1032 -0.0839  0.2187
18589W        W34850   9.149   5.390   0.065  0.0986 -0.0441  0.1313
18590W        W34851   6.113  13.064  16.101  0.0603  0.0434 -0.1755
18591W        W34852   4.754   2.773   1.083  0.1055  0.1228 -0.1516
18592W        W34853   2.070  14.493  15.888 -0.0002 -0.1997  0.2079
18593W        W34854  12.594  16.154  14.353  0.3763  0.1468 -0.3222
18594W        W34855   2.102  15.329   4.840 -0.0867 -0.1808 -0.0473
18595W        W34856   2.328   4.003  13.096  0.1942 -0.3770 -0.3185
18596W        W34857   6.970  12.002  13.415  0.0911 -0.5943 -0.0426
18597W        W34858   1.223  13.672   0.594  0.0509  0.2424 -0.0413
18598W        W34859   2.569   2.722  12.225  0.3399 -0.1576  0.1641
18599W        W34860  10.063   0.518   3.342  0.3606  0.0061 -0.0995
18600W        W34861   2.958  15.219   0.708 -0.1131  0.0376 -0.0168
18601W        W34862  16.631  11.493   1.609 -0.0213  0.2478 -0.1393
18602W        W34863   1.050   1.860   2.001 -0.5445  0.0483  0.0877
18603W        W34864  11.737   1.988  13.763 -0.0342 -0.1158  0.0020
18604W        W34865   6.061  15.343  13.364 -0.1678 -0.1290  0.1498
18605W        W34866   4.615  11.141   5.131  0.2808 -0.2941  0.2404
18606W        W34867   5.665  15.498  15.958  0.0712 -0.1631 -0.0793
18607W        W34868  13.950  13.073   3.142 -0.3459  0.2715  0.0735
18608W        W34869  11.501   9.274  16.329  0.1834 -0.0215  0.0272
18609W        W34870   4.105  16.011   4.452 -0.0941 -0.3082  0.3451
18610W        W34871  17.040  17.514  16.056 -0.1917  0.1129  0.1470
18611W        W34872  12.914   0.615   4.490 -0.1552  0.2196  0.2622
18612W        W34873   5.921  16.153  11.652  0.1730  0.2153  0.2524
18613W        W34874  15.326  14.307   3.299  0.2033  0.1789 -0.0908
18614W        W34875   0.142  10.825  14.274 -0.0346 -0.0188  0.0577
18615W        W34876  14.456   1.854  13.369  0.0671  0.0010  0.0420
18616W        W34877  14.372  16.584  15.741 -0.0810 -0.0171 -0.2543
18617W        W34878  11.485  13.735  12.002 -0.0870 -0.3507 -0.1994
18618W        W34879  10.408  16.217   4.371  0.2577 -0.2178  0.2377
18619W        W34880   4.826   3.954   5.279 -0.2084  0.0151  0.1463
18620W        W34881  11.010   3.706   1.444  0.1519  0.0244  0.1703
18621W        W34882  16.663   4.827  13.349 -0.0152 -0.1580 -0.0420
18622W        W34883  15.751   6.814  13.166  0.1292 -0.1292  0.0828
18623W        W34884   5.862   4.574  15.043  0.0312 -0.0577 -0.0446
18624W        W34885  13.374   3.681   3.400 -0.2759 -0.0422 -0.0366
18625W        W34886   8.458   9.467   5.624  0.0196 -0.3141 -0.1268
18626W        W34887   4.214   2.816   3.090  0.0047 -0.1019  0.4607
18627W        W34888   5.351   4.340   3.836  0.4260 -0.0191 -0.2964
18628W        W34889   5.643  14.501   5.606  0.1217  0.2140  0.1361
18629W        W34890  14.749   4.493   3.798 -0.4272 -0.1002  0.0420
18630W        W34891   1.544   6.814   4.169  0.1699  0.0545  0.1460
18631W        W34892  15.182  16.015  14.191 -0.0822 -0.2147  0.1752
18632W        W34893  12.850   6.263  13.596  0.0325 -0.1229 -0.0247
18633W        W34894  14.875  12.438   1.191  0.1421  0.1658 -0.2279
18634W        W34895   6.501  10.589   5.506  0.0413  0.0069  0.0494
18635W        W34896  14.497   7.145  13.741  0.3874 -0.2798  0.0630
18636W        W34897  16.394  11.520   2.219 -0.1364 -0.1175 -0.1307
18637W        W34898  16.072   3.394  16.369 -0.1046  0.2828 -0.0197
18638W        W34899  12.430  15.225   0.857  0.2258  0.1312 -0.1315
18639W        W34900  12.271   1.737  16.227 -0.2305 -0.1482 -0.0525
18640W        W34901   1.238  10.883   4.678  0.0347  0.1383 -0.1304
18641W        W34902   3.980   0.866   2.024  0.0530 -0.3073 -0.1849
18642W        W34903   4.960   6.306  13.073 -0.3965  0.2965  0.0275
18643W        W34904   9.624  14.347   5.836  0.2390  0.0596 -0.1487
18644W        W34905  14.290   8.229  14.240 -0.2114  0.2659 -0.0213
18645W        W34906  12.413   8.100   1.442  0.0804 -0.1575 -0.0356
18646W        W34907   1.135  16.562  16.629 -0.0612  0.1225  0.1748
18647W        W34908  13.698  13.599   3.847 -0.3537  0.1310  0.3634
18648W        W34909  13.618   6.180  11.517  0.1434 -0.1159 -0.0952
18649W        W34910  16.752  17.077   2.300 -0.3188  0.2294 -0.1874
18650W        W34911   7.238  16.346   5.023 -0.0535  0.3370 -0.1562
18651W        W34912   2.936  12.847  15.141  0.0110 -0.0381 -0.1962
18652W        W34913  15.395  14.458   5.133  0.1076  0.3016 -0.3249
18653W        W34914   0.958   1.779  13.131 -0.0964  0.2628 -0.2104
18654W        W34915  16.397  13.669   2.706 -0.0068  0.0486  0.3492
18655W        W34916   1.479   8.882   2.636 -0.0087  0.2112 -0.0174
18656W        W34917  10.429  16.668  16.344 -0.1034  0.2793 -0.0801
18657W        W34918   3.834   8.521   2.327  0.3202 -0.0214 -0.0987
18658W        W34919  17.339   1.314   1.979  0.2434 -0.1977  0.0694
18659W        W34920   7.310   3.027   1.253  0.0930  0.2434  0.1546
18660W        W34921  10.369   3.769   0.513 -0.3432 -0.1449 -0.0386
18661W        W34922   7.301   6.887  14.926 -0.0808  0.0137 -0.1041
18662W        W34923   4.998   3.759  14.128  0.3193  0.1056  0.2575
18663W        W34924   9.582  13.901   4.237  0.1782 -0.0226  0.2502
18664W        W34925  15.805   7.308  13.038  0.0518  0.2222 -0.1121
18665W        W34926   1.027  12.050  11.913  0.0937  0.0241  0.2117
18666W        W34927   7.215   7.050   3.948  0.0106 -0.2595  0.1229
18667W        W34928   5.828   6.870   1.735 -0.1394 -0.0115 -0.0418
18668W        W34929   9.821   5.128   3.005  0.3358  0.0599  0.1324
18669W        W34930  13.657  15.716   3.185  0.0948 -0.1091 -0.1269
18670W        W34931   3.587  16.820  15.512 -0.0166  0.0717  0.1746
18671W        W34932   0.987  16.811  13.886  0.4413  0.0930 -0.0345
18672W        W34933   1.771   9.675   3.506 -0.1719 -0.0482  0.2551
18673W        W34934  12.243   4.439  12.502  0.1043 -0.2317 -0.0581
18674W        W34935   1.553   8.186  15.144 -0.3425 -0.2316  0.0580
18675W        W34936   8.080   9.354   2.252 -0.2752  0.1353  0.2261
18676W        W34937   5.824   4.425   2.945 -0.0081  0.1042 -0.0531
18677W        W34938   2.986  14.503  11.771  0.0801 -0.2742 -0.0703
18678W        W34939  15.989   1.350   2.878 -0.0487 -0.0756 -0.2638
18679W        W34940  12.669  17.664   4.585 -0.0525 -0.0820  0.1897
18680W        W34941   0.307   1.208  15.771 -0.1128 -0.0308  0.2841
18681W        W34942  14.027   3.938  13.883  0.1260 -0.1441  0.2096
18682W        W34943   6.220   7.577  16.947 -0.1177 -0.2341  0.1225
18683W        W34944   3.914   5.116  13.905  0.2012 -0.2883  0.3583
18684W        W34945  11.570  15.763  16.204  0.2267  0.0830 -0.2429
18685W        W34946   6.394   9.939   4.933 -0.1524 -0.1373 -0.1481
18686W        W34947   2.602  16.334  12.402 -0.5229 -0.0414 -0.3467
18687W        W34948  10.435  15.279   0.819 -0.2378  0.2477 -0.1434
18688W        W34949   6.463   0.678   3.254 -0.0554 -0.0424 -0.1156
18689W        W34950  16.394   1.910   5.831  0.2957  0.2510  0.0390
18690W        W34951  16.090  13.867   6.301 -0.0503 -0.0867  0.0621
18691W        W34952   2.588  17.342  10.638  0.2040  0.1241 -0.0614
18692W        W34953  12.975  13.659  14.835 -0.0397  0.1675  0.0592
18693W        W34954  16.915   0.007   4.377  0.1239  0.0587  0.3983
18694W        W34955   6.242  11.240   1.909 -0.0918  0.0423  0.0894
18695W        W34956  15.033  12.325  16.008  0.0255  0.2905 -0.0122
18696W        W34957  14.676  14.202  16.279 -0.1687 -0.0809 -0.0627
18697W        W34958   4.644   8.384   5.665  0.0068  0.2496 -0.1413
18698W        W34959  17.476  10.591  11.986  0.2100 -0.0348 -0.0719
18699W        W34960   8.460  16.242   0.413  0.2044  0.2528  0.0887
18700W        W34961   3.398   3.234   2.752 -0.0031  0.2931 -0.2580
18701W        W34962   3.119  14.834  12.837 -0.0675 -0.1288 -0.1033
18702W        W34963  11.322   3.593   1.789  0.0065 -0.3241 -0.2969
18703W        W34964   0.891   1.792   1.284 -0.4955  0.0534  0.0233
18704W        W34965   1.760   4.355  13.831 -0.1867 -0.0980 -0.0294
18705W        W34966  11.667   1.277   3.785 -0.2971 -0.3951 -0.0507
18706W        W34967   1.349   3.973   4.478  0.1266  0.5506  0.0603
18707W        W34968   4.371   7.482   0.878  0.0755  0.1279  0.0448
18708W        W34969   7.785   5.714  11.578 -0.0052  0.3529  0.1774
18709W        W34970  10.356  16.465  12.116 -0.0719  0.4185 -0.0165
18710W        W34971   8.295  17.011  14.988 -0.3317 -0.1197 -0.0118
18711W        W34972  16.657   6.139  15.139 -0.1450 -0.0413  0.0479
18712W        W34973   6.802   0.359   4.949 -0.0105 -0.0850 -0.0736
18713W        W34974   3.712   0.660  13.793  0.1528 -0.1953 -0.1142
18714W        W34975   3.946  16.868   5.960 -0.1051  0.2579 -0.0783
18715W        W34976   7.649  15.445   5.793  0.1493  0.0123  0.0738
18716W        W34977  11.839  13.412  14.104 -0.0836 -0.0042 -0.0916
18717W        W34978   4.913   1.070  15.078 -0.0374  0.0270 -0.2497
18718W        W34979   4.070  11.465   1.647  0.0844  0.1436 -0.1131
18719W        W34980  11.483  11.705  16.649 -0.0148 -0.1837  0.0338
18720W        W34981   4.902   5.399   0.654 -0.0483  0.0546  0.2335
18721W        W34982   1.268   2.335   4.176  0.1688 -0.0813  0.0562
18722W        W34983   0.292   7.269   4.392 -0.0252 -0.0124 -0.0049
18723W        W34984   0.349  14.443  12.207  0.1126  0.1798 -0.1905
18724W        W34985   4.364   1.654  16.324  0.1753  0.0701 -0.1446
18725W        W34986  14.982  11.146  13.039  0.1890  0.3198 -0.1564
18726W        W34987   0.125   9.271   6.051 -0.0963  0.1435 -0.0168
18727W        W34988   0.153   5.147  15.775 -0.0333 -0.0154  0.0426
18728W        W34989  15.356   6.161   3.664 -0.1533 -0.0912 -0.1224
18729W        W34990  16.322   6.436   4.317  0.2028 -0.1063 -0.1092
18730W        W34991   8.723   4.254   5.422  0.1474 -0.0026 -0.0912
18731W        W34992   9.336   8.050   4.148  0.1949  0.4558  0.0755
18732W        W34993   6.732  17.130  14.760  0.0356  0.1225  0.2861
18733W        W34994  16.202   6.703  12.917 -0.1170 -0.0034 -0.0600
18734W        W34995   6.584   1.439   5.413  0.0921  0.1895  0.1064
18735W        W34996   6.379   6.226   0.252 -0.0590  0.2827 -0.0158
18736W        W34997   8.387   6.724  14.860 -0.1763 -0.1576  0.1978
18737W        W34998   9.566   4.574   0.075  0.1993 -0.2991  0.3479
18738W        W34999   7.139  17.223  16.775 -0.3372 -0.1589  0.0565
18739W        W35000  14.328   4.364  11.940 -0.0868  0.2707 -0.1112
18740W        W35001  15.284  12.423  14.488 -0.1290 -0.1933  0.0455
18741W        W35002   0.038   5.720   1.358  0.1027  0.1011  0.1184
18742W        W35003   8.069  17.460   0.968  0.3535  0.2207  0.1997
18743W        W35004   6.276  15.946  13.951  0.0130  0.1400  0.0272
18744W        W35005   9.806   3.804   2.357  0.2325 -0.1373 -0.1959
18745W        W35006  11.857  10.515  15.327 -0.2070 -0.1264 -0.1657
18746W        W35007   8.085   7.450   5.150 -0.1230  0.0391  0.0095
18747W        W35008  12.172  13.973  14.764  0.1747  0.1491  0.2489
18748W        W35009   1.210  13.160   0.174 -0.3026 -0.3220 -0.0160
18749W        W35010   5.520  13.024   0.754 -0.3873  0.0283 -0.2807
18750W        W35011   1.243  14.714  13.781 -0.0541  0.0843 -0.0088
18751W        W35012  11.071  16.765  15.952  0.1030  0.2639 -0.0887
18752W        W35013   8.992  15.049   6.119 -0.0771 -0.0277  0.0283
18753W        W35014   5.364   6.306   6.465 -0.0365 -0.1034  0.3419
18754W        W35015  10.584   8.926  11.316  0.5040  0.0191  0.2736
18755W        W35016  10.619  15.630   6.402 -0.0716  0.1537  0.1871
18756W        W35017   9.119  14.312  15.820 -0.3563 -0.1717 -0.1110
18757W        W35018  17.399   8.039  16.520  0.3999 -0.0514 -0.0110
18758W        W35019  13.918  13.876   2.713  0.2354  0.4183 -0.3571
18759W        W35020   1.970  10.231  14.420  0.0505 -0.2440 -0.0687
18760W        W35021   2.269  14.289   2.149 -0.0979  0.0094  0.2904
18761W        W35022  10.728   2.898  14.656  0.2881 -0.1813  0.0207
18762W        W35023  13.588  16.919   0.782  0.4698  0.3268 -0.0671
18763W        W35024   7.034   2.328   0.020  0.0505 -0.1800  0.2499
18764W        W35025   8.383  13.701   6.448 -0.1391 -0.0208  0.3007
18765W        W35026  11.524   9.299   5.763 -0.0022  0.0412 -0.0203
18766W        W35027   3.492   0.738  15.790 -0.1109  0.0092  0.0690
18767W        W35028   0.761   5.034  14.253 -0.1844 -0.1731 -0.0293
18768W        W35029   5.166   5.807   1.221  0.0023  0.0789 -0.0442
18769W        W35030   2.111   0.200   4.873 -0.1594  0.0034 -0.2570
18770W        W35031   7.159  17.289   4.814  0.1085  0.2482  0.3315
18771W        W35032  13.658  15.964   1.637 -0.1129 -0.2247  0.0851
18772W        W35033   6.787  15.976  16.517 -0.0642  0.2219  0.0945
18773W        W35034   8.983   7.391   5.545 -0.1006 -0.0416 -0.0613
18774W        W35035   4.380   6.358  16.145  0.1677  0.1040 -0.1112
18775W        W35036  15.262   2.693  15.450  0.0605 -0.1453 -0.0438
18776W        W35037  12.526  10.727  11.517 -0.2704 -0.0991  0.1610
18777W        W35038   5.681   0.307  12.980 -0.1842  0.3420  0.0608
18778W        W35039   4.434   1.631  13.701 -0.3197 -0.2467  0.0280
18779W        W35040   8.642   0.736  12.736 -0.1090  0.2254 -0.0381
18780W        W35041   5.989  11.724   1.014 -0.1820  0.0460 -0.4605
18781W        W35042  11.230   4.990  14.288 -0.1022  0.1398 -0.2382
18782W        W35043   5.220   8.386  16.488  0.1935  0.1679  0.1305
18783W        W35044  16.477   9.363   2.352 -0.1302  0.3639  0.0215
18784W        W35045   5.856  11.619   4.678  0.3614 -0.1722 -0.0563
18785W        W35046   0.325   2.970  12.200  0.2488  0.2674 -0.0576
18786W        W35047   2.939   9.075  12.878  0.3203 -0.2250  0.0174
18787W        W35048   1.040  16.561   5.819  0.2112  0.0260  0.2466
18788W        W35049  17.535   0.013   3.529  0.3086 -0.1082 -0.0847
18789W        W35050   2.259   8.483   0.493 -0.1383 -0.0498  0.0649
18790W        W35051   5.155  14.630   1.856  0.1317  0.2913 -0.1737
18791W        W35052  16.137   0.846   2.170  0.4094 -0.0109  0.0553
18792W        W35053  17.254   8.160   4.991  0.5573  0.0748  0.2988
18793W        W35054   8.610  16.798   5.020 -0.0135  0.0898 -0.0581
18794W        W35055  10.204   2.529   2.391 -0.2665 -0.1070 -0.1443
18795W        W35056  12.281   6.258   0.915 -0.1909 -0.3176 -0.1990
18796W        W35057   0.096   7.871   2.063 -0.0632  0.1556  0.1359
18797W        W35058   2.395  11.404   5.234 -0.1326  0.4128 -0.2529
18798W        W35059  10.027  11.213  13.935  0.1956  0.1016  0.0297
18799W        W35060  11.581   8.028   3.012  0.0566 -0.0068 -0.1242
18800W        W35061   6.090  11.494  13.718  0.4632 -0.0413 -0.0361
18801W        W35062   7.242  17.105   2.862  0.2771 -0.0542 -0.0080
18802W        W35063   1.849   9.027   3.068 -0.0003  0.0336 -0.0800
18803W        W35064  17.390   6.817  15.020 -0.1367 -0.2156 -0.0201
18804W        W35065  12.287   7.696  11.086  0.1740  0.3281  0.4025
18805W        W35066   9.675   2.452  11.858  0.0593  0.0145 -0.0864
18806W        W35067   4.047  12.808   5.069  0.0493 -0.0118  0.0545
18807W        W35068   2.354  16.327  14.155 -0.1480 -0.4312  0.0086
18808W        W35069  15.916  11.470  11.992 -0.2565 -0.1946  0.1459
18809W        W35070  15.100   8.334  11.869 -0.0967  0.1503 -0.0618
18810W        W35071  17.283  12.004  12.494 -0.2296  0.1342 -0.0151
18811W        W35072  14.091  15.127   6.449  0.0166 -0.1359  0.1185
18812W        W35073   1.578   8.672  13.482  0.1721 -0.1238 -0.0445
18813W        W35074   6.703  14.076  14.358  0.1982  0.1294  0.0126
18814W        W35075   2.878  14.106   0.444 -0.1458 -0.1215 -0.1229
18815W        W35076   6.281  12.948  13.572 -0.2129  0.2205 -0.3810
18816W        W35077   3.022   6.920   2.052 -0.0170  0.0540 -0.0003
18817W        W35078  16.436  15.631  11.462 -0.2442 -0.2529 -0.0467
18818W        W35079   9.011   5.336   4.615  0.4006 -0.0393 -0.1566
18819W        W35080   9.766  10.881   0.301 -0.3691  0.2329 -0.1974
18820W        W35081  14.280  12.058   0.851 -0.0936  0.0182  0.2068
18821W        W35082  15.759  17.637   0.427  0.1779 -0.1219  0.3033
18822W        W35083   5.458   0.290   2.477  0.0172 -0.0403 -0.2552
18823W        W35084   9.725   6.292  12.174 -0.0917  0.2230 -0.0897
18824W        W35085  14.155   4.245   0.961 -0.0388  0.3757  0.2731
18825W        W35086  14.880  16.276  11.982 -0.0649  0.1250  0.1614
18826W        W35087   7.896  13.261   3.318  0.2123  0.0481  0.0942
18827W        W35088   0.221   1.562  16.210  0.5587  0.0377  0.0114
18828W        W35089   1.387   0.580  16.122 -0.1869 -0.0507 -0.1284
18829W        W35090   7.836   0.923   0.243 -0.3022 -0.1606 -0.2718
18830W        W35091  14.540   1.551  15.345  0.0739  0.3793  0.0930
18831W        W35092  15.015  10.775   3.276 -0.1193  0.0193  0.0189
18832W        W35093   7.712   0.209  14.793  0.0154  0.0838 -0.1399
18833W        W35094   5.186   4.555  13.303  0.1565  0.1326 -0.2172
18834W        W35095   0.481   9.893   0.887  0.0334  0.0611 -0.2734
18835W        W35096   8.768  16.010   1.288 -0.2023 -0.1855  0.1093
18836W        W35097   6.985   2.101   5.855  0.1487 -0.0901  0.1016
18837W        W35098   2.812   2.616   5.586 -0.4158  0.1120  0.1452
18838W        W35099  13.881   2.739   1.871  0.0113 -0.1391 -0.1825
18839W        W35100   3.081   7.974  11.889 -0.3179  0.2414  0.0156
18840W        W35101   2.571   1.355   2.300 -0.0915 -0.0029 -0.1664
18841W        W35102  15.343  17.660   3.884 -0.0537  0.0704  0.0178
18842W        W35103  14.766   6.767  13.596  0.1859  0.0087 -0.1046
18843W        W35104   8.209  12.448   0.341 -0.0569  0.1063 -0.1741
18844W        W35105  15.420  10.346   3.003  0.4311 -0.0652 -0.0417
18845W        W35106   8.971   0.123  13.586  0.2832  0.2282  0.2406
18846W        W35107   4.161  14.786  14.870 -0.0685  0.2926 -0.4934
18847W        W35108   3.235  14.354  16.826 -0.3285  0.2837  0.1199
18848W        W35109   3.005  13.799  12.932  0.0687 -0.2178  0.2847
18849W        W35110  17.430  10.976  14.660 -0.5189 -0.1137 -0.1597
18850W        W35111  11.707  10.271   4.432  0.0433  0.0314 -0.5927
18851W        W35112  13.490  15.589   0.691 -0.4242  0.1047  0.3041
18852W        W35113   3.202   1.249  14.989 -0.2794 -0.0575  0.3407
18853W        W35114   5.265   1.656   0.528  0.0449  0.1550 -0.1075
18854W        W35115  14.943   1.117   4.255 -0.2801 -0.1201  0.1824
18855W        W35116  13.408   9.029   3.939 -0.1787  0.1831  0.1094
18856W        W35117   6.445   6.035  16.473 -0.2049  0.0275 -0.3501
18857W        W35118   9.743   5.369   0.494 -0.0365  0.0611  0.1924
18858W        W35119  15.434   8.326  16.751 -0.0969  0.0958 -0.0670
18859W        W35120  17.019  15.977   1.044  0.1035 -0.3053  0.1331
18860W        W35121   4.454   7.237  16.682  0.4105  0.1684 -0.0269
18861W        W35122   8.486  13.119  14.714  0.4941 -0.1965 -0.5357
18862W        W35123   8.956   9.709   4.235  0.1489 -0.1649 -0.1554
18863W        W35124  10.415   1.070  15.018 -0.0957 -0.0946 -0.1846
18864W        W35125   8.429   0.077   2.993 -0.2078 -0.1204  0.0552
18865W        W35126  15.551   7.503   4.930  0.1073 -0.0683 -0.0415
18866W        W35127  15.945   5.680   4.152  0.1604 -0.0155  0.0240
18867W        W35128  12.280   1.267   3.441 -0.2342 -0.2110 -0.0557
18868W        W35129   9.162  12.970   3.665  0.3657  0.3053  0.2461
18869W        W35130   8.215  15.410  13.188 -0.0531 -0.0139 -0.0835
18870W        W35131  11.503  15.040   5.758  0.0099  0.0439 -0.1106
18871W        W35132   8.621  15.632  14.007 -0.0403  0.0821 -0.2951
18872W        W35133   6.160  13.519   0.501 -0.2239 -0.1325 -0.1064
18873W        W35134  11.170  14.195  16.570  0.2072 -0.0856 -0.0106
18874W        W35135   0.257  11.251  13.999 -0.2462  0.0015 -0.4517
18875W        W35136  15.297  13.885   3.579 -0.0298 -0.2097 -0.3110
18876W        W35137   7.461   9.688  11.766 -0.1744  0.2667 -0.0616
18877W        W35138   8.520   1.347   1.701 -0.2507  0.0072 -0.1629
18878W        W35139  10.567   2.529   0.870 -0.2821  0.0579  0.3384
18879W        W35140  16.865   8.876   1.559 -0.2425  0.2239  0.2615
18880W        W35141   8.860  16.628   3.559  0.1962  0.0005 -0.1413
18881W        W35142   7.935  11.804   3.029  0.0551 -0.3775 -0.0327
18882W        W35143  15.028   1.490   4.589  0.0241  0.1132 -0.4874
18883W        W35144   7.339   8.163   2.677  0.1311 -0.1083 -0.1293
18884W        W35145   6.501   9.625   4.053 -0.2424  0.0812  0.0583
18885W        W35146  15.901   6.313   5.456 -0.1765  0.2016 -0.3069
18886W        W35147  16.160  14.656  12.837 -0.3065 -0.0611  0.1339
18887W        W35148   2.691   2.656   2.322  0.0488 -0.1864  0.1347
18888W        W35149   5.738   1.833  15.986  0.1714 -0.2552 -0.0085
18889W        W35150   8.278   0.158  15.745 -0.4814 -0.1090 -0.1112
18890W        W35151   8.243  10.321   5.424 -0.0437 -0.0849 -0.3056
18891W        W35152  11.911   9.685  16.460  0.1982  0.2244 -0.1962
18892W        W35153   0.454   5.508   1.501 -0.2583 -0.2488  0.0212
18893W        W35154  12.591  12.048   0.456  0.0527  0.3270  0.0091
18894W        W35155   4.951  16.549   2.651 -0.2172 -0.2145 -0.1751
18895W        W35156   5.073  17.809  16.167 -0.1962  0.1335 -0.0401
18896W        W35157  13.079  15.756   0.979 -0.2548  0.2334 -0.0838
18897W        W35158   7.609  15.015  15.856 -0.2145  0.1116  0.0640
18898W        W35159   2.709   7.378   3.439 -0.2707 -0.0347  0.2727
18899W        W35160   9.435  16.225   3.512 -0.0547  0.1764 -0.0968
18900W        W35161   1.244  14.308   3.289  0.3529 -0.0443 -0.2752
18901W        W35162  14.577   8.492   1.495  0.0230 -0.5996 -0.0846
18902W        W35163   2.045   7.673   2.337  0.2447  0.2389 -0.2878
18903W        W35164   2.042   1.427  14.784  0.2206  0.2886 -0.0260
18904W        W35165  14.678   5.909   4.291  0.1038  0.1459  0.1669
18905W        W35166  12.702  15.509  16.963  0.0503 -0.0860 -0.0029
18906W        W35167   9.697  15.210   4.636  0.2456 -0.1533  0.0430
18907W        W35168   9.361   9.055  14.419  0.0828  0.2227  0.1054
18908W        W35169  13.976   0.650   2.415  0.0782  0.0587 -0.4011
18909W        W35170  12.281  16.724  12.212  0.1311  0.0729  0.2304
18910W        W35171   3.846  16.608   5.075 -0.0213  0.0562 -0.3300
18911W        W35172   8.757  16.551   1.600  0.1233 -0.1998 -0.0057
18912W        W35173   0.821  12.589   3.976 -0.0257  0.0736 -0.0997
18913W        W35174  10.137  10.214  13.382 -0.1787  0.0851 -0.1845
18914W        W35175   7.225  14.085   2.328 -0.1301  0.1771 -0.2851
18915W        W35176   0.782  15.048  15.839 -0.0774 -0.0373  0.0491
18916W        W35177   9.792   2.561   0.158  0.2074 -0.1996  0.2179
18917W        W35178   8.154   6.744  11.662  0.0912 -0.0409  0.5110
18918W        W35179  13.975  14.166   5.508 -0.0915 -0.1296  0.2608
18919W        W35180   6.899   7.123   2.458  0.1362 -0.2883  0.3754
18920W        W35181  13.189   2.598   5.719 -0.3799 -0.0320 -0.0161
18921W        W35182  14.316  14.773  12.511  0.0060 -0.1170 -0.1605
18922W        W35183   2.400   3.676  16.212 -0.1576  0.4488 -0.0707
18923W        W35184  12.571   4.685  16.118  0.1900 -0.4328  0.2410
18924W        W35185  14.714  17.104  13.453  0.2278  0.2832 -0.0573
18925W        W35186  13.612   5.934   0.885 -0.3389  0.3131 -0.0276
18926W        W35187   2.259   7.300  16.252 -0.0772  0.3592 -0.2025
18927W        W35188  13.151  11.544   5.331 -0.2709 -0.0425  0.0138
18928W        W35189  11.502   0.048   5.738 -0.0200 -0.0091  0.3061
18929W        W35190   2.338   5.704   4.271 -0.0207 -0.1153 -0.1450
18930W        W35191  17.279  10.996   3.371  0.0677 -0.0738  0.3742
18931W        W35192  11.365  14.268  15.209 -0.1337  0.0930  0.2858
18932W        W35193  10.021   8.099  13.748 -0.1159  0.2310  0.1480
18933W        W35194  11.211   2.600   4.216 -0.1400 -0.0709  0.3649
18934W        W35195   8.744   7.571   4.657  0.0560 -0.1261  0.3395
18935W        W35196   4.330   7.484  12.829 -0.0982 -0.0264 -0.0357
18936W        W35197  15.637   2.874   2.929 -0.0330  0.3616  0.1148
18937W        W35198   1.227   4.752   4.405  0.0322  0.2322  0.5430
18938W        W35199  10.013  12.615   1.098  0.1070 -0.3623 -0.0107
18939W        W35200   4.394  11.482   2.051 -0.0786 -0.2004 -0.1746
18940W        W35201   2.580   7.168   2.020 -0.1305  0.0219 -0.0268
18941W        W35202   6.187  17.300  14.933 -0.2320  0.0315 -0.0314
18942W        W35203  14.822   5.316   4.110  0.2082  0.0497  0.3101
18943W        W35204  10.718  13.974  16.217  0.1906 -0.1348  0.2701
18944W        W35205  10.968   9.788   2.969  0.2087  0.2391  0.0396
18945W        W35206   8.944   6.405   4.490 -0.0399 -0.2336 -0.0696
18946W        W35207   1.530  13.606  13.399 -0.1230 -0.2904 -0.0093
18947W        W35208   0.793   4.617   3.553 -0.0753  0.1677  0.1398
18948W        W35209   1.275  16.085   3.601  0.0989 -0.4136  0.0218
18949W        W35210   3.899   7.158   4.538  0.0484 -0.0330 -0.3358
18950W        W35211   1.846  16.581  12.842 -0.1214 -0.4234 -0.2291
18951W        W35212  10.941   2.435  14.655 -0.3300  0.0422  0.0196
18952W        W35213   0.950  12.656   6.025  0.2254 -0.0477  0.0711
18953W        W35214  16.355   6.362  15.552  0.3117  0.2943 -0.0314
18954W        W35215  13.549  13.125   5.099  0.0727 -0.1457 -0.1372
18955W        W35216   2.806   7.296   6.764 -0.1388  0.1676  0.2078
18956W        W35217  17.072   5.161   3.233 -0.1626 -0.0564 -0.3248
18957W        W35218   2.231   4.719   3.783  0.1891  0.1583  0.1903
18958W        W35219  17.454  15.612  12.016 -0.2995  0.0260  0.2288
18959W        W35220   2.090   0.818   2.998 -0.0721  0.1040  0.0856
18960W        W35221   9.314  14.014  13.222 -0.5063 -0.1470 -0.0132
18961W        W35222   2.639  11.760  16.866  0.2083  0.1733  0.0338
18962W        W35223  15.645   2.076  15.006 -0.0663  0.0924 -0.3161
18963W        W35224  10.201   9.595   0.908 -0.1055  0.3250 -0.1457
18964W        W35225  17.454  17.526   1.173  0.1669  0.0448 -0.2513
18965W        W35226   8.874   7.128   0.580 -0.0515 -0.4608  0.3824
18966W        W35227   6.900  16.192   1.381 -0.0870 -0.0147 -0.2166
18967W        W35228  12.865  14.847   4.962 -0.0951 -0.3092  0.0230
18968W        W35229  11.822  13.396   4.208  0.0320 -0.2040 -0.3207
18969W        W35230   7.552  10.445   5.280 -0.1616  0.3418  0.0531
18970W        W35231   9.320   8.536   4.595  0.0244  0.1403 -0.0777
18971W        W35232  14.075   5.346   2.175  0.0462  0.3420  0.0925
18972W        W35233   9.146   9.744   5.345  0.0010  0.0009 -0.1890
18973W        W35234  15.155   1.949   6.178 -0.1765 -0.0613  0.1539
18974W        W35235   7.345   1.237   1.184  0.0647  0.2724  0.1185
18975W        W35236   8.990   8.499   5.607 -0.1321 -0.2605 -0.0227
18976W        W35237  12.920   6.146   2.745 -0.0417 -0.0709 -0.2039
18977W        W35238  16.018   9.954   0.720  0.2718  0.0551  0.0449
18978W        W35239   7.678   5.454  14.386  0.1858 -0.1643 -0.1526
18979W        W35240   5.118  12.811   2.759  0.2207  0.0134  0.1369
18980W        W35241   0.009  17.300   5.104  0.0650  0.1091 -0.0274
18981W        W35242  10.890   3.835   0.613  0.1266 -0.1559 -0.0246
18982W        W35243  13.073   7.440   4.315 -0.1837  0.1757  0.3044
18983W        W35244   2.139  15.788  13.220  0.0787  0.0156 -0.1807
18984W        W35245   2.667  13.526   2.563 -0.3110  0.0548 -0.1386
18985W        W35246  10.354  11.026   5.309 -0.0333 -0.1778 -0.1373
18986W        W35247  14.071   4.184   4.581 -0.2341  0.3134  0.0561
18987W        W35248   8.201  11.097   1.719 -0.1040  0.3140 -0.2439
18988W        W35249   5.013  14.962  12.020 -0.0418 -0.1472  0.2009
18989W        W35250   7.554  15.727  13.998 -0.0911 -0.1242  0.4118
18990W        W35251   1.916  15.307   3.863 -0.0444  0.0965 -0.0226
18991W        W35252   6.527   6.919   4.025 -0.3639 -0.3494 -0.1294
18992W        W35253   9.438   1.623  15.768 -0.1600  0.1175 -0.0087
18993W        W35254   9.506  15.433  13.753 -0.0011 -0.0373  0.3844
18994W        W35255  13.441  13.885  15.725 -0.0455 -0.0628 -0.1044
18995W        W35256   6.209   4.344   5.019  0.0422  0.1011  0.4405
18996W        W35257  17.417  10.535  15.009  0.1836 -0.4204 -0.3063
18997W        W35258  12.619   7.648   2.204  0.1201 -0.0100  0.2559
18998W        W35259  17.250  15.206   3.013 -0.0004  0.2781 -0.1582
18999W        W35260   1.971   9.179  16.876  0.2156  0.1454 -0.2734
19000W        W35261   9.574  11.305  11.881  0.1606 -0.2243 -0.0094
19001W        W35262  16.825   0.428  15.780  0.2785  0.0577 -0.5450
19002W        W35263  13.366  13.077   0.632  0.0499 -0.1960  0.1381
19003W        W35264   7.494   7.059  13.896 -0.2534 -0.1130 -0.2438
19004W        W35265   7.031   8.478   3.778  0.2780 -0.2160 -0.0898
19005W        W35266   8.122  14.475  14.163 -0.1381 -0.0968 -0.2962
19006W        W35267  13.801   4.708  15.642 -0.2956 -0.0909  0.4234
19007W        W35268   3.594  14.288   6.176 -0.2281 -0.0354  0.0715
19008W        W35269   7.080   0.547  15.032  0.5229  0.2566  0.2600
19009W        W35270   6.902  15.722   5.144 -0.3254  0.0368 -0.2139
19010W        W35271   4.209  17.120  12.134 -0.3930  0.0326 -0.0818
19011W        W35272   4.308  14.514  13.953  0.1362  0.1099 -0.2908
19012W        W35273  11.932   4.650  13.772 -0.2784 -0.0865 -0.0834
19013W        W35274   5.796  10.803  16.690 -0.2221 -0.1418 -0.1605
19014W        W35275  17.180  12.525  15.167 -0.0042 -0.0110  0.1987
19015W        W35276   0.553  13.435   2.505  0.1764 -0.1244  0.1635
19016W        W35277  13.504   8.659  12.815  0.2946 -0.0827 -0.1610
19017W        W35278   2.734   2.899   1.446  0.0673  0.2487 -0.2175
19018W        W35279   9.218   8.728   0.981 -0.1184 -0.0284  0.5214
19019W        W35280  13.134  10.970  15.232 -0.1545 -0.1730  0.0392
19020W        W35281  10.310   1.820  15.651 -0.1033  0.0322  0.0570
19021W        W35282   8.496   0.629   5.668  0.1385  0.1900 -0.0716
19022W        W35283   9.593   4.806  15.958 -0.0162  0.0831 -0.0036
19023W        W35284   8.816  14.981   2.464  0.3490  0.0376  0.2064
19024W        W35285   4.819  15.032  16.024 -0.0031  0.2291  0.0052
19025W        W35286   1.940  11.143   6.306 -0.1401 -0.0967  0.1857
19026W        W35287  15.951   3.690   4.932 -0.0355 -0.4183  0.0122
19027W        W35288  14.874  11.936  16.481  0.3151 -0.0029  0.0604
19028W        W35289   8.984   0.046   2.170  0.3823  0.1338 -0.0072
19029W        W35290   9.769   2.460   3.195 -0.4981  0.0487  0.0646
19030W        W35291  16.669  10.582   1.320  0.1122  0.3301 -0.1486
19031W        W35292   0.185  13.395  13.258  0.2568  0.0352  0.1363
19032W        W35293  11.171   1.277   1.927 -0.0095 -0.1576 -0.1281
19033W        W35294   3.919  17.220   0.525 -0.3470  0.1945 -0.2946
19034W        W35295   9.748  15.109   1.353 -0.2026  0.1664  0.0384
19035W        W35296   0.438   6.601   0.335 -0.0205 -0.0129 -0.0853
19036W        W35297   5.450   1.389   3.943 -0.2050  0.3636  0.0717
19037W        W35298  16.615  13.676   5.356 -0.2103  0.0211 -0.1076
19038W        W35299   1.639   8.601   1.395  0.0906 -0.0394  0.0587
19039W        W35300   3.638  10.145   3.687 -0.0287  0.4255  0.1241
19040W        W35301   1.000  10.304   3.000 -0.1104  0.0229  0.1821
19041W        W35302  12.807   0.277   1.576 -0.0660  0.0800 -0.0394
19042W        W35303   0.002   7.407  15.339  0.4580  0.1275  0.0267
19043W        W35304   6.480   1.841  14.898 -0.0087 -0.0524  0.0438
19044W        W35305   0.946   2.941   6.232 -0.2084  0.1037  0.1221
19045W        W35306   4.664  13.471  16.073 -0.7600  0.0834  0.0887
19046W        W35307   4.056   1.807   1.761  0.1544  0.1477 -0.0814
19047W        W35308  17.835  16.979   4.356  0.0597 -0.0814  0.0131
19048W        W35309  15.328   3.160  15.022  0.0524 -0.0053  0.0920
19049W        W35310   8.611   0.183  12.072 -0.3349 -0.3463  0.0492
19050W        W35311  10.990   5.146  12.360 -0.0923  0.0949  0.0176
19051W        W35312  14.987   5.245  14.072 -0.2679 -0.0983 -0.2506
19052W        W35313  14.517   4.879  11.690 -0.2308  0.0135  0.2584
19053W        W35314  14.646   3.252   1.035 -0.3661  0.4934 -0.1302
19054W        W35315  16.054  15.249   1.551  0.1994 -0.0218  0.2834
19055W        W35316   6.119   8.250  15.724 -0.3137  0.1613  0.1789
19056W        W35317   6.146  16.138   0.847 -0.1214 -0.2714  0.0609
19057W        W35318   1.240   7.361  12.677  0.1488  0.3641 -0.0282
19058W        W35319  17.162   2.137   0.916 -0.0162 -0.0104  0.2521
19059W        W35320   7.856  12.273   1.174 -0.4025  0.1244 -0.4945
19060W        W35321   3.448   5.862  14.438  0.3679  0.0467  0.0516
19061W        W35322  11.601  16.349   5.747 -0.3616  0.1127  0.0904
19062W        W35323   7.654  14.803  13.275  0.0158 -0.0536 -0.3146
19063W        W35324   4.205   6.828  15.973 -0.0537 -0.1445 -0.3099
19064W        W35325   5.566   1.478  14.002 -0.1236  0.0142 -0.0739
19065W        W35326  16.183  14.083   2.857  0.2740  0.0220 -0.1139
19066W        W35327  16.575   9.336   1.548  0.0615  0.0298  0.0112
19067W        W35328   4.983   0.184  13.431 -0.1613  0.0712  0.1858
19068W        W35329  15.884   8.363  14.578 -0.2774 -0.2084 -0.0714
19069W        W35330  12.223  17.845  15.594 -0.1545  0.0060  0.1445
19070W        W35331   2.192   7.407  13.288 -0.3444 -0.1099  0.0497
19071W        W35332  14.108   0.418   0.092 -0.0403 -0.1329  0.0936
19072W        W35333  11.175   6.934   5.259 -0.0913 -0.1272  0.0992
19073W        W35334   4.654  10.309  13.589  0.1898 -0.0436 -0.1449
19074W        W35335   8.764   1.799  11.471 -0.0876  0.2900 -0.0046
19075W        W35336  14.383  11.526   5.826 -0.1748 -0.2705 -0.2217
19076W        W35337   5.581   3.835   1.985  0.1054 -0.1536 -0.0587
19077W        W35338   8.159  13.664   4.132 -0.1402  0.1618 -0.0285
19078W        W35339   5.696  17.124   3.920 -0.0834  0.4443  0.0108
19079W        W35340   3.552   6.669  15.154 -0.3023  0.1302 -0.2536
19080W        W35341  16.538   3.322  12.864 -0.2047 -0.1697  0.2431
19081W        W35342   1.920   4.234  12.796 -0.1019 -0.1060  0.0691
19082W        W35343   6.998  14.787  15.119  0.0828  0.0126  0.4174
19083W        W35344   1.493  15.530   0.373  0.1019 -0.0177  0.1287
19084W        W35345   1.468   4.198  11.903  0.0435 -0.3049 -0.0635
19085W        W35346   7.539  10.982   5.486 -0.0252 -0.0671  0.1162
19086W        W35347   7.884   2.525   3.100  0.3981 -0.0227  0.0272
19087W        W35348   6.526  10.703   3.926 -0.3366  0.0245 -0.2762
19088W        W35349   3.218  11.288   2.390 -0.3063  0.3297  0.2273
19089W        W35350  17.519  14.686  15.316  0.0001 -0.1545  0.2160
19090W        W35351  10.297  14.620   5.024  0.2146 -0.2060  0.3221
19091W        W35352  16.424  14.304   6.351  0.3452  0.0686 -0.0914
19092W        W35353   5.221  12.190   3.942 -0.1328  0.1137 -0.0228
19093W        W35354   6.565   7.859  15.396 -0.3752  0.1083 -0.0824
19094W        W35355   8.587   3.116  14.868  0.0830 -0.1750  0.0094
19095W        W35356  11.900  12.860   4.072  0.0111  0.3691  0.1871
19096W        W35357   8.546  14.342   4.586 -0.3717  0.0327  0.0888
19097W        W35358  12.649  11.407   1.388  0.0970  0.1313 -0.1202
19098W        W35359   2.422   2.502   1.561 -0.1391 -0.0229  0.0943
19099W        W35360  15.381  12.978  13.933 -0.2241 -0.2084  0.0237
19100W        W35361   5.432  12.378  16.748 -0.1846 -0.2042 -0.0622
19101W        W35362   9.390  14.818  10.860  0.1004 -0.0703  0.0493
19102W        W35363  11.953  14.615  14.008  0.1212 -0.0688  0.1338
19103W        W35364   4.257   3.653   0.461  0.2711 -0.3124  0.1338
19104W        W35365   4.698   4.998  16.265  0.3295 -0.2332 -0.2643
19105W        W35366  12.238   9.179   4.897  0.0358 -0.1205 -0.3624
19106W        W35367   0.391  12.949   3.373 -0.2740  0.1016  0.2035
19107W        W35368   4.962  15.531   4.380  0.3385 -0.3662 -0.1715
19108W        W35369  17.157   5.402  12.329  0.4570 -0.1031  0.0096
19109W        W35370  11.094   1.173   4.009  0.0014 -0.1388  0.0710
19110W        W35371  14.095  10.084  12.190  0.2324 -0.2862  0.0768
19111W        W35372   6.604  16.558  10.839 -0.4134 -0.2213  0.1689
19112W        W35373  11.327   7.442   5.369 -0.1261  0.1374  0.0464
19113W        W35374   7.737  13.074  16.907 -0.0259  0.0845 -0.4428
19114W        W35375  14.276   8.202  12.369  0.0501 -0.0492 -0.0829
19115W        W35376  10.202   2.319   1.528 -0.2711  0.1582  0.1809
19116W        W35377   8.136   1.363   4.021  0.2144 -0.1406  0.0885
19117W        W35378   8.961   2.295  16.215 -0.1188 -0.0249  0.1375
19118W        W35379   5.592  16.168   5.974  0.0177  0.0352 -0.2579
19119W        W35380   5.045  14.614  14.655 -0.0665  0.1693  0.2760
19120W        W35381   9.134  11.388  13.668 -0.0646 -0.4320  0.1233
19121W        W35382  17.276   7.374   1.803  0.0724  0.2503 -0.0974
19122W        W35383  15.917   3.865   1.911  0.0275  0.2279 -0.2029
19123W        W35384   8.642  14.779   0.595  0.1584  0.1911 -0.1795
19124W        W35385   3.144   8.940   1.153  0.0498  0.2008  0.2491
19125W        W35386  15.544   2.967   3.412  0.3895 -0.0222 -0.0583
19126W        W35387  16.245   6.665   3.448 -0.0337 -0.4108 -0.0413
19127W        W35388   2.490   9.518  13.000 -0.0169  0.0557  0.1881
19128W        W35389  15.461  17.616   5.245  0.2719  0.0722  0.1908
19129W        W35390   6.876  10.836  15.169  0.0763  0.1477  0.1813
19130W        W35391   6.190  17.370  15.933  0.3526 -0.0802 -0.2617
19131W        W35392   1.525  13.548   0.084  0.0545 -0.1748 -0.2393
19132W        W35393   0.635  16.929  14.274 -0.0821  0.0919 -0.0210
19133W        W35394  12.720   3.728   0.987 -0.0825 -0.1527  0.0901
19134W        W35395   9.978   9.178   0.008 -0.0025  0.1684 -0.0195
19135W        W35396   7.544   5.168   4.246  0.0888 -0.0664 -0.1433
19136W        W35397   0.327  13.482  14.680 -0.0365  0.0523  0.1405
19137W        W35398  14.427  16.048   1.007 -0.1192 -0.0140 -0.1543
19138W        W35399   5.641   6.486  12.396 -0.1998  0.0526  0.0831
19139W        W35400  12.421   0.013  12.586 -0.0703  0.0294 -0.0862
19140W        W35401   0.457   7.128  14.950  0.0350  0.0594 -0.1362
19141W        W35402   2.995   9.008   3.725 -0.0633 -0.1946 -0.1609
19142W        W35403  12.428  10.331   4.040  0.0421 -0.1017  0.4161
19143W        W35404  10.730  12.287  13.082  0.2017 -0.2880 -0.0041
19144W        W35405   6.481  16.724   4.036  0.2418 -0.1030  0.0705
19145W        W35406   8.371   9.145  14.026 -0.1066  0.3009 -0.0868
19146W        W35407  12.246   1.774   3.306 -0.0224  0.0566  0.1178
19147W        W35408  15.127  14.583  13.797  0.0972 -0.1282 -0.0610
19148W        W35409   4.756   4.011  12.156 -0.0154 -0.1718 -0.2299
19149W        W35410  16.317  14.390  15.088 -0.2690 -0.0196  0.0579
19150W        W35411   1.469  11.175  16.437  0.2174  0.0294 -0.1219
19151W        W35412   0.491   8.464   3.904 -0.1762  0.1820 -0.0884
19152W        W35413   5.029  10.684  16.236  0.2769 -0.2659  0.3806
19153W        W35414  13.187   2.811   0.990  0.1844 -0.1065  0.0014
19154W        W35415  17.526   5.618   2.523 -0.0585  0.2110  0.1241
19155W        W35416   4.884  10.620  15.732 -0.0973 -0.0651  0.1943
19156W        W35417   4.690   7.637  16.527  0.0526 -0.1401  0.0931
19157W        W35418   9.167  10.149   5.817 -0.0318 -0.3227  0.0728
19158W        W35419   3.723  12.195  15.336 -0.1594 -0.3082  0.0541
19159W        W35420  15.266  13.292   5.946  0.2436 -0.0060  0.3162
19160W        W35421   8.634  12.665   0.217 -0.0206 -0.0916 -0.4105
19161W        W35422   1.689   3.682   1.375  0.2352  0.2037  0.2894
19162W        W35423   0.166   9.445  15.167 -0.0037  0.3641  0.1093
19163W        W35424   4.084   7.717   6.608 -0.2112  0.0659 -0.0522
19164W        W35425   1.577  10.369  12.578  0.0908  0.0405  0.0876
19165W        W35426   0.706  11.237  11.907 -0.3399  0.3288  0.0128
19166W        W35427   2.902   2.680   3.611 -0.2997  0.0602  0.0185
19167W        W35428   3.496   9.141   0.829  0.0899 -0.0749  0.1441
19168W        W35429  15.993   6.830   5.651 -0.0325 -0.2865  0.1167
19169W        W35430   3.430   0.279  16.005  0.0359 -0.4607 -0.2167
19170W        W35431  17.444   5.187  15.673 -0.0263 -0.1365 -0.1860
19171W        W35432  16.976  13.905  12.164 -0.0311  0.1771  0.0863
19172W        W35433  13.733  16.382   0.644 -0.0049  0.0498 -0.0979
19173W        W35434  16.755   4.115   0.148  0.0570  0.1028  0.0223
19174W        W35435  15.715   6.812   3.665 -0.2206 -0.1701 -0.1343
19175W        W35436  15.673   2.922   1.909  0.2275 -0.3823 -0.0903
19176W        W35437  13.093  12.838  14.592  0.1040 -0.1737 -0.0814
19177W        W35438   3.495   1.636   5.768 -0.2456 -0.2107 -0.0442
19178W        W35439   0.779  14.990   1.697 -0.0842 -0.2220 -0.3904
19179W        W35440   3.306  14.050  15.582 -0.0691 -0.1799 -0.0501
19180W        W35441   4.281   4.743  13.809 -0.0122  0.2898  0.0748
19181W        W35442   9.196   1.062   0.337  0.2384  0.2869 -0.0578
19182W        W35443  17.583  10.966   2.268 -0.0697 -0.1582  0.1552
19183W        W35444   2.840  10.403  14.324  0.1801  0.2290  0.1024
19184W        W35445  11.665   7.985  15.345  0.0713  0.1419 -0.1455
19185W        W35446   6.019   5.467   5.678 -0.1227 -0.0649 -0.1160
19186W        W35447   8.605   9.055  12.486  0.3460 -0.3610 -0.4373
19187W        W35448  17.477  17.284   0.103  0.0081 -0.1043 -0.4262
19188W        W35449  12.638  10.690  12.914 -0.2260 -0.1224  0.1169
19189W        W35450  14.183   7.302   0.519 -0.1571 -0.0862 -0.2442
19190W        W35451  11.128  12.600  13.050  0.0415  0.0524 -0.3181
19191W        W35452   3.808   6.452   2.438  0.0110  0.0967  0.2819
19192W        W35453   1.425  17.163   5.166  0.1322  0.1933 -0.0958
19193W        W35454   9.284   7.972   3.116  0.0510 -0.2959 -0.0206
19194W        W35455   9.916   0.066   3.160  0.1033 -0.1212 -0.3102
19195W        W35456   5.044  13.497   6.313  0.1228 -0.2046 -0.0511
19196W        W35457  10.913  10.365  12.580 -0.0752  0.2529 -0.0421
19197W        W35458   8.094   8.967   1.805  0.0396  0.0930 -0.2166
19198W        W35459  15.979   5.639   1.343  0.3850 -0.1306  0.2920
19199W        W35460  12.836  10.968   2.263  0.1500 -0.2704 -0.3933
19200W        W35461   7.415   8.198  13.847  0.1090  0.1245  0.2048
19201W        W35462   9.465   4.869  16.488 -0.1816 -0.2693  0.1371
19202W        W35463   3.842   7.446  12.342  0.1218  0.0364  0.0604
19203W        W35464  16.007   5.477   6.328 -0.0081 -0.1328 -0.1818
19204W        W35465  12.578  15.673   0.724 -0.1211 -0.0853  0.0135
19205W        W35466  12.565   0.934  12.328  0.4578 -0.1412  0.2942
19206W        W35467  15.398   7.177   1.794  0.0663  0.2333  0.4145
19207W        W35468  10.050  10.175  12.025  0.1275 -0.0063  0.3775
19208W        W35469  14.856   6.963   3.335  0.0376  0.1092  0.0513
19209W        W35470  11.874   0.984   3.439  0.2642  0.0126  0.2782
19210W        W35471   3.228   1.606   4.376 -0.0880  0.1453 -0.1457
19211W        W35472   8.110  13.615  16.368 -0.1252 -0.1602 -0.0143
19212W        W35473   3.332   9.977   3.330  0.2123  0.0318  0.1376
19213W        W35474  15.115   8.486   1.616  0.2195  0.1173  0.1315
19214W        W35475   3.644   5.785   2.832  0.1074 -0.2128 -0.2781
19215W        W35476  17.305   1.310  12.110 -0.3376  0.0242  0.0344
19216W        W35477  10.257  12.484   0.061  0.2077 -0.0175 -0.1643
19217W        W35478  15.439   8.591  14.812 -0.1353  0.0562  0.3745
19218W        W35479   8.266  14.916   0.252 -0.0663 -0.1014  0.3027
19219W        W35480  16.392  15.671   3.294  0.1996 -0.1806  0.2492
19220W        W35481  11.366   5.558  16.257 -0.0952  0.0704  0.1244
19221W        W35482  12.352   3.643  16.673  0.0129  0.0414 -0.3171
19222W        W35483  17.226  14.828   2.274  0.2034 -0.2335 -0.0139
19223W        W35484   0.331  12.626   2.968  0.0053  0.2668  0.0795
19224W        W35485  11.688   7.665  13.551  0.1025 -0.2006  0.0173
19225W        W35486   5.009  11.067   6.216 -0.0016  0.2113  0.4032
19226W        W35487  11.574   8.136  12.656 -0.1123  0.2215  0.0664
19227W        W35488  11.150  15.128  15.495 -0.1786  0.0304  0.0324
19228W        W35489  10.399   7.942  14.702  0.0591 -0.1313 -0.0003
19229W        W35490   6.471   5.877   4.713 -0.2867 -0.0403  0.0193
19230W        W35491   8.382  15.585  14.961  0.0506 -0.1283 -0.1088
19231W        W35492  16.526  10.460  14.151  0.1000 -0.0001 -0.1435
19232W        W35493  10.284   1.583   3.731 -0.2099  0.2054 -0.1318
19233W        W35494  14.018  14.868  13.237 -0.2659 -0.2838 -0.0183
19234W        W35495  17.326   4.649   0.484  0.0091  0.3233 -0.1238
19235W        W35496  14.072   7.913   3.352  0.0145  0.2973 -0.3943
19236W        W35497  15.340  10.778  13.696 -0.1818 -0.3438  0.2712
19237W        W35498   4.960   5.388  14.297 -0.1081 -0.1365  0.2697
19238W        W35499   3.228  13.050  13.572 -0.0757 -0.0223  0.0737
19239W        W35500   5.288  12.306   2.122 -0.0192  0.0529 -0.2295
19240W        W35501  14.446   6.673   5.329  0.2836  0.1721  0.0778
19241W        W35502   0.938   0.441  12.987  0.1243  0.0654 -0.0426
19242W        W35503  17.470  11.775   1.023  0.0755  0.0320  0.0365
19243W        W35504  13.258   0.279   0.244 -0.1235 -0.4070  0.1272
19244W        W35505   6.521   0.640  13.552  0.0197 -0.0474  0.0639
19245W        W35506  12.366   9.188  15.294  0.0172  0.0771 -0.3771
19246W        W35507   9.947  14.687   4.666 -0.1806 -0.2756 -0.0136
19247W        W35508   3.346  14.138   0.278  0.2949  0.0057  0.1522
19248W        W35509   5.372  16.941   5.323  0.1157 -0.2585 -0.1743
19249W        W35510   6.031  16.305  16.868 -0.0931 -0.1781  0.2291
19250W        W35511  10.197   2.562  11.766  0.1801 -0.3215 -0.1841
19251W        W35512  10.775  10.718   0.470  0.1739  0.1138  0.0040
19252W        W35513   4.796   5.430   3.319  0.2125 -0.0302  0.0275
19253W        W35514   5.606   0.065  16.535 -0.1605  0.1975 -0.1997
19254W        W35515   8.551   7.020   1.010 -0.0990  0.0037 -0.2676
19255W        W35516   5.287  13.786   2.066 -0.0626 -0.2272 -0.2901
19256W        W35517   3.268  13.662   5.228 -0.2987  0.0997 -0.1702
19257W        W35518  10.682  10.680   1.924  0.3835 -0.1936  0.1354
19258W        W35519  16.661   0.450  14.163  0.1252  0.3067  0.0205
19259W        W35520  12.170  15.659  16.285 -0.0158 -0.0770  0.1419
19260W        W35521  17.123   1.684  14.108 -0.1055 -0.1739  0.0639
19261W        W35522   4.894  14.290  13.683 -0.1306 -0.2293  0.0494
19262W        W35523   4.971   2.604  15.745  0.0034  0.2489  0.0319
19263W        W35524   5.971  13.182   3.806 -0.2869  0.2547 -0.0282
19264W        W35525  14.373  10.391   1.399  0.0246  0.2074 -0.2092
19265W        W35526  17.247   3.471   4.676  0.0927 -0.0168  0.0440
19266W        W35527   3.894   3.120   5.141 -0.1144 -0.0255  0.3609
19267W        W35528   8.476   7.587   3.691  0.0077 -0.0249  0.0470
19268W        W35529  17.661   2.549   2.661  0.4298 -0.0755  0.0800
19269W        W35530  13.103  16.829  14.696 -0.1706 -0.2378  0.0565
19270W        W35531   1.877  16.551   2.131 -0.1570 -0.1159  0.2439
19271W        W35532  16.647   6.251  16.819 -0.0940 -0.3247  0.1575
19272W        W35533  12.349  14.325   2.026  0.1429 -0.1648 -0.1748
19273W        W35534  13.462  16.374   5.118  0.1521 -0.3353  0.1923
19274W        W35535   3.185  15.822  14.420 -0.0210  0.0888  0.0822
19275W        W35536   8.475   3.467  16.258  0.1000  0.0086  0.2717
19276W        W35537   2.843   9.015  15.503 -0.0383 -0.2894  0.2207
19277W        W35538  13.051   2.793   1.493  0.0302 -0.4072 -0.0218
19278W        W35539  11.333   3.161  16.810  0.0112 -0.0972 -0.1822
19279W        W35540   6.920  10.257  15.942  0.1140 -0.0433 -0.1180
19280W        W35541   5.687   8.274   5.582 -0.3780 -0.1615 -0.0452
19281W        W35542  15.929   4.771   0.175 -0.0866  0.0285  0.0185
19282W        W35543  12.696  12.398   1.867 -0.1968 -0.1261 -0.0904
19283W        W35544  12.302   9.505   1.695  0.2950  0.0501 -0.1824
19284W        W35545   8.673   9.938   2.844  0.0160 -0.2447 -0.1623
19285W        W35546  17.754  10.792  13.705  0.0628 -0.0981  0.2622
19286W        W35547   2.641   1.234  13.461  0.2736 -0.2375 -0.0130
19287W        W35548  14.318   8.384  16.788  0.0849  0.1214  0.0696
19288W        W35549   5.402   4.387  16.812  0.0853  0.0997 -0.0347
19289W        W35550   3.104  17.199   1.709  0.2570 -0.0948 -0.1497
19290W        W35551   1.297   7.078  13.348  0.1112  0.0710 -0.1158
19291W        W35552   7.070   5.530   3.294 -0.0256 -0.1751  0.1949
19292W        W35553  14.826  16.218   5.640 -0.2123 -0.0749 -0.1273
19293W        W35554   7.394  16.357  15.239 -0.1694 -0.0809  0.0481
19294W        W35555  14.553   0.161   3.775  0.2028  0.2272 -0.1456
19295W        W35556   6.477   1.990  11.776  0.0132  0.1241  0.0127
19296W        W35557  12.236   1.908   5.681 -0.1056 -0.0191 -0.2671
19297W        W35558   3.585  17.705   4.029 -0.1485  0.0345  0.3212
19298W        W35559  12.812  15.934  12.245  0.1310  0.0663  0.0559
19299W        W35560   6.659   6.331  12.521 -0.0349 -0.1890  0.2777
19300W        W35561  16.226   6.173   3.551 -0.1639 -0.0942 -0.0225
19301W        W35562   3.023  14.912  12.083  0.0194 -0.0859  0.1570
19302W        W35563  11.792   1.273   5.138  0.3482  0.2778  0.1839
19303W        W35564   8.463  12.756  12.035  0.2703 -0.2568 -0.2693
19304W        W35565  15.470   9.174  11.567 -0.2707  0.0614  0.3430
19305W        W35566  15.346   6.617  11.864 -0.0869 -0.0069  0.0766
19306W        W35567  14.161   4.662  13.516  0.1993  0.0728 -0.1392
19307W        W35568   7.979   6.282  12.904  0.0705  0.2082  0.0725
19308W        W35569   4.613   7.357   0.411 -0.0315  0.0243  0.1563
19309W        W35570   5.258  11.664   4.210 -0.1454  0.1916 -0.1034
19310W        W35571   8.745   1.637  11.912 -0.1206 -0.0413  0.1610
19311W        W35572  10.278   6.651  10.522 -0.1213  0.1465  0.0393
19312W        W35573  13.226   4.999  16.856 -0.0509 -0.3116  0.0626
19313W        W35574  13.207   0.945   3.175  0.1798 -0.0206 -0.1334
19314W        W35575  17.108   5.928  14.927 -0.0367  0.3142  0.2678
19315W        W35576   5.607   9.575   3.030  0.1713 -0.0176  0.2026
19316W        W35577   2.430   3.002   4.846  0.0505  0.0241 -0.0621
19317W        W35578   6.439  13.665  14.246 -0.0168  0.3147  0.1385
19318W        W35579  13.149   5.643   5.336  0.1847 -0.2561  0.0320
19319W        W35580   3.789  14.082  15.490  0.1200 -0.0132 -0.0213
19320W        W35581   2.752   3.232  13.074 -0.0811  0.0287  0.1728
19321W        W35582   3.157   1.556  15.527  0.1850  0.3140  0.2343
19322W        W35583   1.762   8.929   2.197  0.0624 -0.0134  0.1530
19323W        W35584  10.988   7.771  11.032  0.2161 -0.1184 -0.4222
19324W        W35585   5.258  13.673   4.771  0.3664  0.0077  0.2277
19325W        W35586  16.714  12.912   4.495  0.1648  0.0990 -0.1438
19326W        W35587   4.087  10.336  16.338 -0.0666  0.3634 -0.0965
19327W        W35588   3.425  14.652   0.191  0.2446 -0.0582 -0.1635
19328W        W35589   0.967   6.468  14.287  0.1039 -0.0207 -0.2463
19329W        W35590  11.330  15.458   1.181 -0.1087 -0.1204  0.0010
19330W        W35591  10.309  14.894   5.894  0.0527 -0.1986 -0.0345
19331W        W35592  13.994   3.241  15.615 -0.0720  0.1593 -0.0555
19332W        W35593   5.434   0.239   2.963 -0.2808  0.1729 -0.0513
19333W        W35594  12.249  14.427  15.674 -0.0558 -0.1181  0.0631
19334W        W35595   6.591  12.093   2.139 -0.0359 -0.1273  0.0938
19335W        W35596  10.635   0.584   5.067  0.0228  0.3046 -0.2403
19336W        W35597  15.069  16.936  16.944  0.0466 -0.2707 -0.0008
19337W        W35598   0.198  12.825   0.129 -0.1806 -0.1086  0.0286
19338W        W35599  13.730   5.030   2.528 -0.2548 -0.1961  0.0873
19339W        W35600   7.834   6.777  14.220  0.2416  0.3778 -0.3580
19340W        W35601  11.874  12.199   2.187 -0.2859  0.0947  0.1707
19341W        W35602   7.592   4.710   2.228  0.0365  0.2799  0.0063
19342W        W35603  15.222  13.781  14.852 -0.0971 -0.1738  0.1693
19343W        W35604   1.584   7.760  16.724 -0.1380 -0.2010 -0.1460
19344W        W35605  12.729   3.508   1.831  0.0416 -0.2312  0.3810
19345W        W35606   0.523  13.385   4.703  0.2944  0.3572  0.0063
19346W        W35607   4.169  17.290   5.875 -0.0320 -0.2599 -0.4517
19347W        W35608  14.432  16.867   4.946 -0.2388 -0.1999  0.0795
19348W        W35609   1.378   7.730  15.340 -0.3289  0.0535  0.0859
19349W        W35610   3.906   4.770   0.831 -0.2534 -0.0255 -0.1521
19350W        W35611   5.993  14.104   5.670 -0.0999  0.1029  0.3228
19351W        W35612   6.816   0.569   1.819 -0.1851 -0.1193 -0.0751
19352W        W35613  16.819   8.431   4.947  0.0378  0.0204 -0.0176
19353W        W35614  11.416  10.743   0.039 -0.0543 -0.3536  0.0217
19354W        W35615   4.506  16.411   0.067  0.0312  0.1514  0.0411
19355W        W35616   8.547   8.175   5.791  0.2271  0.1337 -0.2847
19356W        W35617   5.882   1.019  12.365 -0.1178  0.2495 -0.2832
19357W        W35618  11.388   1.361   2.595  0.2389 -0.2657 -0.0019
19358W        W35619  10.960   5.810  14.942 -0.1416 -0.1658 -0.1810
19359W        W35620   9.463  17.440  12.636 -0.4245 -0.2429 -0.2801
19360W        W35621   4.034   2.571   4.370 -0.0712  0.0594  0.0352
19361W        W35622   7.613   2.576   1.218 -0.3526  0.1197  0.0044
19362W        W35623  15.811   4.233   0.132  0.1992 -0.1337  0.1486
19363W        W35624  10.174   3.555   0.941  0.1757  0.0928 -0.0322
19364W        W35625   7.561  13.931  13.875 -0.0796 -0.0352  0.2200
19365W        W35626  14.274  15.131  13.650 -0.2630 -0.1505  0.0285
19366W        W35627   0.566   8.723   5.499  0.3179 -0.0286 -0.2787
19367W        W35628  11.718   8.482  15.436  0.1350 -0.1374 -0.3746
19368W        W35629  13.028   0.794  12.635  0.0458  0.0240  0.0598
19369W        W35630  10.846  12.722   0.798 -0.0651 -0.0253 -0.0569
19370W        W35631  14.886  12.135   1.836 -0.4208 -0.1975  0.0251
19371W        W35632  12.703   1.939  10.860 -0.1482 -0.0366 -0.1497
19372W        W35633   9.794  10.401   2.793 -0.0424 -0.1190 -0.0612
19373W        W35634  16.330   3.442   1.918 -0.2137  0.0698  0.2039
19374W        W35635   8.868  13.789  13.338 -0.0697 -0.2071  0.1427
19375W        W35636  16.041   0.836   4.706  0.0036 -0.1352 -0.2348
19376W        W35637  10.901  13.659   5.766  0.3168  0.1253  0.4612
19377W        W35638   7.241  17.285  13.425 -0.5140  0.3127  0.0481
19378W        W35639  10.838   8.262   1.924 -0.2740 -0.1213  0.4233
19379W        W35640   7.515  10.566   5.854  0.2152 -0.2714  0.1519
19380W        W35641   1.134  17.746  14.850  0.0325  0.0575  0.0028
19381W        W35642  15.701  16.574  14.499 -0.1468  0.1842 -0.0985
19382W        W35643   7.312  15.844   1.348 -0.2789 -0.0243 -0.3496
19383W        W35644  13.780  15.742  12.563  0.0461 -0.0619  0.0502
19384W        W35645   0.215   4.320  14.977 -0.0666 -0.1179  0.2556
19385W        W35646  13.385   5.394   0.208  0.0947  0.2914 -0.0421
19386W        W35647  14.862   7.574   1.985 -0.1504 -0.0872 -0.2285
19387W        W35648   2.564  14.057   1.191  0.1652  0.1174 -0.0194
19388W        W35649   7.400  14.925   2.832 -0.0847  0.1354  0.0558
19389W        W35650  10.160  12.025   4.616 -0.0806  0.0828 -0.0264
19390W        W35651   4.589   3.024   3.333  0.0157 -0.2713 -0.1643
19391W        W35652  12.773  16.743   0.614  0.1230  0.0354  0.0421
19392W        W35653  14.169  11.858   4.271  0.0068 -0.2104  0.0763
19393W        W35654   6.093  13.689  13.901 -0.0357  0.1061 -0.2118
19394W        W35655   0.799   9.814  16.869 -0.0187  0.2365 -0.1912
19395W        W35656  10.505   1.540  16.803  0.1531 -0.0621  0.0407
19396W        W35657  13.648  17.571   1.855 -0.2416  0.0007 -0.1449
19397W        W35658   2.836  10.966   3.624 -0.0503 -0.0804 -0.0618
19398W        W35659   7.953   0.647  15.036 -0.0090 -0.3416 -0.0911
19399W        W35660  14.716   8.079   3.838 -0.0094  0.1555  0.0053
19400W        W35661   6.457  11.113  14.724 -0.0015 -0.1780  0.0437
19401W        W35662   8.394  14.238   2.353 -0.0904 -0.1291 -0.3142
19402W        W35663  15.371   2.731   5.654 -0.0596 -0.1849 -0.2566
19403W        W35664   9.820   6.525   1.098  0.2226  0.0781 -0.0071
19404W        W35665  12.917  12.374  12.140 -0.2599  0.1375  0.0329
19405W        W35666   7.638   0.655  13.185  0.2494  0.1409 -0.0637
19406W        W35667   0.132  11.053  16.612  0.4884 -0.2281  0.1498
19407W        W35668  16.308   0.677  13.873 -0.3925  0.1137  0.2141
19408W        W35669  10.158  14.337  14.849  0.1074 -0.0289  0.1371
19409W        W35670   7.743  16.142  13.037 -0.1847  0.0099  0.0368
19410W        W35671  14.550  11.731  11.787 -0.1418  0.0545  0.3703
19411W        W35672   6.481   8.236  13.702 -0.0864 -0.1090  0.1456
19412W        W35673   6.269  14.573  13.793 -0.1584 -0.2227  0.1537
19413W        W35674  10.670  13.456   5.342  0.2633  0.2138  0.1109
19414W        W35675   7.555  13.309  15.796  0.2971  0.1764  0.1338
19415W        W35676   2.035  14.556  13.111  0.0700  0.1755 -0.1906
19416W        W35677   5.837  11.625  16.128 -0.0117  0.2373 -0.1710
19417W        W35678   4.429   5.268   2.808  0.0418 -0.1211  0.0862
19418W        W35679  14.635   2.555  15.518 -0.0261 -0.0169 -0.0893
19419W        W35680   6.186   5.238  16.803  0.2365 -0.0760  0.1996
19420W        W35681   0.724  15.070  13.192  0.2341 -0.0593 -0.2601
19421W        W35682  13.614  14.044  12.348  0.1454  0.0262  0.1008
19422W        W35683   2.057   7.789  13.616 -0.1251 -0.0694 -0.1568
19423W        W35684  12.612   2.515   1.525  0.0940 -0.0490  0.1303
19424W        W35685   9.866   6.296   0.592  0.0621 -0.0187  0.1013
19425W        W35686   3.073  13.857   2.419 -0.2438 -0.0879 -0.0409
19426W        W35687   1.532  14.846  16.467  0.2026 -0.0069  0.0886
19427W        W35688  16.527  15.890  16.434 -0.2499  0.0424 -0.3571
19428W        W35689   6.331   7.067  16.901  0.1665 -0.2793  0.0630
19429W        W35690   4.566  13.404  12.409  0.0788 -0.1619  0.1988
19430W        W35691   0.106  10.022   5.497 -0.0410 -0.1666  0.2697
19431W        W35692   5.002   7.150   5.854  0.0293  0.0173  0.0174
19432W        W35693   4.111   5.560  13.740 -0.0100  0.4765 -0.0013
19433W        W35694  11.917  14.893  16.643 -0.0272 -0.2374  0.0775
19434W        W35695  12.763  14.161  13.150  0.1014  0.0141 -0.2701
19435W        W35696   2.745   6.225  15.338  0.0750 -0.1685  0.1952
19436W        W35697   9.916   5.747   2.302  0.0760 -0.1659 -0.1420
19437W        W35698  15.207  10.935  11.566 -0.0194 -0.2148 -0.0878
19438W        W35699  17.098   6.663  14.311 -0.2120 -0.3099 -0.0429
19439W        W35700   4.999   4.637   3.233  0.0397 -0.3213 -0.0813
19440W        W35701  12.224  12.050   4.034 -0.1208  0.1908 -0.2196
19441W        W35702  13.739   7.714  13.502  0.1209 -0.0920  0.1215
19442W        W35703   9.001  13.964  16.202 -0.1156 -0.0322  0.0264
19443W        W35704  14.388   6.463   1.215  0.1517 -0.2069 -0.0647
19444W        W35705  15.913   1.086   3.772 -0.1725 -0.1152  0.1932
19445W        W35706   6.134  17.335   4.657  0.0051  0.1008 -0.3034
19446W        W35707  13.731  13.753   5.252  0.2437 -0.2201 -0.1600
19447W        W35708   7.763   9.056   3.603 -0.0209 -0.1550  0.1558
19448W        W35709   4.552   6.469   1.141  0.2147 -0.0881  0.0565
19449W        W35710   8.856   0.047  15.881  0.2172 -0.0716 -0.1350
19450W        W35711   9.833   7.285   0.533 -0.1076 -0.1836  0.2029
19451W        W35712   5.408  14.113  16.843 -0.1448 -0.0882  0.3124
19452W        W35713  16.495  12.746   1.387 -0.1985 -0.1143 -0.1604
19453W        W35714   8.872  14.041   2.335 -0.0356  0.1355  0.2723
19454W        W35715  14.838   4.066  12.076  0.1592  0.1931  0.2708
19455W        W35716   1.013   6.264   1.370 -0.0501 -0.0747  0.0964
19456W        W35717   8.017   3.359   4.554 -0.0965  0.1246 -0.0646
19457W        W35718   7.367  11.514   3.935 -0.0813 -0.1681  0.2892
19458W        W35719   1.353   1.416  11.734 -0.2039 -0.0404 -0.1121
19459W        W35720  15.019   2.227  15.650  0.0373  0.0761 -0.1711
19460W        W35721  15.191   3.047   3.029  0.2433  0.0304 -0.0137
19461W        W35722  15.852   7.131  15.755  0.1693  0.1502 -0.3546
19462W        W35723  15.068  13.963  11.549 -0.0360  0.1523 -0.0533
19463W        W35724  13.624  12.450  15.444 -0.0527 -0.0735 -0.2232
19464W        W35725  15.474   0.934  13.509 -0.0874  0.0764  0.1520
19465W        W35726   6.174   9.472   4.952 -0.3987 -0.0319 -0.3667
19466W        W35727  17.485  12.407   4.299 -0.1578 -0.0423  0.0820
19467W        W35728   4.575  11.261  15.871  0.0741 -0.1001 -0.1400
19468W        W35729   9.992   6.268  16.429 -0.1622  0.0523  0.3074
19469W        W35730  12.688  15.141  12.950 -0.1865  0.0814 -0.2464
19470W        W35731  11.161  15.730  14.358 -0.3705 -0.0152  0.1664
19471W        W35732   2.071   5.144   4.291  0.1026  0.1743 -0.3354
19472W        W35733  17.344   1.760  11.754  0.2218 -0.3191 -0.1822
19473W        W35734  17.162   1.889   6.358 -0.1071 -0.0963 -0.0426
19474W        W35735  15.344  16.151  12.833  0.0301 -0.2696 -0.1217
19475W        W35736  13.216   0.006   5.673 -0.1040  0.1713 -0.2338
19476W        W35737   2.289   0.519   2.577 -0.1098 -0.2693 -0.1056
19477W        W35738   6.176  11.357  12.281 -0.1898  0.2347 -0.0113
19478W        W35739  11.018   4.842   0.499 -0.0755 -0.1255  0.0954
19479W        W35740  14.717  13.116   4.600  0.0476  0.0500 -0.1387
19480W        W35741  12.539   6.609   2.238 -0.2710  0.1189 -0.2700
19481W        W35742  13.194  14.386  15.912  0.0054 -0.3326  0.0072
19482W        W35743   1.084  16.094   1.115  0.2298  0.3638 -0.0117
19483W        W35744  12.219   1.089   0.871  0.2295  0.1364  0.0021
19484W        W35745  16.242  10.305   2.054 -0.3596 -0.0595  0.0899
19485W        W35746   7.371   9.913  14.815  0.0564 -0.1497 -0.3472
19486W        W35747   9.943   1.351  12.409 -0.2384 -0.0693 -0.1465
19487W        W35748   1.885   8.194   1.477 -0.0930  0.0168  0.2864
19488W        W35749  11.422   9.825  12.789 -0.1407 -0.1658 -0.0025
19489W        W35750   5.841   0.080   2.725  0.0709  0.1006  0.2264
19490W        W35751  10.216  12.479   3.849  0.1220  0.0830 -0.0663
19491W        W35752   3.334  10.717   5.262 -0.0031 -0.2469  0.1492
19492W        W35753   5.067  14.381  15.376 -0.1187  0.0152  0.0739
19493W        W35754   5.452   5.927   5.735  0.0001 -0.3901 -0.0455
19494W        W35755   9.100  12.816   0.380 -0.0227 -0.3387 -0.0051
19495W        W35756   4.448  13.837   5.213  0.0314 -0.2754 -0.1853
19496W        W35757   3.128  14.909  13.767  0.2806 -0.0763 -0.1250
19497W        W35758  16.744  11.816   1.229  0.1348 -0.1724 -0.0539
19498W        W35759   4.024  17.089   2.726  0.0420 -0.3771  0.2548
19499W        W35760   2.931   4.798   1.248  0.0377 -0.0412  0.2243
19500W        W35761   3.921   7.755  14.253  0.1639 -0.0336 -0.2538
19501W        W35762  10.787   2.987   0.524 -0.2819 -0.0073  0.0159
19502W        W35763   6.347  12.434  13.601  0.0122  0.1111 -0.3364
19503W        W35764  14.353  13.979   4.718 -0.0955 -0.1081  0.0111
19504W        W35765   6.478   0.797   0.810 -0.0739 -0.2685 -0.0281
19505W        W35766   5.956  11.623  13.232  0.0730  0.0856 -0.1569
19506W        W35767   9.964  10.219  15.904 -0.1639 -0.1224  0.0294
19507W        W35768   5.494  11.447   4.991 -0.2358 -0.0238  0.0429
19508W        W35769   3.681  10.257   2.498  0.1936  0.2617  0.0436
19509W        W35770  14.316  17.726   4.110  0.0760  0.1881 -0.0199
19510W        W35771   9.539   3.449   3.534  0.2430  0.1936 -0.0425
19511W        W35772  10.573  10.708  16.954 -0.1477 -0.0542 -0.0266
19512W        W35773  16.774   1.304   4.812  0.1145 -0.1418 -0.0159
19513W        W35774   9.223  16.979  13.413  0.1519 -0.1710 -0.1153
19514W        W35775   7.419  15.173  14.381 -0.2770  0.0116 -0.0301
19515W        W35776  12.089  14.736   3.030  0.2624 -0.4117  0.0333
19516W        W35777   5.302   9.842  16.268  0.0148 -0.0221  0.0456
19517W        W35778   9.166  10.140   2.749  0.0019  0.1330  0.3910
19518W        W35779   6.997   3.354  15.872 -0.4087  0.2666 -0.2296
19519W        W35780  11.705   0.164   0.609  0.0452  0.0202  0.0298
19520W        W35781  17.665   7.241   4.152 -0.3409  0.0056  0.3237
19521W        W35782   7.359   3.578   0.848 -0.2079  0.2223 -0.3953
19522W        W35783  17.708   7.017   2.513 -0.1449 -0.0207  0.1062
19523W        W35784   9.988   5.634  11.411 -0.0859 -0.1322  0.1395
19524W        W35785   2.357   0.237   0.688  0.0313  0.1587  0.1452
19525W        W35786  14.407   5.520  16.560  0.1452 -0.0765 -0.0462
19526W        W35787   6.711  17.259  13.561  0.2636 -0.2407  0.4342
19527W        W35788  13.616  11.491   5.467  0.1720 -0.0407  0.0770
19528W        W35789  17.137   4.137  11.632  0.0387  0.2055 -0.0980
19529W        W35790  14.747  15.291  13.579 -0.2074 -0.3729 -0.1053
19530W        W35791   0.016  12.253   2.727  0.0339  0.2709  0.1808
19531W        W35792   8.779  13.425   2.219  0.2211 -0.3424  0.1827
19532W        W35793  12.447   8.994   6.661  0.0940 -0.2363 -0.3335
19533W        W35794  13.158   7.199  13.880  0.2584 -0.0024  0.1542
19534W        W35795  14.039   5.702   3.076 -0.4979  0.0009  0.2648
19535W        W35796  15.067   8.945  13.465 -0.1114 -0.0778  0.3991
19536W        W35797   0.064   6.709  16.904  0.0063 -0.1602  0.2141
19537W        W35798   0.926  11.711   0.603 -0.1702 -0.0835 -0.2232
19538W        W35799  14.614   7.557  12.520 -0.1592 -0.1124 -0.1092
19539W        W35800   2.193   4.230   1.431  0.0310 -0.1652 -0.0641
19540W        W35801   4.873  16.834  16.168  0.1880  0.0435 -0.0227
19541W        W35802   1.975  10.027  12.503 -0.1522  0.0363 -0.0204
19542W        W35803  11.735  12.412   3.987  0.0887  0.1642 -0.1009
19543W        W35804  12.356  14.381   4.740  0.1870  0.1910 -0.0438
19544W        W35805  17.768  12.832  12.028 -0.0377  0.1219 -0.0726
19545W        W35806   0.741   9.930  12.707 -0.0738 -0.0446  0.0854
19546W        W35807   0.686   9.337   0.165 -0.0638 -0.1029 -0.1644
19547W        W35808   7.654   9.286   4.487  0.1270  0.0086 -0.4153
19548W        W35809   1.095   0.751  15.286  0.2661  0.0835  0.3496
19549W        W35810   9.017   3.114  11.783 -0.2974 -0.1547 -0.2857
19550W        W35811   3.853   4.481  13.947  0.0707 -0.2565 -0.0376
19551W        W35812  15.496  13.826   0.938 -0.1337  0.2411  0.1069
19552W        W35813   7.090   2.405   2.238  0.0810  0.0690 -0.0433
19553W        W35814  13.155  14.382   1.008  0.2584  0.0260  0.0785
19554W        W35815  11.973   5.321  13.456 -0.1106  0.1021 -0.4168
19555W        W35816   6.933   7.999   5.007  0.1495 -0.2372 -0.0668
19556W        W35817   6.147   3.152   2.201  0.2800  0.2122  0.0544
19557W        W35818   1.569   5.427  13.630 -0.1612 -0.1458 -0.0272
19558W        W35819   3.103   2.405   5.904 -0.1627 -0.0183  0.2586
19559W        W35820  17.506   9.060   5.293 -0.1323 -0.1074  0.3527
19560W        W35821  17.236  14.603  16.516 -0.0033  0.1042 -0.1901
19561W        W35822   7.718  12.308   6.546  0.0836 -0.0017  0.1299
19562W        W35823  13.570   4.702  16.081 -0.0184  0.0364  0.0206
19563W        W35824  13.422   5.551  16.188  0.1381 -0.2064  0.1705
19564W        W35825  14.262  11.336   1.712 -0.3374 -0.3893  0.0650
19565W        W35826   5.546   4.466   0.717 -0.1412 -0.3894 -0.1408
19566W        W35827   9.308  12.349  13.425 -0.0162  0.0965 -0.0136
19567W        W35828   9.335  14.903   2.393  0.4281 -0.0933 -0.3866
19568W        W35829   8.758  13.754   6.113 -0.2888  0.1713  0.3384
19569W        W35830  12.194   7.699   4.868  0.0755  0.0191  0.2886
19570W        W35831   8.566   0.268  16.627 -0.0361  0.0815 -0.3014
19571W        W35832   1.623   7.225   0.143 -0.0257 -0.0699 -0.0318
19572W        W35833   7.605  10.268  11.862  0.1258  0.0007 -0.2971
19573W        W35834   8.778  16.670  13.300 -0.0526 -0.3844 -0.0355
19574W        W35835   2.580  10.689   0.887  0.3180  0.0361  0.1996
19575W        W35836   9.336  15.994  12.918 -0.1588  0.1665 -0.2374
19576W        W35837  16.102   0.590   1.185 -0.0196  0.2019 -0.1370
19577W        W35838  16.649  14.846  15.003 -0.0788 -0.0994 -0.0063
19578W        W35839  10.996   4.147   2.826 -0.0351  0.0850 -0.2580
19579W        W35840  12.189   1.292  16.568 -0.2092 -0.0816  0.1912
19580W        W35841   8.615  13.361  12.586  0.0064  0.0226  0.0118
19581W        W35842  14.050   7.377  16.614  0.1556  0.3137  0.0744
19582W        W35843   8.206   8.424   2.399 -0.1836 -0.0676 -0.2116
19583W        W35844   5.408   2.122   0.565 -0.0919  0.0681 -0.2613
19584W        W35845  11.486  14.849  15.758 -0.1218  0.1478  0.4025
19585W        W35846  10.924   9.708   6.296 -0.2082 -0.1807  0.0999
19586W        W35847   9.284  13.723   2.993  0.1227 -0.0376 -0.3749
19587W        W35848   5.708  11.956  16.484  0.0404  0.0523  0.2484
19588W        W35849  10.704   3.096  12.974  0.2668 -0.1915  0.1581
19589W        W35850  14.996  16.139   2.799 -0.3273 -0.2303 -0.0445
19590W        W35851  13.331   8.880  11.853 -0.1644 -0.0352  0.2520
19591W        W35852  17.001  12.402   2.107  0.0959  0.0962  0.1346
19592W        W35853   1.488  15.612  13.292 -0.1110 -0.1273 -0.0792
19593W        W35854  12.243   2.828   1.907 -0.0250 -0.2561 -0.1292
19594W        W35855  16.046  10.633   4.348 -0.2484  0.0252  0.2638
19595W        W35856  16.080   7.525  16.504  0.1756 -0.4227 -0.0439
19596W        W35857  15.279   0.719   5.743  0.0848  0.0511 -0.3038
19597W        W35858  12.694   2.508  14.549 -0.0957 -0.1571  0.0957
19598W        W35859   4.995   7.115  16.674 -0.1863 -0.2197 -0.1523
19599W        W35860  11.087  16.533  12.683  0.2226 -0.0405  0.1207
19600W        W35861  17.686  16.832  16.985 -0.0789  0.3071 -0.0280
19601W        W35862   3.247   3.334   4.414  0.3605 -0.1017 -0.1157
19602W        W35863  10.330  15.670   5.041  0.0924 -0.0938  0.1107
19603W        W35864   1.924  12.299  14.997 -0.2254  0.2680  0.0325
19604W        W35865  13.850  14.948  16.244  0.1274 -0.0872 -0.2343
19605W        W35866   8.274   8.135  12.048  0.0375  0.1583 -0.1482
19606W        W35867  14.267  14.962   3.121  0.1379 -0.0485 -0.0013
19607W        W35868  11.279  11.474  13.036  0.0191 -0.4161 -0.1741
19608W        W35869   0.494  16.854   1.625 -0.0694  0.1139 -0.0756
19609W        W35870  16.830   1.668  14.592  0.2583 -0.2542 -0.1501
19610W        W35871   9.724   4.996   0.813 -0.3450  0.3294 -0.0211
19611W        W35872   9.063   8.105  16.237 -0.0872 -0.1109 -0.1228
19612W        W35873  10.078   5.002  12.871  0.3638  0.2849 -0.3562
19613W        W35874   5.210  14.158   1.683 -0.2554 -0.0097 -0.0751
19614W        W35875  13.751   6.269  15.211 -0.0131 -0.0806  0.0739
19615W        W35876   4.226   6.003   1.128  0.0088 -0.1572 -0.0181
19616W        W35877   0.362   3.040  13.132  0.1673  0.1101 -0.2387
19617W        W35878  13.015  15.722   0.483  0.1325  0.1376  0.2807
19618W        W35879  11.140  17.609   1.234  0.2004 -0.3204 -0.1975
19619W        W35880  13.287  13.736  13.992 -0.3241 -0.0348 -0.0309
19620W        W35881  13.291  16.539   0.505 -0.1069  0.1320  0.2127
19621W        W35882  15.687   1.291  14.636  0.2233  0.0549  0.2670
19622W        W35883  14.171  14.844  14.569  0.0749  0.1353 -0.0836
19623W        W35884  10.192  13.078  14.316 -0.0666 -0.1033 -0.0075
19624W        W35885  14.161  11.939   5.644 -0.0042  0.0347  0.0924
19625W        W35886   8.923   4.324  12.191  0.3102  0.3101  0.0861
19626W        W35887   1.894   0.092   1.635 -0.2528 -0.1823  0.1853
19627W        W35888   8.043   2.867   0.850 -0.0946 -0.1071  0.0867
19628W        W35889   8.090  16.404  13.330 -0.2150 -0.2268 -0.0969
19629W        W35890   6.892  14.846  12.376 -0.0414  0.1353 -0.1230
19630W        W35891  12.191   4.223  16.878  0.1830  0.1957 -0.1837
19631W        W35892   1.322   7.829   3.346  0.1428  0.0848 -0.1781
19632W        W35893  10.822   6.135   0.927 -0.0117  0.1415  0.0188
19633W        W35894   0.608   9.140   3.008 -0.1359 -0.1088 -0.1086
19634W        W35895  13.560  10.631  16.757 -0.0528  0.1808  0.0028
19635W        W35896   0.832   5.099  16.174  0.0883 -0.2729 -0.0381
19636W        W35897   0.515   0.236   4.618  0.3388  0.0649 -0.5239
19637W        W35898  13.707   4.167   4.236 -0.0686 -0.0122  0.1427
19638W        W35899   1.467   8.559  15.691 -0.0180  0.0274 -0.0476
19639W        W35900   7.814   9.109   2.734  0.0737 -0.0593 -0.0986
19640W        W35901   0.836   1.221  13.146 -0.1436 -0.0431  0.2315
19641W        W35902   5.018   5.542  12.164 -0.0865  0.2690  0.0247
19642W        W35903   6.817   4.312   1.246 -0.3886  0.0601 -0.1524
19643W        W35904   2.361  16.694  14.593  0.0402 -0.0441  0.2600
19644W        W35905  11.790  12.683   3.500 -0.0836 -0.1850 -0.0709
19645W        W35906  14.194   2.616   5.770  0.1394  0.0279  0.3900
19646W        W35907  15.833  14.828   2.371 -0.0321  0.0119  0.1118
19647W        W35908  14.019   8.588   0.829 -0.0711  0.1777 -0.1881
19648W        W35909   8.857   7.469   0.957  0.0834 -0.2085  0.1939
19649W        W35910  10.725   3.560   3.746  0.1757  0.1800 -0.1437
19650W        W35911   9.157   7.553  16.349 -0.0863 -0.1171 -0.2635
19651W        W35912  15.988  17.543   0.874  0.0027 -0.0050 -0.2355
19652W        W35913  11.044  16.641  13.298  0.1326  0.3659  0.0527
19653W        W35914  11.650  13.795   1.925  0.0091 -0.2099 -0.2257
19654W        W35915   6.138  14.364   0.356 -0.1493  0.2455 -0.0780
19655W        W35916   5.236  17.797  12.672  0.1413 -0.1870 -0.1110
19656W        W35917   6.856  15.719   5.638 -0.2109 -0.4494 -0.0816
19657W        W35918  17.667  14.076  16.101 -0.3311 -0.0425  0.1047
19658W        W35919   0.974   4.282   4.435  0.2646  0.0915 -0.4201
19659W        W35920  15.950  17.006   1.591  0.0623  0.0516 -0.0445
19660W        W35921   1.815  15.123   1.311  0.2762 -0.2542 -0.1548
19661W        W35922   8.535   8.160  16.274 -0.1029 -0.0290 -0.0098
19662W        W35923  11.609  12.306  16.482  0.0673 -0.0447  0.0249
19663W        W35924  16.882   7.494   1.306  0.1484  0.3024 -0.1738
19664W        W35925   8.653   0.728  12.075  0.0171 -0.2212  0.4279
19665W        W35926   2.048  16.743   3.803  0.1006 -0.3532 -0.0338
19666W        W35927   0.707   1.511   5.134 -0.0305  0.3305 -0.0612
19667W        W35928  13.061   3.711   5.486 -0.1511 -0.1574 -0.1287
19668W        W35929  14.073   1.537   4.093 -0.1767  0.3376  0.1246
19669W        W35930  11.239   9.690  15.110 -0.3759 -0.1151 -0.1319
19670W        W35931   2.521  16.452   3.381 -0.1313 -0.0540  0.1750
19671W        W35932  12.360   8.058  12.511  0.3557  0.1598 -0.1650
19672W        W35933  15.728   1.743   3.377  0.2049 -0.0387 -0.1486
19673W        W35934  17.743   3.754   2.462 -0.1565  0.0547 -0.0395
19674W        W35935  16.779  11.006   0.764 -0.0145 -0.1785  0.1908
19675W        W35936   7.460   6.213  16.896 -0.1461 -0.0440  0.1186
19676W        W35937  12.742  15.359   6.312  0.0318  0.1045 -0.2316
19677W        W35938  12.529   1.453  11.618  0.2378 -0.1400 -0.0411
19678W        W35939  15.650   5.913   1.633  0.0835 -0.0226 -0.2949
19679W        W35940  16.478   2.652  16.196  0.1410 -0.1072  0.2487
19680W        W35941   4.888   6.812  12.695 -0.0612  0.0335  0.0480
19681W        W35942  15.588  15.627   4.980  0.1756 -0.0331 -0.1226
19682W        W35943   1.004   0.349  12.188  0.1291  0.1240 -0.0460
19683W        W35944  13.015   1.213  15.980  0.2799  0.0255 -0.0482
19684W        W35945   5.052  14.168   3.058 -0.0690  0.0214  0.1084
19685W        W35946   3.804   8.698   1.013  0.0468  0.1050  0.0394
19686W        W35947   6.742  10.663  15.611 -0.0361 -0.2620 -0.0314
19687W        W35948   3.183   2.746   1.891  0.2626  0.0420 -0.1351
19688W        W35949   6.815  12.416  15.177 -0.1335  0.0575  0.1256
19689W        W35950   1.734  11.968  12.914 -0.2213  0.0442 -0.1187
19690W        W35951   0.263  14.156  11.133  0.0676  0.2628  0.0962
19691W        W35952   0.951   7.469   5.765  0.0199  0.0989  0.0468
19692W        W35953   0.730  14.518  11.909 -0.1375 -0.0342 -0.0843
19693W        W35954   6.298   9.483  16.974  0.0444 -0.4154  0.0261
19694W        W35955  10.514  17.736   0.452 -0.2968  0.1705 -0.1267
19695W        W35956  13.198  15.139   4.551  0.1965  0.1887  0.0583
19696W        W35957  12.408   4.584  13.614  0.2504 -0.1022  0.0007
19697W        W35958  10.952   7.499   2.419  0.3224  0.1542  0.0495
19698W        W35959  13.941  17.031   3.113 -0.1641  0.2153 -0.0664
19699W        W35960   1.207   3.336   0.717  0.0092  0.0085  0.3136
19700W        W35961  15.463   2.666  12.808 -0.1149  0.2031  0.1366
19701W        W35962   0.954  15.776   5.450  0.0555  0.2302 -0.1086
19702W        W35963   6.616   1.661   4.390 -0.2444  0.1279  0.1139
19703W        W35964   8.082   6.409  15.167 -0.0529 -0.0002 -0.0650
19704W        W35965   7.100   0.148   3.044  0.1855  0.1154  0.4628
19705W        W35966   8.790   0.617  15.720 -0.3729 -0.1747 -0.1250
19706W        W35967  10.460  10.262  15.099  0.0290 -0.2061 -0.1764
19707W        W35968  11.982   4.648  11.575  0.3030 -0.0408 -0.2667
19708W        W35969  14.250  12.137   2.363  0.1741  0.1095 -0.2515
19709W        W35970   6.006   0.264  16.799 -0.1225 -0.4635 -0.0443
19710W        W35971  17.644  11.995  16.209  0.0720  0.1659  0.0118
19711W        W35972  15.723  10.613   2.037 -0.2432  0.2447  0.3093
19712W        W35973   7.883   5.143   2.169 -0.1894 -0.2323  0.0706
19713W        W35974   7.671   7.238   3.077  0.0837 -0.4781  0.1522
19714W        W35975   3.071  15.630   3.813 -0.1047  0.3080  0.0869
19715W        W35976  16.704   3.659   1.546  0.4267 -0.0346 -0.1949
19716W        W35977   0.810   5.662   5.518 -0.0560 -0.3437 -0.0256
19717W        W35978  15.478  14.963  16.042 -0.1249  0.0661 -0.0445
19718W        W35979   6.797   0.573  11.677 -0.4503  0.0868 -0.0360
19719W        W35980   4.244  15.838  15.545  0.0054 -0.1282 -0.0390
19720W        W35981  16.438  10.638   5.765 -0.1513  0.3507  0.1736
19721W        W35982  12.971   9.273   0.568 -0.0183 -0.1102  0.1704
19722W        W35983   2.030  13.461  11.857 -0.1443  0.0418  0.1466
19723W        W35984  10.940   9.302  12.081  0.1324 -0.2122 -0.0599
19724W        W35985   3.125  17.486  12.597  0.1600  0.1805 -0.1637
19725W        W35986   1.758   1.261  14.391  0.1224  0.1347 -0.3087
19726W        W35987   9.906   9.355   5.692 -0.2651 -0.1979  0.1072
19727W        W35988   6.544  17.515   2.459 -0.3699 -0.2627 -0.2083
19728W        W35989   2.776  14.259   4.068  0.2010 -0.0151 -0.0209
19729W        W35990  12.286   7.807   4.304 -0.0481 -0.1142  0.4436
19730W        W35991  14.912   1.091   3.773 -0.0458  0.0435 -0.0402
19731W        W35992   7.286  17.504  16.420  0.1965 -0.3984  0.2539
19732W        W35993   0.583  13.954   4.811  0.1677 -0.0417  0.1180
19733W        W35994   6.808   0.552   2.853  0.2323 -0.0743  0.0080
19734W        W35995  12.957  16.086  15.385 -0.3588  0.4434  0.0491
19735W        W35996  14.034   7.503  12.018 -0.0307  0.0213 -0.1861
19736W        W35997  14.504   6.221   0.300  0.1387  0.1938 -0.0380
19737W        W35998   5.292  16.747  15.771 -0.1375  0.1081  0.0894
19738W        W35999   9.995  11.939  13.260 -0.0468  0.1519 -0.3292
19739W        W36000  15.088  11.022  15.303 -0.0688  0.1009  0.0076
19740W        W36001  16.975  15.409  14.359  0.2370  0.1073  0.0178
19741W        W36002   8.824  12.910  12.785 -0.3295  0.0020  0.3009
19742W        W36003  10.418   6.180   0.565 -0.0142 -0.1072  0.0448
19743W        W36004   2.900  17.622  16.546 -0.0763  0.0180 -0.2394
19744W        W36005  14.456   9.857   4.538  0.1259 -0.3221 -0.2066
19745W        W36006   1.283  11.633   3.156 -0.0425 -0.1876 -0.0397
19746W        W36007   6.042  10.835  16.221  0.3247 -0.0038  0.0226
19747W        W36008  12.251  12.312  14.688 -0.2000  0.1460 -0.0544
19748W        W36009   3.610   7.336   0.373 -0.0939  0.2153  0.0223
19749W        W36010   0.419   8.942  15.807  0.4488  0.3928 -0.0220
19750W        W36011  10.017   8.385  11.996  0.0237  0.1643 -0.1353
19751W        W36012   6.332  13.240  16.519  0.0583  0.2896 -0.0330
19752W        W36013  13.081   4.196   3.814  0.0489 -0.0976 -0.4830
19753W        W36014   4.096   1.565   5.960  0.0169 -0.3148 -0.3391
19754W        W36015   2.122   3.843   5.129 -0.1660 -0.3012  0.0891
19755W        W36016  14.549   6.843   1.509 -0.1467  0.2622 -0.1431
19756W        W36017   0.146   4.494  11.787 -0.0995 -0.3987 -0.2211
19757W        W36018   1.199   7.061  14.841 -0.1558 -0.3337  0.1724
19758W        W36019   7.495  13.204  13.639 -0.0235 -0.0675  0.2969
19759W        W36020   2.110  11.793  12.633 -0.1635 -0.0689  0.0194
19760W        W36021   5.666   4.501   6.338  0.2987 -0.0159 -0.3441
19761W        W36022   4.212  13.337   1.260 -0.1904  0.2497  0.0457
19762W        W36023   4.779   4.877   0.637  0.0617  0.3706 -0.0183
19763W        W36024  12.415   3.721  13.644 -0.0279  0.2890  0.4382
19764W        W36025   2.000   9.710   0.057  0.0347  0.1791  0.0964
19765W        W36026  11.123   2.024  15.743 -0.0955 -0.5591  0.1117
19766W        W36027  11.140   7.028   0.421  0.1086 -0.0311 -0.2192
19767W        W36028   6.684  17.177  15.819 -0.1184 -0.3937  0.2785
19768W        W36029   8.749   6.025  16.260 -0.1712 -0.0764 -0.3112
19769W        W36030   3.796   2.190  16.877  0.1867  0.2289  0.1138
19770W        W36031  15.242   5.096   4.600  0.1888  0.0078 -0.0175
19771W        W36032   1.583   2.592  16.778  0.0178  0.1702  0.1884
19772W        W36033   5.017   1.050   2.902 -0.2068  0.1607  0.0968
19773W        W36034   1.674  15.729  14.036 -0.1987 -0.0306  0.0622
19774W        W36035  17.085  15.708   4.494 -0.1035 -0.3738  0.0011
19775W        W36036   4.050  12.879   1.430  0.0458 -0.2775  0.2073
19776W        W36037   6.504   1.541   3.086  0.1298 -0.0382  0.0728
19777W        W36038  12.123  17.394  12.912  0.2503  0.0518  0.1974
19778W        W36039  17.740  13.446  14.430 -0.1754  0.1805 -0.0861
19779W        W36040   9.124   4.707  13.074  0.0614 -0.3177  0.0524
19780W        W36041  13.479   1.429   1.908 -0.1546 -0.1197 -0.1680
19781W        W36042   0.537   3.826   0.713 -0.1345 -0.2197 -0.2717
19782W        W36043   4.048   2.537   0.142  0.0588 -0.0878 -0.1459
19783W        W36044  11.111  13.324  15.495 -0.0080  0.3677  0.1102
19784W        W36045   1.397   4.643   5.080  0.1945 -0.2712  0.0550
19785W        W36046  17.062  12.632   5.364 -0.1955  0.2431 -0.0119
19786W        W36047  17.468  10.164   2.988  0.1504 -0.1929  0.4270
19787W        W36048   9.812   6.157   1.470 -0.0330 -0.1044  0.0480
19788W        W36049   9.304   6.139   5.241 -0.1504 -0.3778 -0.0118
19789W        W36050   3.007   4.320   5.204  0.1518  0.1570 -0.1011
19790W        W36051  14.045   9.216   2.835  0.0384  0.2091 -0.0608
19791W        W36052   6.212   8.198   3.768  0.1809 -0.0045 -0.3100
19792W        W36053   7.946   1.516  11.917 -0.2631  0.0120 -0.1762
19793W        W36054  15.336   2.504  14.998  0.3084 -0.1409  0.1720
19794W        W36055  10.933   3.510  16.629  0.0767  0.0712 -0.1241
19795W        W36056   3.675  10.942   6.401 -0.2779 -0.2254  0.3007
19796W        W36057   6.473  12.732  14.387  0.2053 -0.2965 -0.0597
19797W        W36058  11.557  12.415   0.383  0.1831  0.2214  0.1270
19798W        W36059  10.353   9.115   1.718 -0.2064  0.2644 -0.0252
19799W        W36060   8.478  12.674   1.607 -0.0445 -0.1293  0.1482
19800W        W36061   5.764  14.344   4.098 -0.0193 -0.1488 -0.2386
19801W        W36062  13.908   0.709   1.926  0.2081 -0.4678 -0.1887
19802W        W36063  16.731  13.038  13.899  0.0785 -0.1580 -0.1339
19803W        W36064   1.247  15.088  13.192  0.0391 -0.2562  0.1411
19804W        W36065  15.548  15.422   2.302  0.4369  0.0926  0.0842
19805W        W36066   2.858  11.433   5.377 -0.0958  0.1839 -0.1036
19806W        W36067  14.591   2.058  15.472  0.2057  0.0005 -0.0334
19807W        W36068   9.963   2.835  15.403 -0.0421  0.0624  0.1514
19808W        W36069  12.901  17.410  12.624 -0.1184 -0.0249 -0.0319
19809W        W36070   2.358   7.543   4.786 -0.1178  0.1551 -0.2197
19810W        W36071   8.663   8.305  16.765 -0.3057  0.1023  0.1831
19811W        W36072   3.608  13.243  16.260  0.1322  0.1614 -0.0777
19812W        W36073  11.034  15.601  15.352  0.1348 -0.1316  0.0523
19813W        W36074   8.391   2.437   4.776 -0.1400 -0.0291  0.0199
19814W        W36075  11.425  13.207   5.500  0.0002  0.2081 -0.2193
19815W        W36076  16.589  17.248   3.174 -0.1549 -0.0817  0.0573
19816W        W36077   5.495  10.456  16.301 -0.0359  0.1274  0.2093
19817W        W36078  10.418   0.903   1.790  0.0330  0.1688  0.4916
19818W        W36079  17.818   6.303  12.334  0.2849  0.0523  0.1729
19819W        W36080  16.504   3.218   0.490 -0.0015  0.4191 -0.1743
19820W        W36081   5.709  13.354  14.003  0.0729 -0.2342  0.1694
19821W        W36082  11.905   0.180   1.698  0.0546 -0.0516  0.2143
19822W        W36083  16.305  10.679  14.935 -0.1319 -0.0199 -0.1378
19823W        W36084   1.888  16.299  12.431 -0.0571 -0.0222  0.1525
19824W        W36085   7.336  10.911  14.403  0.0215 -0.3265 -0.2882
19825W        W36086  15.749  10.654   3.729  0.2888  0.2401 -0.1799
19826W        W36087  11.918  10.699   4.165  0.0575 -0.2398  0.0756
19827W        W36088   6.525   5.365   4.009  0.3081  0.1417  0.0385
19828W        W36089  10.609   6.792  16.674 -0.0369  0.1542 -0.3162
19829W        W36090  12.477   2.381   5.650  0.1363 -0.1704 -0.3642
19830W        W36091   4.799   3.068  14.144  0.1469 -0.1653 -0.1587
19831W        W36092   6.555  10.459  12.604 -0.1307 -0.0159  0.3903
19832W        W36093   1.048   4.882  15.740  0.0632  0.0058  0.0840
19833W        W36094  10.206  14.679  15.733 -0.0780 -0.3192 -0.2203
19834W        W36095   1.052   4.092   0.758 -0.0026  0.1514  0.1450
19835W        W36096  10.722   9.718   1.103 -0.3506 -0.2321 -0.1039
19836W        W36097  11.456  13.514   3.794  0.0997 -0.0921 -0.1625
19837W        W36098  16.227   0.218   3.519  0.1400  0.0754  0.1792
19838W        W36099   6.500   8.768  14.010  0.1300  0.0532  0.3088
19839W        W36100  12.068  17.014   3.629 -0.1090 -0.0876 -0.1506
19840W        W36101   6.867   8.714   0.061  0.2036  0.1244 -0.0425
19841W        W36102   4.354  11.860   5.805  0.0503 -0.0664 -0.3385
19842W        W36103   1.322   3.447  12.216  0.0384  0.0766  0.2002
19843W        W36104   4.050   6.525   0.030  0.3325 -0.0942 -0.2263
19844W        W36105   2.470   6.267  12.353 -0.0642 -0.2709 -0.2555
19845W        W36106   4.309   3.409   3.099 -0.2001 -0.0611  0.0510
19846W        W36107   3.884   8.141  15.291  0.4020 -0.2767  0.2735
19847W        W36108  14.794   9.813  13.321  0.2577  0.1717  0.0289
19848W        W36109   2.073  17.436   1.567  0.1735  0.0284 -0.0729
19849W        W36110  11.250   2.776  16.492 -0.1562  0.1002  0.0584
19850W        W36111   4.606   0.931   4.986  0.1698 -0.0328 -0.0680
19851W        W36112  13.105  15.292   5.959 -0.0252  0.1211  0.1024
19852W        W36113   4.388   2.583  15.080  0.1312  0.2572  0.0263
19853W        W36114   3.835  12.634  15.562 -0.1268 -0.0757  0.1740
19854W        W36115  17.800   0.923   4.777 -0.2873  0.4803  0.0463
19855W        W36116   0.505   5.312   2.689 -0.2813  0.0898  0.2330
19856W        W36117   7.560   3.558   4.222  0.2007  0.0365 -0.1077
19857W        W36118   6.532   9.856  14.747  0.0396 -0.0728 -0.1308
19858W        W36119  11.144   2.701   3.531  0.0655 -0.0246 -0.2026
19859W        W36120  12.576   8.712   6.246 -0.2601  0.0563  0.1695
19860W        W36121  14.532  14.350  12.506 -0.0839  0.3157  0.0498
19861W        W36122   0.796   2.564   4.431 -0.2005 -0.1607  0.0774
19862W        W36123   0.864   7.713   3.107 -0.1153  0.1396 -0.0764
19863W        W36124   1.305  12.673  14.533  0.0348 -0.2221 -0.4340
19864W        W36125   7.775   4.841   6.404 -0.3117  0.1118  0.0150
19865W        W36126  14.405  10.324  12.970 -0.0836  0.0616 -0.0982
19866W        W36127   5.381  16.362  13.600 -0.4772 -0.0137  0.0661
19867W        W36128   1.973   4.936   2.304 -0.0407  0.1335 -0.1251
19868W        W36129   4.480   7.265   3.252  0.1375 -0.0564 -0.1600
19869W        W36130   4.702   2.498  16.158  0.1759 -0.1059  0.1484
19870W        W36131  11.894  11.983  13.908 -0.0466  0.0943  0.1429
19871W        W36132   9.333  15.681  11.094  0.0122  0.2179 -0.1770
19872W        W36133  11.642  14.167  12.916  0.0648 -0.0330 -0.1272
19873W        W36134  14.572   2.619   6.186 -0.0019  0.0081  0.1266
19874W        W36135   1.817   2.601  12.053 -0.1790 -0.1693  0.0681
19875W        W36136  15.801   8.415  12.542 -0.0988 -0.2366 -0.1199
19876W        W36137  10.704   1.381  16.341 -0.0249  0.1549  0.2243
19877W        W36138   7.615   8.625  15.546 -0.1890 -0.0845 -0.0784
19878W        W36139   3.530  10.042  14.782  0.1883  0.2314 -0.0383
19879W        W36140   8.396   0.055   0.130  0.2218 -0.1090 -0.0627
19880W        W36141   9.003  13.373   4.394  0.1859 -0.1306  0.2518
19881W        W36142  13.852  11.346   1.473  0.3300 -0.0574  0.3922
19882W        W36143  16.309   8.249  14.197 -0.3589  0.0383  0.0793
19883W        W36144  11.869   6.018   5.431  0.0080 -0.0297  0.1188
19884W        W36145  14.079   3.565   3.851  0.2581 -0.1275 -0.0511
19885W        W36146  13.260   2.744  16.329 -0.1710 -0.1931  0.2940
19886W        W36147   7.066  10.570   5.325 -0.2106  0.3510  0.1335
19887W        W36148  15.933   9.797   1.661 -0.1099 -0.0969  0.0201
19888W        W36149   5.478  15.927  12.088  0.0558 -0.1724  0.0349
19889W        W36150   7.535  16.439   3.246  0.0781  0.1719 -0.2212
19890W        W36151  14.250   8.456   3.339 -0.0495 -0.2401  0.2247
19891W        W36152   0.619   1.844  16.045 -0.1079  0.0478 -0.0838
19892W        W36153  16.910  12.908  11.994 -0.1039  0.2988 -0.0461
19893W        W36154   0.216  10.465  13.514  0.0045 -0.0588 -0.1443
19894W        W36155  11.190  10.093  16.127  0.1891 -0.0947  0.1195
19895W        W36156   1.432   2.519   3.767  0.0116  0.2112 -0.3435
19896W        W36157  16.135   7.324   1.369  0.0474  0.1370  0.1001
19897W        W36158   2.310  14.644  16.941  0.3530  0.1702 -0.2593
19898W        W36159   5.983  11.231  15.836  0.0958  0.1008  0.0162
19899W        W36160  14.772  14.013   5.834  0.1287 -0.1254 -0.0776
19900W        W36161   9.870  12.011  14.510  0.0092  0.1897 -0.1508
19901W        W36162   0.593   6.047  16.471 -0.0929  0.3333  0.3159
19902W        W36163  13.994   6.256   3.892  0.1030 -0.3786  0.1915
19903W        W36164   3.638  10.654  14.053 -0.1217  0.2185  0.0855
19904W        W36165   1.649   9.913  14.716 -0.3551  0.0716  0.0561
19905W        W36166   4.838  13.079  15.739  0.2680 -0.0122 -0.2492
19906W        W36167  10.945  16.138  15.587 -0.2574 -0.1064 -0.0744
19907W        W36168   2.827   7.472   6.293 -0.1031  0.3756 -0.1349
19908W        W36169   5.588   8.345   4.815  0.3299  0.0817  0.3934
19909W        W36170  15.135   5.722   4.136  0.1401 -0.0587 -0.0269
19910W        W36171   6.577  17.779  12.570 -0.3859  0.1218 -0.1994
19911W        W36172   3.856  12.190  15.850 -0.0222  0.1229  0.4728
19912W        W36173   3.002  12.060   1.179 -0.0346  0.3316 -0.0019
19913W        W36174   1.518  12.859   4.833  0.1102  0.3846 -0.0435
19914W        W36175  10.338   2.949  16.878  0.2229  0.0500 -0.1051
19915W        W36176   0.320   9.043   0.421 -0.2038 -0.3004  0.0582
19916W        W36177   9.477  12.281  15.746 -0.1714  0.1639 -0.0115
19917W        W36178  12.052   8.541   2.115 -0.2685  0.1771  0.1018
19918W        W36179  17.660  16.067  14.065  0.1118 -0.1795 -0.0277
19919W        W36180   9.291   5.242  12.067 -0.1964  0.2414  0.0551
19920W        W36181   3.305   6.385  12.366  0.2589  0.0650 -0.1238
19921W        W36182  15.250   6.816  13.521 -0.1316  0.0495  0.2573
19922W        W36183   1.673   8.230   4.644 -0.0923 -0.1688  0.0770
19923W        W36184   0.917   9.689  15.756  0.0427 -0.0904 -0.0009
19924W        W36185  13.672   5.497   1.211 -0.3884  0.1978 -0.0176
19925W        W36186  14.384  12.808   1.971 -0.2447  0.4155  0.1217
19926W        W36187  17.501  13.500  13.013  0.1115 -0.3762 -0.1655
19927W        W36188  15.281   0.247   1.217 -0.0193 -0.0699  0.1140
19928W        W36189   7.205  17.016  11.492 -0.0739  0.0706  0.0400
19929W        W36190   3.750  10.038   2.890  0.0471 -0.0257  0.0527
19930W        W36191   6.455   5.526   5.434  0.0284 -0.0410 -0.1538
19931W        W36192  14.257  15.625   0.849 -0.0149  0.0475  0.1624
19932W        W36193  11.216   1.238  12.802  0.0059  0.0154 -0.0378
19933W        W36194   1.001   0.814   5.748 -0.2581  0.2781 -0.0903
19934W        W36195   4.607  11.847  14.480 -0.0282  0.3660 -0.2804
19935W        W36196  14.732   5.997  16.738  0.1784 -0.0131 -0.1045
19936W        W36197   6.419  16.055  13.189 -0.1131  0.5784  0.3557
19937W        W36198   4.906   0.685   4.535  0.0794  0.0976 -0.2798
19938W        W36199  10.913  15.647  13.401 -0.0411  0.3921  0.2592
19939W        W36200  14.415  12.527   5.308 -0.1284 -0.1609 -0.1884
19940W        W36201   4.456   8.256  15.961  0.0560  0.0116  0.2389
19941W        W36202   8.977  17.465   1.442  0.1583 -0.1690 -0.0312
19942W        W36203   8.022   4.936  14.922 -0.1198  0.1684 -0.1409
19943W        W36204   5.838  12.977   2.973 -0.2586 -0.1305  0.0515
19944W        W36205   4.400  12.599   4.674  0.0834 -0.1306 -0.1218
19945W        W36206   6.371   2.628  13.296  0.2422  0.0443 -0.1365
19946W        W36207  10.644  15.862   5.974 -0.0392  0.4657 -0.2072
19947W        W36208  12.497   7.177   2.261  0.0316 -0.0335 -0.1205
19948W        W36209  15.217   7.797  16.827  0.0223 -0.2804  0.0090
19949W        W36210  17.682  16.853   3.488 -0.2057 -0.1547  0.0352
19950W        W36211   9.015   7.367   2.614  0.1146 -0.1690  0.3650
19951W        W36212  11.703   6.290  14.100 -0.1044  0.1800  0.0832
19952W        W36213  12.508  16.481   5.489  0.0126 -0.1562  0.0309
19953W        W36214   4.126  11.806   6.283 -0.1545 -0.2783  0.2207
19954W        W36215   6.839  16.725   5.018 -0.2596  0.1133 -0.0859
19955W        W36216   3.531  10.689  13.566  0.1439  0.1396  0.0366
19956W        W36217  11.807  11.093   5.366  0.2018  0.0470  0.0102
19957W        W36218   8.337   1.563  12.211  0.1295  0.0720 -0.0989
19958W        W36219   2.547   7.220  16.716  0.2661  0.0641  0.1631
19959W        W36220  16.295   4.581   2.943  0.1426  0.0607 -0.3429
19960W        W36221  11.766   3.237   4.602  0.2079 -0.1011  0.0826
19961W        W36222  15.381   9.311  13.620 -0.1509 -0.0086  0.1276
19962W        W36223   8.555  15.473   5.184  0.1615  0.0244 -0.3098
19963W        W36224   1.893   9.728  16.107  0.1776 -0.0512 -0.0823
19964W        W36225  17.746   1.396   2.794  0.4053  0.0406  0.0644
19965W        W36226   9.337   9.610  13.298 -0.1580  0.0407  0.0058
19966W        W36227  15.436  11.566  14.364  0.0722  0.0227  0.0472
19967W        W36228   1.223   7.528  14.911 -0.0368  0.0195 -0.1411
19968W        W36229   0.387   5.446  13.765  0.1518 -0.0488  0.0111
19969W        W36230  13.187  16.098   2.318  0.1857 -0.2795  0.0170
19970W        W36231  12.410   4.261  15.906  0.3226 -0.2716  0.1311
19971W        W36232   4.577   1.652  11.646 -0.1216 -0.0599 -0.1613
19972W        W36233  12.603  16.911  14.319  0.3567  0.2814 -0.0331
19973W        W36234   2.684   4.190   4.215  0.3348  0.0776  0.1625
19974W        W36235   1.302  11.347   4.854  0.0925 -0.1092  0.1286
19975W        W36236  10.081  12.759  16.396 -0.0541  0.2006 -0.0990
19976W        W36237   1.153   2.147  13.621 -0.0912  0.2288 -0.3962
19977W        W36238  14.001   3.408   0.365  0.1227 -0.1591  0.1940
19978W        W36239   3.970   5.895  12.709 -0.0312  0.0244 -0.0976
19979W        W36240   2.675   9.575  14.088  0.0389  0.2022  0.2924
19980W        W36241   0.549   4.033  15.333  0.2610 -0.2631  0.2482
19981W        W36242   5.436   5.334  13.769 -0.4040  0.0057  0.1366
19982W        W36243   1.471   6.280  15.608  0.4373  0.1412  0.0764
19983W        W36244   0.606  14.281   1.151 -0.2787  0.4006 -0.0704
19984W        W36245  13.285  15.133   0.500 -0.4698  0.1116 -0.0375
19985W        W36246   6.854  10.850  12.748  0.1196 -0.2996 -0.1643
19986W        W36247  16.670   8.052   0.984 -0.1439 -0.1960 -0.3274
19987W        W36248  14.302   5.517   4.016  0.2337  0.4148  0.1622
19988W        W36249   3.717  10.832  15.057  0.0969 -0.2503 -0.0227
19989W        W36250  12.758  11.541  12.143  0.1541 -0.2129 -0.1075
19990W        W36251  16.182  14.551  12.325  0.1962 -0.5362 -0.1903
19991W        W36252   1.545  16.871  15.153  0.0827  0.1439 -0.0431
19992W        W36253   1.938  14.278  14.189  0.2454 -0.1596  0.2664
19993W        W36254  11.808   5.424  13.941  0.0359 -0.0814  0.1485
19994W        W36255   1.972   0.262   1.062  0.0221  0.3963 -0.0044
19995W        W36256  10.029  13.421  14.780 -0.1250  0.0397  0.1453
19996W        W36257  10.987  15.634   5.566  0.1459 -0.0905 -0.1072
19997W        W36258   1.738  12.703  14.855  0.0770  0.0031 -0.2078
19998W        W36259  12.882   9.116  13.156 -0.1955 -0.1910  0.3619
19999W        W36260  14.221  16.252   4.367 -0.0060 -0.0779  0.2069
20000W        W36261  17.615   0.367  15.123  0.1087  0.2010  0.2050
20001W        W36262   9.159   3.639   1.813  0.2762 -0.0808  0.0977
20002W        W36263  12.255  12.750   0.675 -0.0373  0.0261 -0.0170
20003W        W36264  13.290  12.352   4.334 -0.2235 -0.2592  0.0564
20004W        W36265  16.589   5.098   2.975 -0.0686 -0.0600 -0.0288
20005W        W36266   8.430   3.523   2.309  0.0347 -0.0951 -0.1224
20006W        W36267  17.049   7.837  13.306 -0.0185  0.1236 -0.2820
20007W        W36268  16.228  10.652  12.961  0.0575  0.3804  0.2397
20008W        W36269  11.900  13.099   2.740  0.0239  0.0413 -0.1797
20009W        W36270  10.412   1.274   0.939  0.0105 -0.0617 -0.0420
20010W        W36271  10.845   0.378   4.691 -0.3076 -0.0056 -0.1383
20011W        W36272   6.889  17.622   5.179 -0.0165  0.1329 -0.2345
20012W        W36273   4.337  15.431   4.570  0.1005 -0.1369 -0.1556
20013W        W36274   6.214  13.211  14.009  0.0194  0.2064 -0.3410
20014W        W36275   0.577  10.230  13.187  0.1199 -0.1469  0.2073
20015W        W36276  10.631  15.685   2.425 -0.1768 -0.1181  0.0496
20016W        W36277  15.158  13.069  13.342 -0.0105  0.2251  0.3295
20017W        W36278  14.326  10.775   2.308  0.1232  0.0100  0.0872
20018W        W36279   1.622   8.171   3.082 -0.3677  0.4348  0.0989
20019W        W36280  14.290   0.396   2.713 -0.1200  0.1689  0.2348
20020W        W36281   6.384  10.261   1.365 -0.2520  0.0557  0.0161
20021W        W36282  13.780   3.537   1.509 -0.1531  0.2566 -0.2260
20022W        W36283   2.710  11.246   0.666 -0.2063  0.5834 -0.1413
20023W        W36284  11.332  11.505  11.542 -0.0393 -0.0339 -0.2065
20024W        W36285   5.516  11.011   0.071 -0.3566  0.1600 -0.1578
20025W        W36286  13.931  12.038  14.709  0.2906 -0.1389 -0.4376
20026W        W36287   2.115   5.534  12.503 -0.1331 -0.1778  0.0917
20027W        W36288  12.100   7.161  16.585  0.2422 -0.0408 -0.0534
20028W        W36289  10.316  15.083  12.535  0.2899  0.3458 -0.0582
20029W        W36290  17.153   4.863  16.084  0.1311  0.1793 -0.1412
20030W        W36291   3.747   8.298   3.662 -0.2154  0.0936  0.2244
20031W        W36292   2.631   5.863   5.795  0.3019  0.0500 -0.3448
20032W        W36293   2.403  17.658  11.343 -0.2261 -0.1132  0.3409
20033W        W36294   4.468  11.429   2.562  0.2019 -0.0119 -0.0599
20034W        W36295  14.043   5.056   0.698  0.0739 -0.2611 -0.0075
20035W        W36296   8.107  12.829  11.646 -0.3451  0.0503  0.2186
20036W        W36297   3.435   4.272  13.925 -0.0313 -0.0330  0.0423
20037W        W36298  10.832   0.110   5.121 -0.0107  0.2853  0.2831
20038W        W36299  14.920   6.875  16.777 -0.2320 -0.2015 -0.1536
20039W        W36300  15.735   8.166   4.896 -0.2333 -0.2795  0.1020
20040W        W36301   5.815  11.047  12.463  0.1300  0.1291  0.1908
20041W        W36302   7.545  15.384  12.570 -0.1285  0.2121  0.2881
20042W        W36303  14.066  16.642   1.702 -0.2860  0.0719  0.3891
20043W        W36304   1.474   7.485   3.025 -0.0122 -0.2816  0.0177
20044W        W36305  17.636  16.351   1.778  0.1505 -0.0783  0.3308
20045W        W36306  10.700  16.409   3.908  0.0749 -0.0483 -0.0806
20046W        W36307   9.548   7.590  15.932  0.1018 -0.1321  0.0648
20047W        W36308  14.311   0.901   5.194 -0.0300 -0.1548  0.2795
20048W        W36309   4.635  16.239  16.575 -0.0346  0.3814  0.0732
20049W        W36310  15.631   2.438   5.998 -0.1374 -0.1042  0.1086
20050W        W36311  14.028  15.510   5.142 -0.2182  0.0849 -0.1637
20051W        W36312   3.309  13.897   3.153  0.2865  0.3470 -0.0359
20052W        W36313  15.707  13.472  16.874 -0.3566 -0.0701  0.0380
20053W        W36314   6.287  10.513  13.879 -0.0250 -0.1083  0.1629
20054W        W36315   5.676  14.078   2.063  0.2360 -0.1191 -0.2348
20055W        W36316   7.049  17.097  12.588 -0.1664 -0.0716  0.2284
20056W        W36317   0.485  15.087  13.945  0.1740  0.0214  0.1903
20057W        W36318   0.082   5.199   1.658  0.0144  0.0469  0.2776
20058W        W36319   6.371  12.098   0.215  0.5125 -0.1612  0.3332
20059W        W36320  14.124  12.677  15.832 -0.2597 -0.0925 -0.4732
20060W        W36321  16.933  14.389   1.927  0.0125  0.0606 -0.0989
20061W        W36322  10.974  11.689   1.446 -0.3187 -0.2130 -0.0596
20062W        W36323  12.702   2.906   0.553 -0.0694 -0.2546 -0.2181
20063W        W36324  13.302   5.339   4.436 -0.0888  0.3047 -0.2258
20064W        W36325   2.953  15.761   3.169 -0.2127 -0.1955  0.2607
20065W        W36326  16.153  16.200  13.263 -0.1701 -0.1950  0.2667
20066W        W36327   3.438   1.303  14.561  0.1495 -0.0957  0.2910
20067W        W36328  11.336  12.616   3.686 -0.1612  0.0945  0.2382
20068W        W36329   2.236   6.833   1.836  0.1003 -0.3850 -0.1240
20069W        W36330  16.647   4.103  14.597 -0.2601 -0.1759  0.0270
20070W        W36331   9.306  16.907   2.781  0.0919  0.0600  0.0946
20071W        W36332   4.774   8.028  16.815 -0.4887 -0.1511 -0.0849
20072W        W36333  12.234  12.786   5.683  0.0523 -0.0891 -0.0581
20073W        W36334  13.830   2.252   0.754  0.1767 -0.0889  0.1729
20074W        W36335  12.162   4.213  13.324 -0.0385 -0.0538 -0.1671
20075W        W36336   6.883   3.091  14.967 -0.4199  0.3034  0.3316
20076W        W36337   1.691  14.212   2.220  0.0189  0.0547 -0.2848
20077W        W36338   1.683   9.639  12.344  0.1420  0.1378 -0.0701
20078W        W36339   0.205   8.974  16.373  0.0797  0.2217  0.2590
20079W        W36340   5.291   1.911  14.051 -0.0008 -0.1537 -0.2001
20080W        W36341  13.524   7.010   4.995  0.0468 -0.0236 -0.1333
20081W        W36342  11.567   7.697   3.912  0.0184 -0.2249  0.1738
20082W        W36343  10.648  15.138  14.564 -0.1409 -0.3104  0.1016
20083W        W36344  16.547   7.631   2.205  0.3340 -0.0694 -0.0257
20084W        W36345  15.552   9.237   2.346 -0.0111  0.3211  0.0533
20085W        W36346  12.151   6.047   3.816 -0.2593  0.2132  0.0625
20086W        W36347   9.710   1.844   3.679  0.2866 -0.0869 -0.0568
20087W        W36348   5.293  16.246  14.964 -0.0228  0.0187  0.1421
20088W        W36349   0.268  12.912   2.071  0.1251 -0.2457 -0.1141
20089W        W36350  17.644   4.621  12.174  0.0564  0.2172 -0.0807
20090W        W36351   6.965  15.387   2.967 -0.1259  0.3232  0.2269
20091W        W36352  11.229  11.585   4.591  0.3146  0.1289 -0.0142
20092W        W36353   4.702  17.469   3.472 -0.0785 -0.1220 -0.0256
20093W        W36354  15.952  16.384  14.892  0.0284 -0.0085  0.2818
20094W        W36355   1.865  13.716   4.895  0.1651  0.1310  0.0525
20095W        W36356   1.634   8.154   1.071  0.1161  0.0759 -0.0971
20096W        W36357   5.975   5.615   2.594  0.0386  0.1850 -0.2318
20097W        W36358   9.507   0.184  15.360  0.2202 -0.0237 -0.0365
20098W        W36359  13.644   8.781  16.215  0.1207 -0.1514 -0.3523
20099W        W36360   3.807   3.009   1.191 -0.1617 -0.0552  0.3456
20100W        W36361   3.968   1.976  15.020  0.2053  0.1133  0.1553
20101W        W36362   7.441   8.527   0.556 -0.1839  0.2330 -0.0489
20102W        W36363   6.997   3.002  13.590 -0.0096 -0.3298 -0.1646
20103W        W36364  10.816  15.308  12.084 -0.1518  0.2110 -0.2204
20104W        W36365   6.199   8.210   1.102  0.0212 -0.1053 -0.3273
20105W        W36366   6.094   3.349   5.403 -0.1141 -0.1256  0.0592
20106W        W36367  11.536  10.314   4.895 -0.0220  0.1508  0.0576
20107W        W36368   1.021  16.780  15.661  0.3933 -0.3429 -0.0993
20108W        W36369  17.198   5.849  12.756  0.1148 -0.0450 -0.0184
20109W        W36370   0.871   7.117   1.824  0.2862 -0.2258 -0.0561
20110W        W36371  12.624   5.175   3.022  0.0445 -0.3283 -0.1073
20111W        W36372  17.412  16.226  15.369  0.1889 -0.0195 -0.1203
20112W        W36373   5.309  15.836   5.671  0.0832  0.1032 -0.3067
20113W        W36374   6.049   5.295  14.992 -0.1021 -0.3454 -0.0554
20114W        W36375  15.699   9.976  13.420  0.1563  0.1166  0.0838
20115W        W36376   8.455   5.068  15.298  0.1066 -0.0722 -0.0160
20116W        W36377   3.449  11.032   3.642 -0.4301 -0.0487 -0.1716
20117W        W36378  12.095  13.714   3.181  0.3486  0.0258 -0.1128
20118W        W36379   5.933   1.996  13.407  0.0337  0.2093 -0.1130
20119W        W36380   2.503   4.526   0.522  0.1580 -0.0460  0.1618
20120W        W36381   2.539  15.859  12.265  0.0512  0.3695 -0.2636
20121W        W36382   8.725  15.184   0.173  0.1668  0.3871 -0.1886
20122W        W36383   6.371   8.990  15.810  0.1843  0.1753  0.0297
20123W        W36384   0.769   6.722  12.164  0.2073  0.0318  0.1067
20124W        W36385   1.426   0.240   1.951 -0.2617  0.3146  0.0640
20125W        W36386   6.569   3.894   3.327  0.2533 -0.0663  0.1732
20126W        W36387  15.540   8.582   0.492  0.2404  0.2027  0.1135
20127W        W36388   5.866   2.105  16.839  0.4163  0.0702 -0.2203
20128W        W36389   7.158  15.349   0.184  0.0319  0.1037  0.1295
20129W        W36390   2.818   6.050   3.629  0.1687 -0.1550 -0.1124
20130W        W36391  13.519   9.973  13.590 -0.1165  0.0729  0.0819
20131W        W36392   6.006   1.554  16.589  0.0999  0.2282 -0.1673
20132W        W36393  12.020  12.335   4.865 -0.1389 -0.2178 -0.1461
20133W        W36394   3.662   1.793   4.486  0.1120 -0.1890 -0.1257
20134W        W36395  17.583  10.455   4.727 -0.1375 -0.0325 -0.0988
20135W        W36396  14.807   4.600  11.989  0.0387  0.0551 -0.1810
20136W        W36397   6.461   0.804  12.974 -0.0906  0.1314 -0.3404
20137W        W36398   7.220   9.098   1.747  0.0856  0.0399 -0.1620
20138W        W36399   3.140   2.146   0.991  0.1664  0.1971  0.0612
20139W        W36400   5.360  16.545  13.053  0.1901 -0.0016 -0.0021
20140W        W36401   0.979  16.850  12.381 -0.1234 -0.2445  0.0989
20141W        W36402  17.567   5.135   4.411 -0.1026  0.1077 -0.0749
20142W        W36403   6.927   0.089  15.240  0.2245  0.1222  0.0026
20143W        W36404   0.035  13.697   4.395  0.0238 -0.1869  0.1306
20144W        W36405   2.499  12.035  13.771  0.1022 -0.0526  0.2981
20145W        W36406  12.978   8.588  12.031  0.0942  0.1479 -0.1752
20146W        W36407  14.924  14.774   5.150 -0.1854 -0.2682 -0.0476
20147W        W36408  10.597  11.429   4.149  0.0066  0.0392 -0.1805
20148W        W36409  10.070   9.087   4.352  0.2112 -0.2829  0.1845
20149W        W36410   4.020   3.911   1.291 -0.2233 -0.0547 -0.2870
20150W        W36411   8.928   3.662   4.105  0.0762  0.0483 -0.1742
20151W        W36412   0.642   3.180   3.630 -0.1217 -0.2727 -0.2043
20152W        W36413   3.175   7.860   2.644 -0.1009 -0.1024 -0.0695
20153W        W36414   9.803   0.048  16.965  0.1072 -0.1446  0.0338
20154W        W36415  10.205  10.454  16.638 -0.0391  0.1123 -0.2311
20155W        W36416  17.156   4.776  13.556  0.3634  0.0066  0.0446
20156W        W36417  10.738  13.976   2.870 -0.0720  0.1370 -0.0914
20157W        W36418   4.306   2.711   3.589  0.1220  0.0581 -0.0186
20158W        W36419   5.513   5.292  13.228 -0.0423  0.0862  0.0968
20159W        W36420  13.537   5.094   1.954  0.2503 -0.0681  0.1602
20160W        W36421  17.459  14.140   5.582 -0.0087 -0.1191  0.2986
20161W        W36422   2.548   2.080  14.623  0.0542 -0.2013  0.0463
20162W        W36423  12.352  16.878   3.169  0.1459  0.1015 -0.0505
20163W        W36424   2.448   4.939  13.797 -0.1225 -0.1637 -0.1721
20164W        W36425   4.270   2.255   4.738  0.1864  0.1168  0.0917
20165W        W36426   0.396  17.822   1.657  0.0894  0.0967  0.1450
20166W        W36427  16.633   4.543  12.409 -0.0107  0.0507 -0.0783
20167W        W36428  13.299  14.535  14.651 -0.0254 -0.0301 -0.2800
20168W        W36429   1.804   4.412  14.776 -0.1571  0.1024  0.1889
20169W        W36430  14.085   9.834   3.248 -0.2668 -0.2614  0.0740
20170W        W36431   7.103  11.183  16.406  0.1041  0.1180  0.1517
20171W        W36432   6.554   7.937  12.278  0.1242  0.1682 -0.1512
20172W        W36433  13.996  14.529  15.269  0.4549  0.1865  0.2220
20173W        W36434  13.188  14.401   3.291  0.1264 -0.3386  0.1212
20174W        W36435  17.236   9.650  14.031 -0.0313  0.2161 -0.0970
20175W        W36436   9.755   6.258   5.395 -0.0265  0.1155  0.0994
20176W        W36437  14.830  17.318  12.820 -0.2819 -0.0850  0.0814
20177W        W36438  12.391  17.486  11.630  0.0203 -0.1245  0.0475
20178W        W36439   5.646   0.808  12.856  0.0772  0.1113  0.2572
20179W        W36440  13.980  12.584   3.386 -0.0578 -0.0355  0.2275
20180W        W36441  10.313  15.781  16.535  0.1193  0.1550  0.2587
20181W        W36442  15.043   8.891   0.355 -0.1532 -0.1358 -0.2099
20182W        W36443   6.486  13.828   5.776 -0.0438 -0.0072  0.0673
20183W        W36444  10.318   0.884   4.203  0.0720  0.1724  0.1720
20184W        W36445  11.546   6.360  16.070  0.1225  0.1833 -0.0341
20185W        W36446   5.355  11.090  12.246 -0.2449  0.1885  0.2144
20186W        W36447   5.626  11.475   0.151  0.1499 -0.0214  0.0789
20187W        W36448   2.413   4.922  16.841  0.0844 -0.0686  0.1072
20188W        W36449  15.297   0.130   3.056  0.0588  0.0719  0.2403
20189W        W36450   3.900   1.649   0.250 -0.0776  0.1171  0.2080
20190W        W36451  10.039  16.104   2.882  0.1687 -0.0022  0.1162
20191W        W36452  17.150   7.261   5.715 -0.1746  0.2745  0.1865
20192W        W36453   5.075  10.262  16.004 -0.0419 -0.0586 -0.1212
20193W        W36454  11.467  10.214  12.462 -0.2574 -0.3116  0.0856
20194W        W36455  10.925   4.200  15.478  0.0176  0.0626  0.0218
20195W        W36456   7.232  16.858   3.612 -0.3398 -0.0420 -0.1149
20196W        W36457  17.638   5.785   0.372 -0.0265 -0.1294  0.1982
20197W        W36458  12.212  11.860   4.867  0.2124 -0.1900 -0.1109
20198W        W36459  17.737   8.234  13.735 -0.0753  0.0904 -0.3431
20199W        W36460   3.020  13.570   1.973  0.0959 -0.1907 -0.1314
20200W        W36461  14.300   4.098   2.549  0.2364 -0.4244  0.0271
20201W        W36462   9.281   7.578   1.635 -0.0800 -0.1614  0.0975
20202W        W36463   7.389   8.061  12.281  0.2906 -0.2724  0.0731
20203W        W36464   4.293   4.159  16.207 -0.2163  0.0862  0.1811
20204W        W36465   2.642  13.031  14.752  0.2347 -0.0557 -0.0157
20205W        W36466   6.289   5.862  16.912 -0.3539 -0.2220 -0.0331
20206W        W36467  11.005  11.495  16.500 -0.0352  0.0111  0.0826
20207W        W36468   5.880   4.464   4.584 -0.1829 -0.2436 -0.1207
20208W        W36469   0.283  10.622  13.015  0.1019 -0.2850  0.0100
20209W        W36470   4.823  15.902   0.702  0.1286  0.1025  0.1488
20210W        W36471   6.993   7.890   2.090  0.0786 -0.2573  0.0383
20211W        W36472  15.329   6.805  14.830  0.2588 -0.0643  0.3842
20212W        W36473  11.390   7.433   2.805  0.1319  0.1004  0.1212
20213W        W36474  17.182   7.346   0.558 -0.3141  0.2731  0.1934
20214W        W36475   9.534  10.471  16.065  0.1586  0.1822  0.2341
20215W        W36476  10.168  13.983  16.368 -0.3130  0.1310 -0.0527
20216W        W36477  13.564  15.361  16.748 -0.0693  0.3478 -0.1935
20217W        W36478   2.086   6.508  15.546  0.3631  0.0193  0.2646
20218W        W36479   8.530  11.384  15.274  0.2884 -0.1019  0.1283
20219W        W36480  11.480   0.851  13.939  0.0252 -0.2021 -0.3438
20220W        W36481   6.105   1.798  13.920 -0.1789 -0.0722  0.3125
20221W        W36482   6.866  11.546  16.942 -0.0012 -0.2622 -0.1543
20222W        W36483  11.632   2.849  15.175 -0.1085  0.1703 -0.1216
20223W        W36484  13.020  14.737  15.531 -0.2557  0.5898  0.2403
20224W        W36485   2.665   9.299  12.185  0.0619  0.1791 -0.0416
20225W        W36486   9.361  10.348  15.252  0.0428  0.1954 -0.0136
20226W        W36487   8.851   3.231   2.495  0.0489 -0.2763  0.0448
20227W        W36488   0.234  15.130  12.932 -0.1027  0.0712  0.3972
20228W        W36489   8.974   6.990  15.540 -0.3733  0.1333  0.1752
20229W        W36490   2.734  16.591   0.679  0.0783 -0.2064  0.3818
20230W        W36491   2.115   1.263   2.540 -0.2381 -0.1512 -0.0178
20231W        W36492   6.513  13.451   3.140  0.0793 -0.1134 -0.0202
20232W        W36493   2.757   1.682   5.124  0.5177 -0.0560  0.0122
20233W        W36494  11.360   8.490  13.297  0.0777 -0.0388  0.0699
20234W        W36495   4.489   2.208   0.903 -0.0494 -0.0402 -0.0626
20235W        W36496  17.637   9.093  14.740 -0.1923 -0.1066  0.0205
20236W        W36497   4.884   9.623   0.306 -0.0029 -0.1732 -0.5984
20237W        W36498   1.130  11.340   1.646 -0.0424 -0.2163 -0.4047
20238W        W36499   0.968  11.925   1.540  0.0320 -0.2304  0.3492
20239W        W36500   5.859  14.103  15.675 -0.0298  0.1522  0.0505
20240W        W36501  17.611  15.499   4.375  0.2932 -0.2280 -0.0484
20241W        W36502  14.547   1.761   2.724  0.1230  0.0735  0.1292
20242W        W36503  10.108   3.188  15.756 -0.2658  0.0786 -0.1786
20243W        W36504  15.549  11.763  13.589  0.1675  0.0513  0.2411
20244W        W36505  11.308  12.576  11.665  0.2209  0.2573 -0.0838
20245W        W36506   6.841  16.382  16.896  0.3263 -0.2294  0.2615
20246W        W36507   3.450  11.736  16.789 -0.2273  0.3312 -0.0964
20247W        W36508  14.455   6.801   4.456  0.3103  0.0338 -0.0248
20248W        W36509  10.860   5.275   3.804 -0.1782  0.0142  0.0471
20249W        W36510   4.384  11.027   0.017 -0.1372 -0.2434  0.2035
20250W        W36511   1.924  12.299  12.608  0.1857  0.2391  0.2025
20251W        W36512   8.786  12.341  13.874 -0.0735 -0.0862  0.0290
20252W        W36513  12.163   0.506   3.582 -0.1486 -0.0107  0.0437
20253W        W36514   2.897   7.749  15.160  0.0304  0.3924  0.1556
20254W        W36515   4.283  17.410  13.557 -0.4812 -0.0308 -0.0905
20255W        W36516  11.616  17.769  13.229  0.2130 -0.0763  0.1513
20256W        W36517   4.831  13.570  15.068 -0.2702 -0.2122 -0.0078
20257W        W36518   1.788   6.481  16.388  0.0017  0.1934  0.2602
20258W        W36519   7.658  14.731  14.245 -0.0856 -0.0975 -0.1452
20259W        W36520  11.111   3.031  15.938 -0.0826 -0.2196  0.1557
20260W        W36521   9.836   7.045  15.976 -0.0305 -0.1327  0.0426
20261W        W36522  13.897  15.050   2.242 -0.2091 -0.2868 -0.1476
20262W        W36523  17.652  16.187   2.527 -0.0096  0.1022 -0.1836
20263W        W36524  11.207   8.583   6.124  0.0143 -0.1595 -0.0206
20264W        W36525  14.067  13.944   2.186  0.0971 -0.0219  0.0303
20265W        W36526  11.034  13.101  14.284  0.3353 -0.0409 -0.1373
20266W        W36527  12.270  13.806   2.706  0.2482 -0.1806 -0.2689
20267W        W36528  14.062  17.824   0.392 -0.2262  0.0204  0.0153
20268W        W36529   8.637   0.700   3.725 -0.1500 -0.1577  0.1283
20269W        W36530  12.987   4.030   2.491  0.0474  0.1096 -0.0213
20270W        W36531  14.241   0.218  11.705  0.0298 -0.0092  0.0521
20271W        W36532   2.133   5.989  12.976  0.0517 -0.0132 -0.1288
20272W        W36533   9.048  14.150   2.845  0.0929 -0.0941 -0.0683
20273W        W36534   7.054   3.077   0.601  0.2636  0.1806  0.2137
20274W        W36535   4.719   6.100   5.157  0.0626  0.0435  0.2248
20275W        W36536   5.784  15.547   1.408 -0.0817 -0.0090 -0.2622
20276W        W36537  10.571   8.029   2.332  0.1636  0.0464  0.0282
20277W        W36538   5.979   9.928   1.316 -0.0596  0.0094  0.1012
20278W        W36539   9.631  10.743  14.989 -0.0980  0.2795  0.0715
20279W        W36540  16.058  14.004   2.325 -0.1228 -0.0935  0.0663
20280W        W36541   8.917   0.542  13.945 -0.0226 -0.0576 -0.1411
20281W        W36542   9.664  16.566  12.280  0.2160 -0.0358 -0.0907
20282W        W36543  12.921  15.069   2.805  0.2206  0.1095  0.3680
20283W        W36544  11.189  13.082   4.211 -0.1534 -0.0663  0.0237
20284W        W36545   7.986   2.624   5.565 -0.2789  0.2892 -0.0671
20285W        W36546  14.912  12.885   6.627 -0.2807 -0.2602 -0.0894
20286W        W36547  17.187  14.804   1.660  0.0461 -0.3606 -0.0386
20287W        W36548   7.109  17.293  15.269  0.0854 -0.1909  0.0591
20288W        W36549   8.360   9.482   0.208  0.0621  0.0185 -0.0928
20289W        W36550   3.325   8.833   5.367  0.1885  0.2078 -0.0951
20290W        W36551  15.698   7.621   2.542  0.0869 -0.1798 -0.2686
20291W        W36552   1.730   5.761   6.428 -0.0406  0.0813 -0.0010
20292W        W36553  13.457   9.269  14.179 -0.1131  0.0022  0.2195
20293W        W36554   8.953  11.182  12.169  0.1442  0.1482  0.0820
20294W        W36555  14.302   9.876  14.221  0.1829  0.0338  0.0983
20295W        W36556  11.118   6.346  15.559  0.1252 -0.0354  0.0372
20296W        W36557  15.812   7.922  16.726  0.0099 -0.0374  0.2316
20297W        W36558   8.928  16.833   5.393  0.0178  0.0181 -0.0855
20298W        W36559   6.149   4.759   0.273 -0.1122  0.1121 -0.1538
20299W        W36560  13.220   1.394   2.932  0.0483 -0.1424 -0.3763
20300W        W36561  17.516   9.005   5.878  0.1735  0.0183 -0.1519
20301W        W36562  11.000   0.242   5.633  0.2307  0.2216  0.1676
20302W        W36563   4.929   0.831  12.232  0.2342 -0.0897  0.1547
20303W        W36564   8.405   9.693   3.567  0.3486 -0.0605 -0.2508
20304W        W36565   4.741  10.569  15.255  0.1403  0.1360  0.0790
20305W        W36566   6.228   6.817   4.911 -0.0106 -0.1995 -0.0067
20306W        W36567  10.385   9.299   3.104 -0.1346  0.2957  0.4064
20307W        W36568  15.480   9.969  14.700 -0.2431 -0.1282 -0.0694
20308W        W36569   8.243   5.340   4.863  0.0115  0.2921  0.0801
20309W        W36570   5.558  10.185   1.147 -0.0815  0.1197 -0.0307
20310W        W36571  14.598  15.704   1.291 -0.1152  0.2187  0.1415
20311W        W36572   5.615   4.770  13.073 -0.0584 -0.0121 -0.1792
20312W        W36573   1.693  13.353   0.498 -0.0281  0.1458 -0.1676
20313W        W36574   9.489   6.435   0.251 -0.4261 -0.0772  0.1484
20314W        W36575  10.935   8.095  13.732  0.2338  0.2232  0.0166
20315W        W36576   9.931  13.194   0.692 -0.0293 -0.0648 -0.4290
20316W        W36577   4.906   9.077  13.585  0.0584  0.2131 -0.0788
20317W        W36578  10.667   6.857   1.640 -0.1210 -0.0695  0.0215
20318W        W36579   6.124   5.189  14.476 -0.1666  0.0873 -0.0461
20319W        W36580  11.409   0.906   2.246  0.2772 -0.3096  0.2872
20320W        W36581  16.505   2.069  15.423 -0.1178  0.1366  0.0287
20321W        W36582  13.426   5.023   5.658  0.1412 -0.1210 -0.1796
20322W        W36583   5.307   0.844   4.890 -0.1063 -0.1141 -0.0041
20323W        W36584   6.151  15.727   0.302  0.0530  0.2083  0.0256
20324W        W36585   9.567  14.720   0.003 -0.1160 -0.5467  0.1507
20325W        W36586   7.656   0.151  14.265  0.0411 -0.0323  0.0922
20326W        W36587   2.956   1.753   3.536  0.0602  0.0997  0.2592
20327W        W36588  14.630  10.701   1.043  0.1532 -0.3436 -0.1818
20328W        W36589   2.011   4.007  15.319 -0.0294  0.0141  0.1295
20329W        W36590   0.070   1.803   3.250  0.2503 -0.0586 -0.2630
20330W        W36591  15.210  16.615   2.178  0.1181 -0.0480 -0.0345
20331W        W36592   0.276   2.536   2.883  0.1286  0.0806  0.2265
20332W        W36593   7.809  11.979  13.265 -0.1618  0.0234  0.1155
20333W        W36594   6.194   1.244   2.524  0.1296 -0.0270 -0.0858
20334W        W36595   5.850   0.377  10.835 -0.0061 -0.1721  0.1316
20335W        W36596   3.770   8.294   1.567  0.2032 -0.0149 -0.1622
20336W        W36597  13.208   3.929   2.952 -0.0883 -0.2512 -0.0394
20337W        W36598   4.640   6.835   2.905  0.0667  0.3563  0.1243
20338W        W36599  13.517  14.110   4.862  0.1096 -0.1382 -0.0397
20339W        W36600  12.199   9.844  14.221  0.1266  0.3338  0.0630
20340W        W36601   4.608   3.761  12.581  0.1345  0.0587 -0.3097
20341W        W36602  13.627  10.028   1.993  0.1699  0.1839  0.0384
20342W        W36603  13.307   4.152  15.188  0.2425 -0.2452  0.1028
20343W        W36604  14.201  14.874   2.570 -0.5070 -0.0502 -0.0745
20344W        W36605   8.502  16.300   2.274 -0.0319  0.4774  0.1155
20345W        W36606   5.102   3.752  12.689  0.1392  0.0379  0.0012
20346W        W36607   4.561  15.896   5.265 -0.1510 -0.1097 -0.0959
20347W        W36608  10.275   4.406   1.230 -0.0291 -0.2125  0.0915
20348W        W36609  10.682   5.472  15.184  0.0334 -0.1136 -0.1224
20349W        W36610   0.690   6.805   2.992 -0.0989 -0.2458  0.2449
20350W        W36611  16.147   8.532  11.287 -0.1273  0.0184  0.1061
20351W        W36612  14.944  15.278  14.001  0.1528  0.1412 -0.1580
20352W        W36613   1.310   8.590   0.159 -0.1321 -0.3004 -0.0693
20353W        W36614   5.340   5.135   5.634 -0.5093 -0.1062 -0.0642
20354W        W36615  17.458  10.712   3.026 -0.1907  0.0504  0.1042
20355W        W36616  14.367  12.612   0.965 -0.0030  0.0086  0.3641
20356W        W36617   1.435  14.548   1.975  0.0651  0.2478 -0.0772
20357W        W36618  14.663  12.016   5.748  0.1169  0.0423  0.1840
20358W        W36619   3.719   5.342   4.379 -0.0756 -0.0693  0.0898
20359W        W36620  15.080  15.231   2.516 -0.0359  0.0034  0.2020
20360W        W36621   4.863   6.911  12.187 -0.0964  0.2012 -0.0244
20361W        W36622   0.710  11.685   3.104  0.0154  0.0810 -0.2198
20362W        W36623   3.988  16.028  12.732  0.1902 -0.0538  0.0170
20363W        W36624   3.850  13.921   0.387  0.0226  0.1617 -0.1447
20364W        W36625  15.093   3.500  13.604 -0.0777  0.1308  0.0333
20365W        W36626   7.651  10.933   0.055  0.1273 -0.0586  0.0499
20366W        W36627   3.870   8.254   0.261  0.0619  0.1388  0.0882
20367W        W36628   9.056   3.693   0.875 -0.4558 -0.2500  0.1283
20368W        W36629  12.290   3.302  15.364  0.0576 -0.1636 -0.1038
20369W        W36630   6.533   8.360   1.984 -0.0564 -0.1349 -0.1994
20370W        W36631   6.291   6.661  13.681  0.0258  0.2724  0.2968
20371W        W36632  13.592   6.635   4.025 -0.2050 -0.0125  0.0457
20372W        W36633  16.132  14.845   0.160  0.0949 -0.0210  0.1457
20373W        W36634   2.687   8.533   3.170 -0.0365 -0.2092  0.1719
20374W        W36635   7.508  16.241   2.796  0.0715 -0.0236 -0.1152
20375W        W36636   6.611  14.204   3.600 -0.1084 -0.1988 -0.1928
20376W        W36637  14.438   7.859   4.603 -0.2339 -0.1833  0.1174
20377W        W36638   6.468   3.086  12.525 -0.1635 -0.2839  0.3298
20378W        W36639   9.062   8.318   5.035 -0.0254  0.2783  0.1923
20379W        W36640   4.491   0.083   0.314 -0.2237 -0.1239 -0.2162
20380W        W36641  12.715   7.292   5.588 -0.3210 -0.2046 -0.0312
20381W        W36642   0.896  13.864  12.532 -0.0418 -0.1174 -0.2124
20382W        W36643   5.655   7.260   3.966  0.1792  0.0693 -0.0309
20383W        W36644  10.561   6.480  11.744  0.1794  0.2874  0.0546
20384W        W36645   6.831   6.480   6.113  0.0006 -0.0050  0.1535
20385W        W36646  14.417   0.002   3.308  0.2440  0.3364  0.0569
20386W        W36647   7.559   2.472  15.983  0.1981  0.0438 -0.1897
20387W        W36648   1.102  11.157   0.329 -0.1664 -0.0724 -0.0974
20388W        W36649   4.656  10.776   4.727 -0.1805 -0.1494 -0.0111
20389W        W36650   6.354   4.121  11.760 -0.0267  0.2320  0.1140
20390W        W36651  17.720   8.557   4.680 -0.0935 -0.3960 -0.1595
20391W        W36652   7.601  10.675  13.386 -0.1753 -0.2838  0.0270
20392W        W36653   7.282   3.486  12.400 -0.2882 -0.1127  0.1275
20393W        W36654  10.795   5.136  15.495 -0.2536 -0.0103 -0.2170
20394W        W36655   2.158   4.863   4.676 -0.1703 -0.2614  0.0592
20395W        W36656   6.181  17.839   0.250  0.1888  0.1556  0.1671
20396W        W36657   8.478  16.320   3.710  0.1982  0.1633 -0.0990
20397W        W36658  13.945   8.833   3.142 -0.1953 -0.1319 -0.3001
20398W        W36659  11.974   3.897  14.747 -0.1042 -0.1636 -0.0086
20399W        W36660   7.506   8.973  14.048 -0.1720 -0.1301  0.0689
20400W        W36661   5.286   5.160   4.509 -0.0217  0.1232  0.0567
20401W        W36662   3.203  13.457  11.971  0.1656 -0.1192  0.1455
20402W        W36663   0.291  15.699  15.722 -0.1756  0.2757 -0.0830
20403W        W36664  11.002  14.413  12.030 -0.1341  0.1024  0.1077
20404W        W36665  15.896  12.282   2.848  0.0269 -0.1855 -0.1470
20405W        W36666   3.345   0.062   5.241  0.3239  0.0632 -0.2688
20406W        W36667  12.479  13.897  16.012 -0.2886  0.0734  0.1354
20407W        W36668   4.828   0.078  14.578  0.0108 -0.1152 -0.0191
20408W        W36669  16.288  11.057   2.547  0.1532  0.1079 -0.0031
20409W        W36670  13.156   1.324  14.128  0.1816  0.0363 -0.1061
20410W        W36671   9.719   3.969  14.734 -0.1510 -0.0679  0.1174
20411W        W36672   8.428  12.044  14.064 -0.3685  0.2266 -0.1382
20412W        W36673  14.129  17.268   5.008  0.2240 -0.0160  0.0886
20413W        W36674  15.954   2.374   5.342  0.0347  0.0352 -0.0102
20414W        W36675  16.076   7.780   2.263  0.2320 -0.1684  0.1319
20415W        W36676   8.996   4.195   4.937  0.0394 -0.3467 -0.0536
20416W        W36677  11.769   5.861  16.125 -0.1668  0.0173 -0.1287
20417W        W36678   9.001   4.724   5.189 -0.0659 -0.1323 -0.1509
20418W        W36679  10.332  16.181   6.219 -0.0850 -0.3129 -0.0463
20419W        W36680   0.578  11.737   4.750  0.3689  0.0265  0.1095
20420W        W36681   4.308  11.206  12.544 -0.0527  0.3313 -0.0002
20421W        W36682  11.750   5.832  13.480 -0.2385  0.3872  0.0439
20422W        W36683   7.323   1.551  13.051  0.2115  0.2279 -0.2078
20423W        W36684  13.097   0.403  13.204 -0.1934 -0.1412  0.1353
20424W        W36685  15.603   4.720  16.342  0.2631  0.1121  0.0849
20425W        W36686   4.262   5.271   3.292  0.2675  0.2173 -0.2186
20426W        W36687  11.340  11.559  12.135 -0.1053 -0.0452 -0.1695
20427W        W36688  10.653  15.266  15.403 -0.0127  0.0651  0.3648
20428W        W36689  15.766  10.806   2.870  0.1798  0.0086  0.2516
20429W        W36690   7.780  16.662  13.649 -0.2525 -0.0352  0.0021
20430W        W36691  11.798  13.468   6.192  0.1855  0.2076 -0.1973
20431W        W36692   5.373  16.028  13.165 -0.1210 -0.0826 -0.2298
20432W        W36693   4.288   5.694   0.738 -0.0181  0.1909  0.0676
20433W        W36694   9.353   5.101   2.884  0.0822  0.3560 -0.2512
20434W        W36695   5.165   1.669   4.420 -0.0441 -0.0394 -0.0140
20435W        W36696   1.577   2.153   1.801 -0.1495  0.0456  0.0459
20436W        W36697  11.908  17.339  14.561 -0.0261 -0.3056  0.1212
20437W        W36698   2.178   1.833  16.624  0.3240  0.4251 -0.0902
20438W        W36699  10.990   0.863   3.185 -0.0935 -0.1249  0.2249
20439W        W36700   2.294   4.207   3.886  0.2376 -0.2302 -0.0016
20440W        W36701   7.416   4.156   3.550 -0.2083 -0.3050 -0.1047
20441W        W36702   0.835   6.143   5.405 -0.1200 -0.2307  0.0317
20442W        W36703  13.340  10.488   4.047 -0.0132 -0.0834  0.4458
20443W        W36704  17.516   9.198  13.193 -0.1233 -0.2149  0.3806
20444W        W36705  16.615   7.010   1.294  0.1034  0.0317  0.1235
20445W        W36706   1.099   5.431   2.082  0.0146 -0.2767 -0.2457
20446W        W36707   3.390  14.454   1.177  0.1907 -0.0166 -0.0723
20447W        W36708  12.704  15.590   5.219  0.0204  0.0724 -0.1128
20448W        W36709   6.406   1.745   2.587 -0.1213 -0.0792  0.0729
20449W        W36710   7.443  10.238  15.535  0.0011  0.1730 -0.1014
20450W        W36711  16.232   4.341   4.188  0.2905 -0.1327  0.0464
20451W        W36712  17.158  11.525   1.718  0.2692 -0.3163 -0.2002
20452W        W36713   5.101   9.196   2.323 -0.2219 -0.2118 -0.0826
20453W        W36714   5.851   2.730   2.155  0.0004 -0.0252 -0.0784
20454W        W36715   1.313  13.807   4.241  0.1576 -0.0624 -0.3314
20455W        W36716  16.185  12.659  14.723 -0.2505  0.0581 -0.0100
20456W        W36717  13.562   6.377   0.626  0.1204  0.1096  0.1842
20457W        W36718  13.560   9.584  11.636  0.0600 -0.0943  0.0059
20458W        W36719   4.843   3.529   0.223 -0.1230 -0.1546  0.3920
20459W        W36720   7.114  16.747  14.365 -0.0570 -0.1684 -0.2103
20460W        W36721   6.288   9.465  15.499 -0.0159  0.0776 -0.0768
20461W        W36722  11.728  12.009   3.655  0.1989 -0.1291 -0.1876
20462W        W36723  14.297  13.624   0.589  0.0346  0.0044  0.1852
20463W        W36724   0.795   0.679   4.627 -0.1733  0.0773  0.1594
20464W        W36725   3.822  13.719  16.430 -0.0521  0.1905  0.1993
20465W        W36726  15.186  17.095   6.036 -0.0511  0.0005 -0.0297
20466W        W36727  14.285   7.522   1.057 -0.2164  0.1064  0.0860
20467W        W36728  14.591  14.548  14.517  0.1570 -0.0228  0.0413
20468W        W36729  14.880  16.515   1.793  0.0175 -0.0395 -0.0186
20469W        W36730   6.686   2.657   0.071  0.0695 -0.0321 -0.0275
20470W        W36731   8.071   4.431  15.981  0.1980  0.4031  0.3074
20471W        W36732  11.797  11.598  11.802  0.2271 -0.1456  0.3785
20472W        W36733  15.596   5.992  11.511  0.0813 -0.1309 -0.0172
20473W        W36734   1.068  13.463  15.623  0.3189  0.2906  0.0590
20474W        W36735   8.597   6.288  16.658  0.2509 -0.1911  0.4042
20475W        W36736   3.445   0.672   0.459 -0.2939  0.2261  0.2074
20476W        W36737   3.502   7.775   5.416  0.0170 -0.1511 -0.1103
20477W        W36738   2.444  11.608   4.030 -0.0601  0.0261  0.2410
20478W        W36739   7.538   7.952  12.857 -0.3324 -0.1074  0.1742
20479W        W36740  13.380  17.439   0.691  0.0762 -0.5639 -0.0423
20480W        W36741  15.097   3.576  13.054 -0.0765  0.3778 -0.0980
20481W        W36742  17.352  14.596   2.813 -0.2474  0.2241 -0.1227
20482W        W36743  16.243  15.562  16.667 -0.2669  0.2751 -0.0535
20483W        W36744  11.984  14.995   5.850 -0.1338 -0.0508 -0.0521
20484W        W36745   3.178   3.379  12.752  0.0553 -0.0694 -0.1008
20485W        W36746  15.396  15.080   0.917  0.3165 -0.0752  0.3150
20486W        W36747   0.085   7.745  14.540 -0.1337  0.1171 -0.0214
20487W        W36748   5.299   5.124  14.687 -0.0555  0.2675  0.2606
20488W        W36749  11.739   4.593   0.729  0.1183 -0.0042 -0.0341
20489W        W36750   1.932  11.949  15.346  0.0158  0.2425 -0.0670
20490W        W36751   0.801   2.563   0.563 -0.1446  0.2038 -0.0148
20491W        W36752   6.727  13.454  12.295 -0.0526 -0.0078  0.0264
20492W        W36753   3.943   4.962  12.503 -0.1375  0.0431  0.0671
20493W        W36754  12.680  13.543   4.605 -0.0805 -0.1846  0.2954
20494W        W36755   5.274   4.761   4.771 -0.0947  0.0845 -0.4900
20495W        W36756  12.006  13.852   4.390 -0.3381 -0.1756  0.0311
20496W        W36757   2.201   7.701  12.750  0.1904 -0.0732 -0.1224
20497W        W36758  12.693  11.531  15.176 -0.0831  0.0225  0.2294
20498W        W36759  16.092  11.008  16.907  0.4685  0.1806  0.2365
20499W        W36760   2.041  15.796   3.883 -0.1012 -0.2422  0.0081
20500W        W36761  16.903  17.544   0.480  0.1518 -0.2512 -0.0819
20501W        W36762  14.906  11.083  16.329  0.1544 -0.1866  0.1348
20502W        W36763  10.934   6.421   2.074 -0.0781 -0.0869  0.0829
20503W        W36764  13.980   1.466   0.189 -0.0544  0.0300  0.1802
20504W        W36765   5.121   0.302   3.330  0.1529  0.2192 -0.1126
20505W        W36766   7.872   8.197   3.953  0.0345 -0.1863  0.0789
20506W        W36767  15.081   6.085  15.369  0.0245  0.1900  0.0736
20507W        W36768   5.449   8.182  15.051  0.3179  0.1111  0.2253
20508W        W36769  15.986  15.880   3.118 -0.0516 -0.0301 -0.2471
20509W        W36770   3.358  12.023   5.731 -0.1404 -0.1800  0.2666
20510W        W36771   2.239   1.342   0.585 -0.5215  0.1532 -0.0874
20511W        W36772   8.528  14.565   5.364  0.0012 -0.0881 -0.0957
20512W        W36773  13.347  11.449  15.234 -0.0927  0.2973 -0.1557
20513W        W36774  11.220  10.713   2.716  0.1717  0.0549 -0.2566
20514W        W36775  10.646  13.182  12.087  0.0474  0.1374 -0.0911
20515W        W36776  16.719  13.701  12.555 -0.0775  0.2205  0.1609
20516W        W36777  17.589   4.215  14.852 -0.2213 -0.1302  0.1026
20517W        W36778  12.050  12.233  15.511  0.1167  0.0403  0.0281
20518W        W36779   1.249   4.109  15.933 -0.0001 -0.2464 -0.4641
20519W        W36780  17.264  17.768  12.135 -0.0838  0.3622 -0.1356
20520W        W36781   3.401  15.938   1.115  0.0301  0.1120  0.2881
20521W        W36782  13.739   9.203  13.094 -0.3685 -0.1235 -0.2785
20522W        W36783  15.373   7.473  14.984  0.3040  0.0784 -0.0567
20523W        W36784  16.139   4.999   0.690  0.0307 -0.0092 -0.2441
20524W        W36785   0.569   0.497  14.674  0.1077 -0.1526 -0.1832
20525W        W36786  15.894   3.285   2.674  0.0765  0.0584 -0.4210
20526W        W36787   8.384  11.730   1.788  0.0722  0.2517  0.5028
20527W        W36788   9.736  15.085  14.618  0.0477  0.0504 -0.1873
20528W        W36789  13.709   8.199   0.856  0.1344 -0.0689  0.3630
20529W        W36790   9.668  10.494   1.933 -0.2099 -0.1254  0.1045
20530W        W36791   9.175   0.923  15.663  0.1528 -0.2088  0.1138
20531W        W36792   8.665  16.295  12.134 -0.0128  0.1870 -0.1059
20532W        W36793   3.035   5.769  15.263  0.4785  0.1307  0.1196
20533W        W36794   0.493   0.230  11.646  0.3067 -0.1032 -0.3140
20534W        W36795  13.418   4.725  11.834 -0.0551 -0.1174  0.2629
20535W        W36796   2.469   7.181   1.446 -0.2056  0.0018  0.0825
20536W        W36797   4.608  11.703  13.789  0.3427  0.0309  0.2592
20537W        W36798  16.587  12.766  13.467 -0.1786  0.0900 -0.0687
20538W        W36799   8.490  15.138  15.135 -0.0170 -0.1331 -0.1856
20539W        W36800   8.106   4.292   4.274  0.0007 -0.0464 -0.0209
20540W        W36801   0.416   5.804  15.489  0.0040 -0.1520  0.5207
20541W        W36802  14.574  10.873   4.592  0.0570  0.0542  0.0054
20542W        W36803   1.387   5.124   4.836 -0.0513 -0.1418  0.1006
20543W        W36804  15.660   3.643   0.425 -0.1861 -0.0882  0.0634
20544W        W36805   4.923   8.426   0.678  0.2071 -0.0294  0.0807
20545W        W36806   9.573   1.654  12.570 -0.1359 -0.0457 -0.3566
20546W        W36807   0.055   8.585   1.550 -0.2863  0.0397  0.0577
20547W        W36808   6.361   9.765  13.205 -0.0151 -0.1040  0.0017
20548W        W36809   5.902  15.201  15.660  0.0637  0.1988 -0.0620
20549W        W36810   9.860   7.672  11.331  0.1870 -0.0583  0.2061
20550W        W36811  10.105   8.409  15.763  0.0405  0.0138 -0.1371
20551W        W36812  14.824   0.496   2.630 -0.3141 -0.0795  0.2051
20552W        W36813  10.146   9.248  15.149 -0.0385  0.2704  0.0285
20553W        W36814  13.217   0.489   0.712  0.1758  0.1320  0.1646
20554W        W36815   6.052   1.146   5.521 -0.2216  0.0473 -0.3018
20555W        W36816   5.226  11.669   3.289  0.0154  0.0395  0.1812
20556W        W36817   0.276   4.939   3.064 -0.0443  0.1939 -0.3077
20557W        W36818   9.408  16.486  14.445  0.2422 -0.0788 -0.0558
20558W        W36819  14.700  14.092  15.750  0.0939  0.1951  0.0490
20559W        W36820   4.403   1.269  16.756 -0.3173  0.1332 -0.4414
20560W        W36821  13.855   7.611   2.362  0.1434 -0.2237  0.0786
20561W        W36822  16.315   4.032  13.058 -0.0299  0.1992 -0.1858
20562W        W36823   5.664  11.850  13.626  0.0082 -0.2006 -0.0770
20563W        W36824   7.240   3.747   1.874 -0.0946 -0.1094 -0.4570
20564W        W36825   7.412  10.811  12.654  0.0372  0.2006  0.1532
20565W        W36826  15.346  10.390  15.903 -0.1279  0.0340  0.2347
20566W        W36827   2.627   0.206   4.776  0.1610 -0.2003  0.1294
20567W        W36828  15.662  15.924  12.061 -0.1682  0.0481  0.4392
20568W        W36829  15.975  10.158   4.194  0.0886 -0.3060  0.0692
20569W        W36830  14.647   4.098   0.584 -0.0018  0.3182  0.1033
20570W        W36831   4.515   1.706   1.845 -0.0892  0.1920  0.2637
20571W        W36832   9.264   0.694  16.958 -0.4222 -0.0643  0.2595
20572W        W36833  14.851   1.410   2.968 -0.1285  0.3451 -0.2002
20573W        W36834   0.130   5.263  15.226  0.0250 -0.2442 -0.3178
20574W        W36835  11.210  17.851   4.855  0.1484 -0.2160 -0.1666
20575W        W36836   5.424   9.453   5.785 -0.2747 -0.1175 -0.2667
20576W        W36837   5.615  16.867  14.486  0.1361  0.3669 -0.0745
20577W        W36838  10.161  16.531  15.371 -0.0545  0.3202 -0.0950
20578W        W36839   3.837   1.223  14.967  0.0018 -0.3990  0.0825
20579W        W36840   0.654  13.752  14.961  0.3103 -0.0284  0.0923
20580W        W36841   5.881  13.113   5.728 -0.1074  0.4321 -0.1807
20581W        W36842   9.498  11.823  14.918 -0.1081  0.1655  0.1225
20582W        W36843   8.998  11.401   0.368 -0.0367  0.1846  0.1464
20583W        W36844   1.706   2.570   4.208 -0.1018 -0.3602 -0.1389
20584W        W36845  15.254  10.435   3.533 -0.0869  0.1174  0.3765
20585W        W36846  12.708   2.773  12.505  0.0130  0.0524 -0.4257
20586W        W36847   1.764   3.361  12.358 -0.2206 -0.1011  0.0201
20587W        W36848  14.749   8.755  13.065  0.0944 -0.1115 -0.1845
20588W        W36849   7.692  12.421  15.691  0.1899 -0.1062  0.1541
20589W        W36850   4.750   7.655  13.383  0.1320 -0.0209 -0.0506
20590W        W36851   4.537   5.492  16.474  0.1802  0.0927 -0.0773
20591W        W36852   5.148  16.007   3.645 -0.1472  0.2310  0.0137
20592W        W36853   8.126   9.680   4.872 -0.2215  0.0416 -0.2996
20593W        W36854   1.627   6.018  16.562 -0.3056 -0.1047  0.1879
20594W        W36855   8.572   7.973   0.932  0.1044 -0.0914 -0.0468
20595W        W36856   0.225   3.300  14.129 -0.0486  0.0177 -0.1336
20596W        W36857  15.301   8.770   2.225 -0.0252  0.1310  0.1484
20597W        W36858   5.023   0.065  15.233 -0.2933  0.0534 -0.0256
20598W        W36859  10.312   6.777  11.429  0.2544  0.1562  0.2217
20599W        W36860  16.679  10.989  13.739 -0.0853 -0.3469  0.1890
20600W        W36861   5.791  16.382  13.292  0.1476 -0.1874  0.1160
20601W        W36862  16.094   6.031  12.291  0.0313 -0.2543  0.0523
20602W        W36863   4.467  12.756   0.608  0.2170 -0.2794 -0.0807
20603W        W36864   4.171  16.466   2.228 -0.4384  0.0573  0.3404
20604W        W36865  13.271  11.100   3.023  0.3172 -0.1571 -0.3015
20605W        W36866   7.547   0.073  16.635 -0.0087  0.3365 -0.1238
20606W        W36867   0.590   3.983   3.123  0.1572 -0.0685  0.0850
20607W        W36868   4.420   9.031   3.767  0.2225 -0.0717  0.0562
20608W        W36869   5.641   2.455   0.246 -0.0450 -0.1426  0.2891
20609W        W36870  13.349   7.889  13.221 -0.0518 -0.0011 -0.1547
20610W        W36871  10.873   9.440   3.816 -0.1017 -0.0715 -0.0852
20611W        W36872   8.340   1.083   5.804  0.1988  0.1987  0.1072
20612W        W36873  13.469  16.785   3.138  0.3703  0.1860 -0.2092
20613W        W36874  11.585  17.655   2.353 -0.2081  0.1981 -0.1319
20614W        W36875   4.985   5.289   3.837 -0.0535 -0.1802  0.1019
20615W        W36876   8.547   4.987  11.536 -0.2259  0.1290  0.2352
20616W        W36877   7.462  13.667  14.428 -0.1055 -0.1319 -0.0101
20617W        W36878  10.063   0.560   0.910  0.1713 -0.1970 -0.0985
20618W        W36879   6.728  14.532   0.146  0.0620  0.0721  0.2130
20619W        W36880  11.892  14.967  14.396 -0.0438 -0.1209  0.1377
20620W        W36881   6.581  14.447   5.631  0.1692 -0.1088 -0.0715
20621W        W36882   4.489   8.550   4.452  0.1672  0.1608  0.2735
20622W        W36883   0.238  14.973   1.705 -0.0827 -0.2254  0.2754
20623W        W36884   0.743   8.927  14.437 -0.1629 -0.2120  0.2424
20624W        W36885   0.394   8.787  14.842 -0.1011 -0.4291 -0.2147
20625W        W36886  10.594  17.231  14.693  0.1433 -0.3399 -0.2407
20626W        W36887   1.138   8.570  13.278  0.1740  0.1643 -0.1348
20627W        W36888  15.225  14.809   6.798 -0.3180  0.3175  0.0530
20628W        W36889  17.734   4.157  13.990  0.3886 -0.0811  0.3098
20629W        W36890   2.654   2.179   5.712  0.0585 -0.1124 -0.3652
20630W        W36891   5.818  10.607   0.164  0.0040  0.0193  0.0144
20631W        W36892  12.895   2.100  15.118 -0.0698  0.2377  0.1153
20632W        W36893  17.134   7.862  12.284  0.1476 -0.0559 -0.2257
20633W        W36894  15.572  10.748   1.555  0.0079 -0.2279 -0.2896
20634W        W36895  12.238  10.170  14.623  0.1528  0.1593  0.0298
20635W        W36896  11.387  16.678   0.815 -0.0483 -0.1039  0.0043
20636W        W36897   1.008   0.494   2.169  0.3289  0.0630 -0.0662
20637W        W36898  13.670   7.054   3.308  0.0586 -0.1097  0.0424
20638W        W36899   1.693   4.621  11.596 -0.2675  0.0423 -0.1522
20639W        W36900  15.420   7.265  16.766  0.0543 -0.2479 -0.0287
20640W        W36901  14.607  10.243   0.839  0.1366  0.1637 -0.0944
20641W        W36902  11.241  14.544  14.860 -0.1765 -0.0961  0.4031
20642W        W36903   8.413  15.617   0.264  0.1537 -0.0502  0.1755
20643W        W36904  14.488  15.754   1.777 -0.3469 -0.0364 -0.1686
20644W        W36905  12.007   7.932  16.455  0.1868 -0.1093 -0.1754
20645W        W36906   1.369  11.715   1.820  0.1210 -0.2256  0.0068
20646W        W36907  15.314   2.129   2.297 -0.1187 -0.1138 -0.1630
20647W        W36908   4.621  11.638   4.894 -0.0941  0.0164  0.1949
20648W        W36909  13.060   9.251  16.501  0.0249 -0.0702  0.0117
20649W        W36910  15.609   0.110  13.195 -0.3178 -0.0349  0.1111
20650W        W36911  11.110  11.493   0.064 -0.0650  0.0461  0.2063
20651W        W36912  15.328   5.935  13.579 -0.0987  0.1290  0.1320
20652W        W36913   7.305   6.331  11.560  0.1426  0.3226  0.2147
20653W        W36914  17.524   6.939  14.531 -0.0822 -0.1444 -0.1006
20654W        W36915   6.107  11.273   5.623 -0.0657 -0.0789  0.0135
20655W        W36916  13.908   0.769  14.032  0.2573 -0.1245  0.1204
20656W        W36917   1.051   7.388   2.374 -0.0539  0.2106  0.1576
20657W        W36918   0.431  12.549  14.325 -0.1097  0.1798 -0.0782
20658W        W36919  13.916  11.445  12.647 -0.0407  0.0680  0.0419
20659W        W36920  14.322  14.374   3.454 -0.1718 -0.1016  0.0928
20660W        W36921  16.881   4.952  12.259 -0.0532 -0.3799  0.2752
20661W        W36922  15.254   3.154   4.356 -0.3605  0.0394  0.0998
20662W        W36923   9.340  15.892   0.458 -0.1004 -0.0731 -0.0598
20663W        W36924  16.220  14.964  16.233  0.2384 -0.0097  0.1735
20664W        W36925   9.241  13.601  16.530  0.1671  0.0546 -0.0694
20665W        W36926  14.841   5.542  16.132  0.2550  0.0276 -0.0072
20666W        W36927  11.444   8.060  12.149 -0.2509  0.1103  0.1414
20667W        W36928   4.825   9.670   5.074 -0.1798 -0.1797 -0.1455
20668W        W36929   9.024  12.031   1.440  0.1248  0.2347 -0.0887
20669W        W36930   1.814   1.546  13.368  0.1996  0.0046  0.5530
20670W        W36931   3.059   5.563  13.816  0.0815 -0.1044 -0.0853
20671W        W36932  14.832   9.727   0.213 -0.1533 -0.0744  0.0389
20672W        W36933  10.276  14.956   0.021  0.3004 -0.0377 -0.0344
20673W        W36934   8.726   5.770   3.989  0.0070  0.0480 -0.2041
20674W        W36935  15.540   3.950  12.271 -0.1674 -0.3749 -0.0381
20675W        W36936   9.480   0.072  12.754 -0.0329  0.2464  0.2216
20676W        W36937  16.237  11.056  12.006 -0.0557  0.1712  0.1608
20677W        W36938   7.775   1.893   0.770  0.0351 -0.2044 -0.2392
20678W        W36939   6.789   8.845   1.522  0.1986  0.0102 -0.0141
20679W        W36940   3.947   1.961   2.635  0.0387 -0.1543  0.0605
20680W        W36941   4.435  12.214   0.566 -0.1471  0.1451  0.1425
20681W        W36942   3.130  12.392   5.333  0.1293  0.0992  0.2994
20682W        W36943   7.837  15.943  14.371  0.0990 -0.2826 -0.0507
20683W        W36944   0.845  17.004   2.670 -0.2020 -0.1675 -0.1100
20684W        W36945  11.481   0.171  11.887 -0.1646 -0.0094 -0.0760
20685W        W36946   6.996   2.542  10.686 -0.1155  0.0581  0.0924
20686W        W36947   6.067  10.186  15.897  0.0898 -0.0521 -0.2554
20687W        W36948  14.147   7.643  15.686 -0.0010 -0.0722  0.0844
20688W        W36949  17.216   5.264   0.889  0.0830 -0.0097 -0.3350
20689W        W36950   6.979   0.324   1.416  0.3041 -0.0997  0.2199
20690W        W36951   2.807  16.848  13.767  0.0592  0.2221  0.1305
20691W        W36952  11.404   2.810  12.568 -0.1084 -0.2629  0.0469
20692W        W36953  16.610   7.854  14.322  0.3173  0.0086 -0.2122
20693W        W36954   2.415  12.729   1.930  0.1665 -0.0113  0.1352
20694W        W36955  17.237   0.946  11.743  0.1049  0.0185  0.1951
20695W        W36956   3.528   0.654   0.998 -0.2772  0.0827 -0.0409
20696W        W36957   8.703   2.469   4.312 -0.0389 -0.0853 -0.1207
20697W        W36958   3.586  14.418  15.910 -0.1740 -0.3071 -0.0289
20698W        W36959   3.615   8.060   5.855  0.1051  0.1435  0.0025
20699W        W36960  13.726   0.815   6.025 -0.1486  0.2177  0.1379
20700W        W36961   1.241   1.953  14.094 -0.0597 -0.2144 -0.1263
20701W        W36962   1.072   8.530   0.633  0.0238 -0.1366  0.1646
20702W        W36963   1.756   9.819  15.639  0.0200  0.1836  0.1119
20703W        W36964   5.557   7.581  12.908 -0.3487 -0.0287  0.0577
20704W        W36965   0.810   7.016   5.563 -0.0679  0.0520 -0.4494
20705W        W36966  17.423   2.558   4.299  0.0004 -0.2941  0.0552
20706W        W36967   1.832  10.973   3.527 -0.1961 -0.1146  0.2272
20707W        W36968  16.572  11.769   3.410 -0.0389  0.0697 -0.2283
20708W        W36969  14.413  12.123  14.824  0.1942  0.1837 -0.0379
20709W        W36970  16.870  14.612  13.229  0.0530  0.5833  0.0460
20710W        W36971   7.001  13.978   1.298 -0.0870  0.3104  0.1803
20711W        W36972  10.741   3.617  12.605 -0.1597  0.2069 -0.0773
20712W        W36973  10.034   2.248  14.371 -0.1248 -0.2173 -0.2181
20713W        W36974  16.060  15.088  12.352  0.2152 -0.2200  0.1432
20714W        W36975  13.277  15.771  12.538 -0.2088 -0.3769  0.2301
20715W        W36976   4.187  15.175   0.216  0.0131  0.2354  0.0518
20716W        W36977  11.038   6.026   4.757  0.2209  0.1013  0.1162
20717W        W36978  15.219  15.498  13.562  0.1580 -0.0475  0.2082
20718W        W36979   5.852  16.503   2.087 -0.1330 -0.0501  0.2797
20719W        W36980   7.429   7.566  12.473 -0.1176  0.2844 -0.3076
20720W        W36981  13.353  13.788  14.498 -0.0205  0.2677  0.1237
20721W        W36982   9.557   7.457  16.640 -0.0944  0.1689  0.3426
20722W        W36983   7.864   6.604  14.788 -0.0667  0.1464 -0.0913
20723W        W36984   6.963   4.814  15.991  0.0534  0.1044  0.0571
20724W        W36985   6.622  15.295  15.952  0.0471 -0.3816 -0.1233
20725W        W36986   0.209   0.750   3.388  0.0459  0.0788  0.0448
20726W        W36987  11.406  16.005   4.132 -0.0715 -0.0940 -0.1104
20727W        W36988   3.264   8.125  13.823  0.2071  0.2518  0.1836
20728W        W36989   8.694  10.941  15.005 -0.1088  0.1628 -0.0993
20729W        W36990  14.616   9.056   2.335  0.2758 -0.1565 -0.3510
20730W        W36991   5.755  17.029  15.020 -0.1249 -0.0345 -0.2156
20731W        W36992  12.995   5.252  14.569 -0.1445 -0.0682  0.3872
20732W        W36993  12.243  17.461   2.387 -0.1384 -0.0247 -0.1988
20733W        W36994  17.129   7.827   0.932  0.1344  0.1276  0.2569
20734W        W36995  11.919  16.523  12.575  0.0704 -0.0393  0.1350
20735W        W36996   4.229  13.448  14.607  0.1272 -0.5021 -0.0662
20736W        W36997   5.318  10.417   4.431 -0.2055  0.0850 -0.0216
20737W        W36998  10.354  12.183  16.675  0.1052 -0.0258 -0.1855
20738W        W36999  10.813   1.859  13.049 -0.1288  0.2658 -0.0926
20739W        W37000   1.893   0.194   0.527 -0.0554  0.2913 -0.0692
20740W        W37001  14.516   9.700  14.642 -0.1625 -0.1373 -0.2940
20741W        W37002   2.897   8.504  13.793  0.0333 -0.1466 -0.0863
20742W        W37003  12.950   8.695  12.944 -0.0459  0.3807 -0.1801
20743W        W37004   2.318   3.787  14.989 -0.0401 -0.2501  0.0072
20744W        W37005   2.685   3.744   5.099 -0.1441 -0.1211 -0.1284
20745W        W37006  10.016   4.102   2.022 -0.1152  0.1939  0.1794
20746W        W37007  16.581   4.038  13.533  0.2421 -0.1433 -0.3963
20747W        W37008  16.184   8.500   6.334  0.4262 -0.1175  0.1969
20748W        W37009  15.985  12.480  15.719 -0.0744 -0.3277 -0.0460
20749W        W37010  17.473  13.646   4.809  0.2162 -0.0254  0.0046
20750W        W37011   0.166  17.748   4.918 -0.2917 -0.3783 -0.2258
20751W        W37012   5.616  14.657  13.499 -0.0315  0.0046 -0.1586
20752W        W37013  10.968   5.661  12.337  0.0084 -0.0509 -0.0002
20753W        W37014  16.603   8.239   0.521 -0.0846 -0.1015 -0.1712
20754W        W37015  15.604  11.799   5.448 -0.0001  0.1997 -0.1560
20755W        W37016   4.386   9.921  16.474 -0.0657 -0.3263  0.2292
20756W        W37017   9.647   9.176   2.263  0.0350 -0.0979  0.0145
20757W        W37018   9.919  13.866   1.818 -0.1887  0.2051  0.0969
20758W        W37019   4.379   6.160   2.588 -0.0914 -0.4566 -0.3043
20759W        W37020   9.223   8.432  11.597  0.0858  0.1016 -0.0887
20760W        W37021  14.131   0.499   3.932  0.0904  0.3525 -0.2110
20761W        W37022  16.895   2.812  16.841 -0.1316  0.1059  0.1388
20762W        W37023   0.628  16.505  12.859  0.0572 -0.1135 -0.0313
20763W        W37024  16.953   3.251   0.671  0.0193  0.0382  0.1739
20764W        W37025  17.437   4.625   5.486  0.0799 -0.0329 -0.3363
20765W        W37026  15.166  11.874  12.182 -0.0587 -0.0125  0.1042
20766W        W37027   2.807  13.662  12.306  0.1308  0.1303 -0.3268
20767W        W37028   6.678   9.534  12.687  0.0417  0.0213 -0.2021
20768W        W37029   5.515  17.229   2.313  0.0663 -0.1826  0.0083
20769W        W37030   3.196   1.667   6.277 -0.0328 -0.1367  0.1872
20770W        W37031   6.653  17.496  15.106 -0.0796  0.1005  0.0104
20771W        W37032   9.992   3.592   5.091 -0.0052 -0.1058 -0.1361
20772W        W37033   3.979   7.797   0.817  0.0389  0.0397  0.1278
20773W        W37034   1.911  13.946  14.811 -0.3078  0.1974  0.0982
20774W        W37035   4.650  14.717   4.213 -0.0660  0.3251  0.2176
20775W        W37036   9.922   6.397   1.915  0.0778 -0.3264 -0.0464
20776W        W37037  14.203  15.338   0.035  0.0518 -0.0413 -0.1685
20777W        W37038   3.015  11.857  15.497  0.1157  0.0094  0.1948
20778W        W37039  12.141  17.080  16.707 -0.2214  0.4587  0.3141
20779W        W37040   0.629   5.865  13.511  0.1909  0.2021  0.0930
20780W        W37041  17.494  10.991  14.127  0.0015 -0.0482 -0.0989
20781W        W37042   8.630   6.231  15.216 -0.0187 -0.3102  0.0808
20782W        W37043   3.271  10.378  16.349 -0.1586  0.1902  0.1354
20783W        W37044  11.441   9.157   2.039  0.4231  0.2110 -0.0491
20784W        W37045   4.322   2.004  15.981  0.0037  0.1543 -0.0764
20785W        W37046   6.527   6.004   5.211  0.1338 -0.2326 -0.4442
20786W        W37047  16.321   9.052  14.816 -0.0084  0.1248 -0.1741
20787W        W37048   7.726  17.004  16.933  0.0723  0.0827 -0.0342
20788W        W37049   7.203  12.670   5.855 -0.1930  0.0833 -0.0236
20789W        W37050  10.011  10.630  12.487 -0.1941 -0.0732  0.1111
20790W        W37051   4.360   9.892  12.836  0.2326 -0.0192 -0.1895
20791W        W37052  14.165   6.559  15.088  0.1563 -0.0559  0.0610
20792W        W37053  16.446   6.507  14.569 -0.1383 -0.1706 -0.4789
20793W        W37054   4.823   1.146   5.771  0.1525  0.0594 -0.2998
20794W        W37055  10.112   2.397  16.438 -0.0250 -0.1787 -0.1436
20795W        W37056   3.723   3.583   5.211  0.1463 -0.2126  0.2195
20796W        W37057   7.035  11.361  12.000  0.0471 -0.0764 -0.1320
20797W        W37058   0.298   6.900  16.178 -0.1853 -0.0266  0.0920
20798W        W37059   0.365   7.031   5.310  0.0642  0.0780 -0.0495
20799W        W37060   0.508  11.967   2.342 -0.0693 -0.1062  0.0785
20800W        W37061  14.120   5.845   0.368 -0.2396 -0.1286 -0.3848
20801W        W37062   6.987  16.395   4.129  0.1772  0.0137  0.1322
20802W        W37063  15.772   4.544  15.842  0.0386  0.2271 -0.0229
20803W        W37064   2.651  12.690   0.346 -0.2099  0.0045  0.1477
20804W        W37065   9.994   2.365   4.443  0.1076  0.0692 -0.0933
20805W        W37066  11.782   9.633  14.477 -0.2366  0.2354  0.3806
20806W        W37067  11.500   0.625   3.351  0.2303  0.2546 -0.1099
20807W        W37068   0.877  14.481   3.581 -0.5325 -0.2438  0.0541
20808W        W37069  16.806   1.410   0.504  0.1262  0.1511 -0.0024
20809W        W37070   7.440   5.713   4.231  0.1854  0.1493  0.2843
20810W        W37071   9.413   7.173   0.723 -0.2530 -0.1167  0.2759
20811W        W37072   9.055   5.865  13.251  0.0618 -0.1762 -0.1422
20812W        W37073  10.537   2.105   1.177 -0.0848  0.2285 -0.2716
20813W        W37074   1.236   2.417  14.375 -0.0135 -0.0956  0.0703
20814W        W37075  10.856  17.458   4.280  0.1897 -0.0477 -0.2261
20815W        W37076  16.260   1.628   0.514  0.0682  0.0249 -0.4283
20816W        W37077   0.135  12.321   0.430 -0.2627  0.0038  0.0851
20817W        W37078  17.480  12.008  14.212  0.1649 -0.0493  0.1641
20818W        W37079  12.340  13.287   4.048  0.1521 -0.0222 -0.1555
20819W        W37080   6.513   0.939   1.630 -0.2311  0.0450 -0.1830
20820W        W37081  17.590   4.179  16.621  0.1542  0.1175  0.1580
20821W        W37082   1.784   7.865   2.696 -0.0497  0.1076  0.2178
20822W        W37083   6.730  13.370  15.228  0.0776 -0.1531 -0.2389
20823W        W37084  16.469  14.937  12.058 -0.1892  0.1224  0.0741
20824W        W37085   4.101   6.556   4.107 -0.0016  0.0367  0.0302
20825W        W37086   4.360   7.021   1.804 -0.0868  0.1394 -0.1618
20826W        W37087  12.042  12.761  14.669  0.0322  0.1285 -0.0119
20827W        W37088  10.778   0.924  12.762 -0.0060  0.1939  0.0444
20828W        W37089   6.478   4.073  13.755  0.1066  0.0443  0.2064
20829W        W37090  14.380  15.019  16.189 -0.1501 -0.2190 -0.0912
20830W        W37091  13.551  12.518  14.475 -0.0209 -0.3682 -0.0367
20831W        W37092   2.232  10.315   5.841  0.2314 -0.1616  0.2764
20832W        W37093  15.368   9.163   1.195  0.0423  0.0014 -0.2411
20833W        W37094   3.508   1.700  15.079  0.1299 -0.3654  0.2084
20834W        W37095   0.314   5.326   0.019 -0.1448  0.1755  0.0578
20835W        W37096  12.085   0.149  10.401  0.3028  0.1543  0.2259
20836W        W37097   9.502   8.309   3.336 -0.2598 -0.1275 -0.0898
20837W        W37098  17.548  13.188   1.825 -0.2483  0.0990 -0.1568
20838W        W37099   1.022   6.442   5.930  0.1158  0.1578 -0.0356
20839W        W37100   7.379  16.353   1.382 -0.1581 -0.1350 -0.0771
20840W        W37101  17.261   5.920   3.005 -0.1367 -0.0657  0.3797
20841W        W37102  14.205  14.704   1.649  0.0849 -0.0410  0.1615
20842W        W37103   0.870   4.571   2.266  0.1003 -0.2807 -0.0045
20843W        W37104   2.956  11.708  12.555 -0.4849 -0.1119  0.3264
20844W        W37105  14.537  12.574  12.325 -0.3157  0.2123 -0.0797
20845W        W37106  10.270   8.808  15.488 -0.0427  0.0931  0.0813
20846W        W37107   6.007  16.709  15.281  0.0887  0.0158  0.1813
20847W        W37108  16.971  15.647  16.272  0.0254 -0.1377 -0.1860
20848W        W37109  13.758   5.163  16.968 -0.0495  0.1334  0.1990
20849W        W37110   2.190   2.061  14.245 -0.2042  0.3321 -0.0425
20850W        W37111   4.575  11.064   5.916  0.0197  0.0267 -0.2081
20851W        W37112  10.652   7.810   1.878  0.1320  0.0098 -0.1433
20852W        W37113   6.612   2.610   4.165  0.0549  0.2226 -0.2257
20853W        W37114  13.723  13.591  13.791  0.0463  0.1294  0.3794
20854W        W37115  16.073   1.360  12.744  0.1327 -0.0448  0.0776
20855W        W37116  12.902   2.919  16.640 -0.2530  0.3248  0.1295
20856W        W37117   3.637   3.467  13.531  0.0150  0.0270 -0.2970
20857W        W37118   1.884   1.584   1.845 -0.0085  0.4359  0.3793
20858W        W37119   4.635   2.897   1.624 -0.2287 -0.1106  0.2479
20859W        W37120  10.381  14.095  15.388  0.2061  0.0945  0.0402
20860W        W37121   4.591  15.627  13.521  0.2755  0.2364 -0.3761
20861W        W37122  15.602   1.861   5.176  0.2682  0.1010 -0.1916
20862W        W37123   9.015  16.190  15.236 -0.0855 -0.5050  0.1452
20863W        W37124   4.799  17.413  11.810 -0.3219  0.0976 -0.1003
20864W        W37125   4.573   9.851  12.407  0.0467  0.0168  0.0082
20865W        W37126  13.811   5.874   1.634  0.1915 -0.1319 -0.0925
20866W        W37127   9.176   2.901   2.668  0.0006 -0.3517 -0.2157
20867W        W37128  13.122  11.414   2.133  0.2552  0.0508 -0.1429
20868W        W37129  15.935   7.524   0.056 -0.5794  0.1736  0.0254
20869W        W37130   6.370  12.701  15.277 -0.1485 -0.0012  0.3869
20870W        W37131  10.178   5.388  11.764 -0.1224 -0.4341 -0.0789
20871W        W37132   2.540   3.326  15.199 -0.0535  0.1431  0.1223
20872W        W37133   6.539   8.117  16.775  0.0429 -0.2000 -0.0122
20873W        W37134  11.456   0.203  14.807 -0.1381 -0.2828 -0.1258
20874W        W37135   9.819   0.198   1.098  0.1817  0.0344  0.1775
20875W        W37136   1.453  12.364  15.980  0.3962  0.0603  0.3212
20876W        W37137  13.575  10.490  16.231 -0.1846  0.2024  0.3054
20877W        W37138  14.523  13.864  12.774  0.2814 -0.0429 -0.0562
20878W        W37139   7.962  12.581   4.023 -0.1145  0.0410  0.3717
20879W        W37140   8.467   7.851  15.556  0.2229  0.1409 -0.0286
20880W        W37141  11.817   1.953  16.637  0.0397 -0.1786 -0.1973
20881W        W37142   2.477   4.196   5.172 -0.1055 -0.3804  0.0038
20882W        W37143   3.903   8.300  13.120 -0.1457  0.0228  0.0981
20883W        W37144  17.663   8.507   3.311  0.3248 -0.0281  0.1835
20884W        W37145  11.985  10.984   3.194 -0.1331 -0.3707  0.1549
20885W        W37146   3.144  13.905   1.580  0.0096 -0.2026 -0.2473
20886W        W37147   6.047  13.564   1.519  0.2484 -0.2238 -0.3711
20887W        W37148   1.119   1.128  16.915  0.1273  0.0310 -0.0391
20888W        W37149  15.790   7.255   0.499 -0.1912  0.0243  0.0987
20889W        W37150   5.158  11.204   5.595 -0.0959 -0.1079 -0.1163
20890W        W37151   0.646   0.426  12.567  0.1297 -0.0741 -0.0384
20891W        W37152  17.284   0.433   1.048  0.2644 -0.0299  0.0100
20892W        W37153   6.153  10.499  14.640  0.0727 -0.0423  0.1687
20893W        W37154   3.305  16.061   4.023 -0.0326 -0.0291  0.0369
20894W        W37155   7.484  11.866   2.819  0.1534  0.0089 -0.0776
20895W        W37156  15.050   1.413   0.971  0.1220 -0.1481 -0.0309
20896W        W37157   6.341   1.852  14.396  0.2104  0.2035  0.2376
20897W        W37158   0.464  14.642   3.845  0.2744  0.4577  0.2630
20898W        W37159  16.283  16.631  14.154 -0.1909 -0.2213  0.0579
20899W        W37160   8.842  11.633   1.780 -0.0693  0.0207 -0.1495
20900W        W37161  12.033   6.948   4.812 -0.5183 -0.3360 -0.0625
20901W        W37162   4.947   8.219  14.945  0.2158 -0.0782 -0.0684
20902W        W37163   6.223  13.201   1.886  0.1324 -0.4149  0.3356
20903W        W37164  11.204  16.160  16.642  0.0249  0.0337 -0.0946
20904W        W37165  14.553   8.909   3.274 -0.0459  0.2050  0.2597
20905W        W37166  14.374   3.626   0.515 -0.2631 -0.2835  0.0442
20906W        W37167   4.992  14.317   4.128 -0.2348  0.1545 -0.0430
20907W        W37168   6.510   7.730  13.582  0.0605  0.1263  0.1340
20908W        W37169  11.874  11.072  13.486 -0.2612 -0.3566 -0.4127
20909W        W37170   1.394   5.085  14.424  0.0933  0.1834  0.1695
20910W        W37171   5.134  16.932   1.910 -0.0296  0.1609  0.3213
20911W        W37172  17.065  13.660  13.377 -0.1692  0.0299  0.0197
20912W        W37173   5.417   3.917   2.528 -0.0984  0.0300 -0.0619
20913W        W37174   6.110   3.235  16.539  0.2274  0.0560 -0.3671
20914W        W37175   9.623   8.726  13.226  0.4489  0.1724  0.1566
20915W        W37176   9.383   7.826  13.195 -0.1065  0.0578 -0.3007
20916W        W37177  15.690   3.406   2.144 -0.2088  0.0186  0.1451
20917W        W37178  10.386   7.157   5.409 -0.0110 -0.0029  0.1178
20918W        W37179   5.481   8.866  15.768  0.1283  0.0839 -0.0539
20919W        W37180   6.400  12.846   5.762  0.1298  0.2801 -0.2485
20920W        W37181   0.315  11.066  12.102 -0.0103  0.1263  0.4174
20921W        W37182   1.113  13.283  13.331  0.2572 -0.2156  0.0494
20922W        W37183   9.609  11.130  16.605  0.4592  0.2100  0.1762
20923W        W37184   1.314  12.907  12.949 -0.0183  0.0697  0.0594
20924W        W37185  14.358   2.456  15.052  0.1882  0.2923 -0.1328
20925W        W37186   7.604   6.972   1.207 -0.0610 -0.0492 -0.4002
20926W        W37187  11.060   4.599   4.007  0.3131  0.0385 -0.0680
20927W        W37188   5.471  16.606  15.293 -0.1149 -0.3275  0.1137
20928W        W37189   8.469   6.687   1.589  0.3965 -0.2008 -0.1202
20929W        W37190  10.096   8.747  11.473  0.5637 -0.0380 -0.0858
20930W        W37191  12.175  16.637   1.221  0.1774 -0.0321  0.0495
20931W        W37192  10.612   7.080   2.178  0.2651  0.1094  0.0670
20932W        W37193  10.501  14.228  12.965  0.1177 -0.0062  0.2001
20933W        W37194  12.749   5.915  13.921 -0.3285 -0.0883 -0.0005
20934W        W37195  11.900   8.619   6.544 -0.0688  0.3341  0.0442
20935W        W37196  12.588  10.917  15.320  0.1835  0.0417 -0.0515
20936W        W37197  11.658  15.323   3.903  0.0348  0.0427 -0.0037
20937W        W37198   2.198  15.874   0.918  0.1579  0.2417 -0.1077
20938W        W37199   0.454  12.940  15.037  0.0032 -0.2127  0.0686
20939W        W37200  15.723  10.960   4.073  0.2314 -0.1622 -0.0518
20940W        W37201   8.940  12.358  15.625 -0.1201 -0.1860 -0.2225
20941W        W37202  14.229   2.429   1.712 -0.1263  0.2239  0.0639
20942W        W37203   7.340   1.825   2.179  0.0720  0.0838 -0.0723
20943W        W37204   7.659   4.879   0.955 -0.1028  0.2016  0.1345
20944W        W37205  13.450   0.465   5.168  0.0048  0.1495 -0.1828
20945W        W37206   9.854   5.347   3.488  0.2430 -0.0495  0.0693
20946W        W37207  16.265   9.777  13.723 -0.1623  0.0395  0.0060
20947W        W37208   1.671  11.205  14.890  0.2004  0.0653  0.4243
20948W        W37209   7.214  15.729  16.744  0.0906  0.2973  0.0746
20949W        W37210   1.467   1.067   0.886 -0.0341 -0.0543 -0.0887
20950W        W37211  12.017  15.392   1.552 -0.2319 -0.0672 -0.1765
20951W        W37212  14.652  15.443  16.295  0.1898 -0.4152  0.1219
20952W        W37213  10.034  10.623  15.369 -0.0916 -0.2019 -0.1414
20953W        W37214   6.171   4.853   1.398 -0.1532  0.5811  0.0661
20954W        W37215   6.733   7.421  15.143  0.0968 -0.1204  0.1912
20955W        W37216   6.289   0.047   2.399  0.1633  0.2954 -0.1188
20956W        W37217  10.344  11.731   5.454  0.0963  0.1951 -0.1217
20957W        W37218   4.812  17.317   1.001  0.1949 -0.1184  0.2361
20958W        W37219   5.817  10.345  15.463 -0.0114 -0.2724  0.1898
20959W        W37220   0.495   8.038   0.359  0.0027  0.3041 -0.2374
20960W        W37221   0.913  16.046   1.688 -0.1191 -0.0518  0.3732
20961W        W37222  15.692  11.061  16.219 -0.0347 -0.1995  0.0020
20962W        W37223  12.038  11.518   4.560 -0.1493  0.1009 -0.0669
20963W        W37224  15.888   5.673   4.637 -0.0056  0.1226 -0.0080
20964W        W37225  14.341   5.129  14.848  0.1958  0.2307 -0.0373
20965W        W37226   7.852   8.314   1.092 -0.1374 -0.1240  0.5329
20966W        W37227   8.860  12.863   5.545  0.0771  0.2637 -0.0181
20967W        W37228   9.817   1.038  16.698 -0.1660  0.0061 -0.1211
20968W        W37229   1.743   7.644  14.972 -0.1323 -0.2496 -0.1411
20969W        W37230   1.835   0.622   3.956  0.2808 -0.0338  0.0895
20970W        W37231  12.971   5.969  15.949 -0.0001  0.1019  0.2814
20971W        W37232  12.151   1.587   2.113  0.0437 -0.2308 -0.2672
20972W        W37233  16.330   6.065  14.720  0.0525  0.1063 -0.0388
20973W        W37234   1.793  16.967  12.307 -0.1383  0.1416 -0.3774
20974W        W37235   1.862  10.154  13.824 -0.2724 -0.1014  0.1248
20975W        W37236   8.624  12.363   4.759  0.1230  0.1159  0.0024
20976W        W37237   4.668  13.964  10.903 -0.1153  0.1169 -0.0444
20977W        W37238   9.690   7.426   1.934  0.1824 -0.0888 -0.1858
20978W        W37239  12.069   8.427   1.309 -0.2735 -0.6101 -0.1051
20979W        W37240   4.390   6.991   5.007 -0.1009  0.2039  0.1140
20980W        W37241  13.974  16.325  15.412 -0.0957 -0.0130 -0.1532
20981W        W37242   1.547  10.410   2.650  0.0885  0.1365 -0.1546
20982W        W37243  14.757  15.717   6.493 -0.2679 -0.1812  0.0528
20983W        W37244  10.940   7.296   2.928  0.0558  0.2831 -0.0051
20984W        W37245   7.432   9.114   5.608  0.0733  0.0624 -0.0887
20985W        W37246  13.839  12.904  14.500 -0.2169  0.2065  0.0225
20986W        W37247   6.669  12.790  13.890  0.0991  0.2465  0.1611
20987W        W37248   2.869  17.828   5.292 -0.1162  0.3364 -0.5125
20988W        W37249   7.317   7.707   5.122 -0.2737 -0.0858  0.0499
20989W        W37250   4.805  14.099   2.581  0.1236 -0.2203 -0.0211
20990W        W37251  11.376   5.922  11.864  0.1573 -0.2173  0.1334
20991W        W37252   8.611  17.158  15.432 -0.1888  0.0189  0.1739
20992W        W37253  13.067   5.807  12.466 -0.2517  0.1495 -0.0234
20993W        W37254   4.404   4.610  15.467  0.0559  0.0527 -0.1259
20994W        W37255  16.307  12.350  13.554 -0.1952 -0.0494  0.3833
20995W        W37256   5.822  12.562   0.656  0.0448 -0.2070 -0.1123
20996W        W37257  12.412  16.136   2.120  0.0766 -0.1658 -0.1620
20997W        W37258   7.999   8.184  16.413  0.1195 -0.3216  0.0744
20998W        W37259   3.013   6.058  15.746  0.0278  0.2115  0.1425
20999W        W37260   4.484  12.995  16.082 -0.0007 -0.0963  0.1075
21000W        W37261   8.202  16.747   2.343  0.0244 -0.0801  0.0800
21001W        W37262   3.856   9.762   2.233  0.2122 -0.2625 -0.0507
21002W        W37263   3.283   0.418  16.618 -0.2815 -0.1274  0.1541
21003W        W37264  10.697  13.261  16.701 -0.0660 -0.0754 -0.3517
21004W        W37265   8.535   0.431  14.422  0.1244 -0.4523 -0.0159
21005W        W37266  15.657  13.433   5.628  0.0391 -0.0935 -0.3403
21006W        W37267  17.117  11.213   3.802  0.1081 -0.0279 -0.0047
21007W        W37268  15.030  12.897  12.851  0.0942 -0.4279 -0.0000
21008W        W37269  11.797  11.967   5.179  0.0040  0.1468 -0.0224
21009W        W37270  10.217  10.736  11.975  0.1548  0.2789  0.1449
21010W        W37271  14.808  16.330  15.647  0.0681 -0.2280  0.0134
21011W        W37272   4.820  14.376   5.413 -0.0863  0.0536  0.2898
21012W        W37273   5.958   9.431   1.440  0.1405 -0.0148  0.1456
21013W        W37274  12.117   3.328  12.197 -0.2223  0.1763  0.1237
21014W        W37275  13.105   4.750  15.027  0.0132 -0.4573  0.2257
21015W        W37276  10.083  17.086   3.774  0.2239  0.2058 -0.0629
21016W        W37277   7.395   6.145   1.503  0.0370  0.0467 -0.0225
21017W        W37278   3.453  10.864   3.166 -0.0834 -0.2376 -0.1562
21018W        W37279   7.833  13.886  11.615  0.0549 -0.1296 -0.0143
21019W        W37280  13.802  11.237  14.543  0.0965 -0.0368 -0.0739
21020W        W37281  14.129  13.347  13.583  0.0310 -0.0058 -0.0700
21021W        W37282   4.711   1.572   0.605  0.0130 -0.4332  0.0397
21022W        W37283   3.601   6.711   2.036  0.1677  0.3111 -0.0859
21023W        W37284   6.301   3.709   3.743  0.0300 -0.1039  0.2498
21024W        W37285  11.625  14.957   3.187 -0.0298  0.1025 -0.7070
21025W        W37286  11.516   4.626  11.358 -0.0190  0.3722  0.1213
21026W        W37287   7.429   9.552  12.416  0.1341  0.0997  0.0706
21027W        W37288  12.260   7.323   4.546 -0.2335 -0.2286  0.1120
21028W        W37289   1.337   7.111   2.029 -0.2549  0.0344  0.1557
21029W        W37290  12.109   8.120   0.589 -0.2869 -0.1549 -0.0981
21030W        W37291  13.518  12.908  14.144 -0.2996 -0.1372 -0.2945
21031W        W37292   0.169  14.955  15.197 -0.2406 -0.2801 -0.1308
21032W        W37293   1.168  13.437   3.744 -0.1550 -0.0335 -0.0335
21033W        W37294  14.519   1.238   4.351 -0.2199  0.3030 -0.2844
21034W        W37295  17.515  11.849   2.711 -0.1242 -0.0533 -0.1004
21035W        W37296   4.262  16.469   3.602  0.0895  0.1568  0.0226
21036W        W37297  16.601   5.104   3.968  0.0334 -0.1550 -0.0366
21037W        W37298   1.781   3.051  16.287 -0.0885  0.0829  0.0685
21038W        W37299   1.454  16.687  14.124  0.3163 -0.1704  0.0615
21039W        W37300  17.028  15.626   2.134  0.0950  0.1704 -0.1728
21040W        W37301   1.418   9.593   0.883 -0.0370  0.3576  0.1088
21041W        W37302   2.672  15.762   1.142  0.1349 -0.2067 -0.0529
21042W        W37303   2.663  13.557   4.670  0.0351 -0.0179  0.0264
21043W        W37304   3.601   3.746   0.996  0.1110  0.0016 -0.0685
21044W        W37305  10.167  12.796  15.358  0.1133  0.0032 -0.0689
21045W        W37306  10.605   2.419   2.719  0.0192  0.0837 -0.1720
21046W        W37307   7.670  15.215   3.528 -0.5291  0.1558 -0.0994
21047W        W37308   7.418  13.000   3.371  0.0702 -0.1090  0.2131
21048W        W37309  15.691   4.226   5.637 -0.1757 -0.0298 -0.1347
21049W        W37310  17.070  13.096  13.252  0.0281  0.0796  0.2828
21050W        W37311   5.554   4.135   5.430  0.1609  0.2581  0.4896
21051W        W37312  17.331   4.652   4.547 -0.1882  0.2685  0.2065
21052W        W37313  15.265   7.183   3.575 -0.2285  0.3614  0.1917
21053W        W37314   6.571  10.212  13.490 -0.0115  0.0048 -0.0715
21054W        W37315  15.597  12.775   1.833  0.1432  0.1312  0.0466
21055W        W37316   2.026   9.404   3.829 -0.0439 -0.2157 -0.1447
21056W        W37317  17.574  13.680  14.832 -0.0406 -0.0598 -0.0519
21057W        W37318   8.691   4.700  16.709  0.1369 -0.0777 -0.0073
21058W        W37319   2.385   9.717   1.165  0.0400  0.2179 -0.0040
21059W        W37320   7.890  11.784  14.851 -0.0721 -0.1429  0.4287
21060W        W37321  16.789   5.559  13.782 -0.0979 -0.3730 -0.1223
21061W        W37322  12.069  12.955  14.198 -0.0350 -0.0027 -0.0629
21062W        W37323  13.935   0.907   0.268  0.0724 -0.3068 -0.1538
21063W        W37324  17.112   8.672  15.242 -0.0511 -0.1698 -0.1235
21064W        W37325  14.126  14.671  15.824  0.0481 -0.1502  0.2380
21065W        W37326   5.751   2.764   5.595 -0.0302  0.1120 -0.0029
21066W        W37327   7.771   2.038   2.417 -0.1126 -0.1131 -0.0724
21067W        W37328  11.664  12.891  12.538  0.4688  0.1492 -0.2680
21068W        W37329   2.945   8.417   6.420 -0.4172  0.0427 -0.0151
21069W        W37330   3.573  10.839   1.654 -0.1918 -0.1669 -0.2689
21070W        W37331  14.473   4.817  12.722 -0.1594 -0.2678 -0.0807
21071W        W37332  10.750  10.610   1.409 -0.0004 -0.3430 -0.1383
21072W        W37333  10.058   3.153   4.868  0.0142  0.0174  0.1911
21073W        W37334  15.015  10.826  14.403 -0.4575  0.2880  0.0775
21074W        W37335   4.058  15.389   5.149  0.2731 -0.2448 -0.3018
21075W        W37336   5.534  13.394   5.125 -0.0063 -0.1569 -0.1619
21076W        W37337   3.309   3.636   2.993  0.4220  0.0655 -0.0837
21077W        W37338   2.871   0.848  14.144 -0.1881 -0.0033  0.0986
21078W        W37339   7.769   7.411   1.932  0.1534 -0.0581 -0.2888
21079W        W37340  14.431  10.663  14.745  0.0123 -0.0619 -0.0711
21080W        W37341  12.761   0.984   2.897  0.0463 -0.0423 -0.1671
21081W        W37342  11.839   7.527   0.825 -0.2600 -0.1860  0.1469
21082W        W37343   5.471  17.498  12.371 -0.1764  0.2964 -0.3093
21083W        W37344   0.501  15.183   4.956 -0.1134  0.2197  0.0153
21084W        W37345   8.986   1.846  15.352 -0.1127 -0.0557  0.2408
21085W        W37346  13.207   5.774   2.897 -0.3524 -0.1617 -0.1017
21086W        W37347   3.515   5.173   4.795 -0.0667 -0.0685  0.4246
21087W        W37348  11.945  14.837   1.637 -0.0775  0.0556 -0.2165
21088W        W37349   2.279   4.888  14.636 -0.4867 -0.1589 -0.2988
21089W        W37350   8.398  11.875  12.054  0.1891 -0.0345  0.2438
21090W        W37351  10.159  15.704  15.626  0.1994 -0.2806  0.1978
21091W        W37352   7.378  15.860  12.826 -0.0361 -0.2047  0.0893
21092W        W37353   0.048   8.274   2.944 -0.1456  0.0419  0.0142
21093W        W37354  13.259  17.811  14.884 -0.0357 -0.0801 -0.0739
21094W        W37355  17.373   3.230   0.953 -0.3602  0.0011 -0.0725
21095W        W37356   4.633   3.502   4.114  0.2503 -0.2414  0.4153
21096W        W37357   0.107   9.882  14.395  0.1555 -0.1652  0.1152
21097W        W37358  16.948   6.989  15.260 -0.0047  0.1000 -0.1287
21098W        W37359   4.368  14.409   1.115  0.0337 -0.0704 -0.0246
21099W        W37360  14.639   6.097  11.625  0.1445  0.2040  0.3107
21100W        W37361  16.906   8.226  16.891  0.0404 -0.0922 -0.0912
21101W        W37362   9.750  14.353   0.804  0.3056  0.0333 -0.1731
21102W        W37363   9.219  10.699   1.038  0.0311 -0.0275  0.4751
21103W        W37364   5.655  11.332  13.485  0.0969 -0.3237 -0.2038
21104W        W37365   3.506  11.589  12.336  0.4838  0.0611  0.0912
21105W        W37366  15.873   4.051   1.398  0.2837 -0.1267  0.2823
21106W        W37367   0.126  11.499   0.518 -0.2933  0.2537 -0.1907
21107W        W37368   1.699   7.826  12.600 -0.1435 -0.3759 -0.0187
21108W        W37369   5.885  11.359   3.628  0.0804  0.0786 -0.3064
21109W        W37370   8.517   4.357   2.933  0.2014 -0.0326 -0.2754
21110W        W37371  14.103   4.984  15.292  0.0729  0.0855  0.2843
21111W        W37372  15.222   2.284  16.194 -0.0510  0.3232 -0.0614
21112W        W37373   6.787  14.850  14.602 -0.3483 -0.2004  0.1213
21113W        W37374   7.401   1.020   0.711  0.1581 -0.1944  0.0604
21114W        W37375   9.499   2.095  14.469  0.1264 -0.0961  0.3913
21115W        W37376   5.541  14.436   0.934 -0.0916  0.2908  0.0924
21116W        W37377   8.332  13.522   3.343  0.2920  0.3003 -0.0610
21117W        W37378   9.717   9.356  11.052  0.4140  0.0147 -0.2055
21118W        W37379   0.481   1.929   1.695  0.5480 -0.0535 -0.0118
21119W        W37380  14.946  10.705  15.764 -0.0622  0.0075 -0.1002
21120W        W37381  11.628  14.803   3.753  0.0938  0.0966  0.0018
21121W        W37382   8.835   3.357  13.893  0.0733  0.1538  0.0621
21122W        W37383  12.029  17.032  12.505  0.0249  0.1520 -0.0385
21123W        W37384   5.259   2.338   3.933  0.0419  0.2538 -0.3261
21124W        W37385   6.963   0.637   2.344  0.0728  0.2674 -0.0549
21125W        W37386  15.968  17.275  16.422  0.0027 -0.2148 -0.1518
21126W        W37387   1.214  15.767  14.302  0.3100 -0.0026  0.0708
21127W        W37388   4.067  14.181   3.691  0.0280  0.0279 -0.1195
21128W        W37389   8.368   9.923  13.304 -0.0913 -0.0048 -0.1082
21129W        W37390  17.323   3.927   4.989 -0.2577 -0.0338  0.0722
21130W        W37391   9.819  12.765   5.860  0.0270  0.0297 -0.0526
21131W        W37392   1.537   5.007  15.734  0.1447 -0.0391 -0.1112
21132W        W37393  12.895  17.560  15.812  0.2373  0.0628  0.1095
21133W        W37394   3.399   6.358   3.032  0.1204  0.3705  0.2325
21134W        W37395  10.182   1.101   3.722 -0.2953 -0.0406 -0.2181
21135W        W37396   7.283   5.196  12.758 -0.0237 -0.1017 -0.0772
21136W        W37397  15.282   5.205  16.818  0.0393  0.2173  0.0666
21137W        W37398   3.293   5.318   1.506  0.1026 -0.1166  0.1842
21138W        W37399  12.225  14.186  11.874 -0.4333  0.2654 -0.1015
21139W        W37400   0.971  14.849   5.692  0.2877  0.1072 -0.1545
21140W        W37401   0.587   5.567   0.456 -0.2546  0.2847  0.0142
21141W        W37402  16.122  14.933   3.498  0.1198  0.4105 -0.0259
21142W        W37403   4.292   1.339   3.257 -0.0121 -0.1418 -0.1457
21143W        W37404  12.675   1.251   2.082 -0.2175  0.1739  0.0841
21144W        W37405   8.738  14.508   2.583  0.1032  0.1098 -0.1470
21145W        W37406  15.450   2.781   1.109  0.0357  0.1258 -0.0285
21146W        W37407  12.823  13.077  13.477 -0.1641 -0.1760 -0.1277
21147W        W37408  13.113   4.681   0.212  0.2325 -0.2641  0.1066
21148W        W37409   0.652  13.650   0.453  0.0097  0.0246 -0.0033
21149W        W37410  15.835   8.317  13.918  0.1689 -0.1809  0.1499
21150W        W37411   8.967   9.887  15.440 -0.2138 -0.1838  0.0670
21151W        W37412   8.435   5.652  16.392 -0.0350 -0.1492 -0.1190
21152W        W37413  14.763  14.699  16.434  0.1394 -0.0340 -0.1078
21153W        W37414  12.160   6.482   2.633  0.2328  0.1938  0.3908
21154W        W37415  13.552  15.806  14.445 -0.2035  0.2963 -0.0691
21155W        W37416   9.481  15.011  13.361  0.2789 -0.0111  0.3732
21156W        W37417  14.786  10.699  12.314  0.0998  0.3053  0.3368
21157W        W37418  11.676  15.020  12.296 -0.0243 -0.3554 -0.0221
21158W        W37419   0.985  13.737  16.526 -0.1641  0.0393 -0.1867
21159W        W37420   7.799  17.676  12.030 -0.2992 -0.1787  0.3918
21160W        W37421   6.793   1.354   1.507 -0.1741 -0.0327  0.0063
21161W        W37422   3.805  11.554   1.142 -0.1884  0.2093  0.1028
21162W        W37423   1.898  15.281  14.011  0.0047  0.0139  0.1371
21163W        W37424  12.569  13.621   3.089  0.0297  0.1080  0.1373
21164W        W37425   4.701   7.247   3.982  0.0813 -0.1000  0.0909
21165W        W37426  11.092   0.033   2.503 -0.2034 -0.1891  0.1405
21166W        W37427   4.651  14.251   0.383 -0.0424 -0.1475 -0.1534
21167W        W37428   9.568  16.016  12.331 -0.2329  0.1841 -0.1007
21168W        W37429   2.782   0.832   3.434 -0.3536 -0.0315  0.3715
21169W        W37430   1.449   8.069  15.802  0.1760  0.1729  0.1609
21170W        W37431  11.457   3.707   1.044 -0.0358  0.1317  0.1714
21171W        W37432  10.988  15.744  12.300 -0.5095 -0.0493  0.1698
21172W        W37433  12.818   9.651  15.326 -0.1310 -0.0482 -0.1577
21173W        W37434   4.989  15.420   5.824 -0.2852  0.1521  0.0968
21174W        W37435   0.190  10.370  14.601  0.0712  0.0691 -0.0884
21175W        W37436   8.777   6.435  12.161  0.0152 -0.1723 -0.1446
21176W        W37437   3.305   3.397  15.873  0.3204  0.2286  0.0906
21177W        W37438  15.088   8.440  13.356  0.0526  0.0290 -0.3428
21178W        W37439   5.975  14.724  15.604 -0.0334  0.3104 -0.5236
21179W        W37440   9.843  16.977   5.290  0.0127 -0.1744  0.0359
21180W        W37441   7.993   7.806   4.675 -0.0633  0.1334 -0.0843
21181W        W37442   3.835   9.472   2.642 -0.0885 -0.1725  0.1906
21182W        W37443  14.142   5.939  16.422  0.0058 -0.3757  0.0446
21183W        W37444   4.768   2.847  15.319  0.1552  0.2228 -0.4453
21184W        W37445   1.468  14.552  16.073  0.0947 -0.1532 -0.2805
21185W        W37446   3.326   6.245   2.521 -0.2093  0.5335  0.0107
21186W        W37447   5.161   0.759  13.614 -0.0626 -0.3323 -0.0596
21187W        W37448  12.713   4.131  11.837  0.5049 -0.2248 -0.0884
21188W        W37449   3.042   5.863   0.069 -0.0775  0.2769  0.1400
21189W        W37450  15.522   6.328   2.280 -0.0073  0.2885 -0.0767
21190W        W37451   6.300   2.742  14.415 -0.2094  0.0816 -0.0178
21191W        W37452  14.656   2.424   0.941  0.1672 -0.3171 -0.1465
21192W        W37453   0.274   4.190  16.855 -0.3428  0.1293  0.3133
21193W        W37454  10.287   6.928   0.600 -0.2479 -0.1186  0.0319
21194W        W37455  11.137  16.563   4.656  0.1601  0.0253  0.1076
21195W        W37456   6.735   4.471   0.000 -0.3042  0.1392 -0.1246
21196W        W37457  11.202  14.478  15.627  0.0940 -0.0884  0.1937
21197W        W37458   1.283   3.447   5.330 -0.2261 -0.0387 -0.1393
21198W        W37459   4.937  12.574  14.369  0.0207  0.1269 -0.2258
21199W        W37460   8.857  11.398   4.673 -0.4818 -0.2680 -0.1649
21200W        W37461   2.220  14.007  11.666  0.2539 -0.1557  0.1475
21201W        W37462   0.270  13.359   1.732  0.0225 -0.0016  0.1558
21202W        W37463  13.374   6.052  15.603  0.0776  0.0423  0.1688
21203W        W37464  15.835  14.838  14.365 -0.2166 -0.0640  0.2542
21204W        W37465   4.964   4.342  11.798  0.3441 -0.2342  0.0954
21205W        W37466   7.023   1.980  13.004  0.2655  0.0320  0.2798
21206W        W37467   2.040  12.814   1.613  0.1408 -0.0851  0.0843
21207W        W37468  15.941   6.079  15.792 -0.2373  0.1662  0.0162
21208W        W37469   0.347   9.930  15.967 -0.1415  0.0827  0.2916
21209W        W37470  16.878   5.618  10.658 -0.2015  0.1333 -0.0308
21210W        W37471  17.076  11.310   5.815 -0.0414  0.6877 -0.0793
21211W        W37472  11.814   5.007   2.121 -0.3060  0.3108  0.0460
21212W        W37473   9.478  14.498  11.912 -0.0784 -0.0694 -0.2698
21213W        W37474  17.223   6.122  12.304  0.0763 -0.1363  0.0383
21214W        W37475  14.854  16.349  13.988 -0.5967 -0.1215  0.0177
21215W        W37476   2.621  14.519   3.541  0.0401 -0.2390  0.0018
21216W        W37477  15.833   2.873   1.447 -0.0478  0.0989  0.0941
21217W        W37478  10.783   9.013  15.541 -0.1772  0.3794 -0.3081
21218W        W37479   7.989   4.401   2.537  0.0943 -0.0174  0.0410
21219W        W37480  16.501  13.680  16.058  0.0645 -0.2004 -0.2928
21220W        W37481   6.135  12.617   2.708  0.0593 -0.1596  0.2350
21221W        W37482   2.585  13.252   0.782  0.1130 -0.4671 -0.2129
21222W        W37483  17.411  12.552  14.154 -0.3895  0.1039 -0.1143
21223W        W37484   9.007  14.566  12.090  0.2113 -0.0135 -0.4258
21224W        W37485  15.082  11.728   4.770  0.0203 -0.2478  0.2299
21225W        W37486   7.724  11.189   1.180  0.1747  0.1646  0.0360
21226W        W37487   3.414   1.959  14.463 -0.3648  0.1959  0.0317
21227W        W37488   9.817   3.978   4.689  0.0247 -0.1448  0.1770
21228W        W37489  15.333   8.516   3.035  0.2535  0.4284  0.1771
21229W        W37490   8.292  17.340  13.298 -0.0016  0.1027  0.0815
21230W        W37491   7.230   0.108   2.350  0.1623 -0.0744 -0.0923
21231W        W37492  16.567  14.797   4.549  0.0597  0.3576 -0.2257
21232W        W37493  16.314   2.614  11.840  0.4149 -0.2095  0.2017
21233W        W37494   1.559   1.295  13.801 -0.0452  0.0983 -0.1488
21234W        W37495   2.789  13.928   5.176 -0.0290 -0.0755  0.1245
21235W        W37496   2.336  17.235   3.137 -0.0994  0.0968  0.1580
21236W        W37497   7.990   3.286  13.494  0.0325  0.1607 -0.1190
21237W        W37498   3.254   7.666  13.621  0.2560 -0.1056 -0.0236
21238W        W37499   6.354  13.557   4.041  0.2072  0.3702  0.1197
21239W        W37500  11.741   1.932   0.694  0.2061 -0.0835  0.0306
21240W        W37501  14.152   6.555   3.141  0.1179 -0.2954  0.2106
21241W        W37502  16.307   5.217  14.956  0.2000  0.0587  0.1094
21242W        W37503  13.729   5.238  12.903 -0.1464 -0.1083 -0.3912
21243W        W37504  10.414  16.952   2.246  0.0527  0.0896  0.1559
21244W        W37505   1.516  16.812   1.905  0.3580  0.2121 -0.4875
21245W        W37506   9.649   0.928   0.771  0.2642 -0.2603  0.0698
21246W        W37507   5.456  16.846  13.462 -0.0149 -0.2528 -0.2311
21247W        W37508  10.952   5.107  16.904 -0.2251 -0.0223 -0.2040
21248W        W37509   3.044   1.890   5.847 -0.1174  0.4270 -0.3356
21249W        W37510   9.080  12.097   4.912 -0.2175  0.4093  0.3437
21250W        W37511   2.906   8.249   2.583 -0.1658  0.1812 -0.1575
21251W        W37512  13.937  17.574   3.258 -0.0960  0.2067 -0.2135
21252W        W37513   8.690   4.382   3.429  0.2428  0.0822  0.1520
21253W        W37514   7.820   2.947  16.795  0.2782 -0.2512 -0.0153
21254W        W37515   9.307  12.656  14.455 -0.0883 -0.1344  0.1781
21255W        W37516  17.531   2.623  15.849  0.2988  0.2450  0.3279
21256W        W37517   3.897   9.148   4.625  0.0100  0.2214  0.0838
21257W        W37518   5.171   1.734  12.099  0.0478 -0.0106 -0.0519
21258W        W37519  11.112   9.980   0.252  0.1110  0.1746  0.0187
21259W        W37520  15.592   3.175   0.254 -0.0995 -0.1527  0.0336
21260W        W37521   6.884   6.505   0.778 -0.0260 -0.1923  0.2050
21261W        W37522   0.435   8.450   2.117  0.0009  0.0808  0.0351
21262W        W37523   3.547   1.019  11.937 -0.1693 -0.0490  0.0603
21263W        W37524   3.135  12.440   0.308  0.0290  0.1379  0.1495
21264W        W37525   7.580   7.663   2.833 -0.0159  0.0734 -0.0730
21265W        W37526   4.691   0.543  13.823 -0.1894 -0.0281  0.1317
21266W        W37527   7.663   8.162  14.301 -0.0296 -0.2864  0.0037
21267W        W37528  10.014  11.017   2.774 -0.0985  0.0607 -0.3197
21268W        W37529   8.360   3.330   1.350  0.4200 -0.1712  0.0515
21269W        W37530  16.945   9.355   4.277  0.0539  0.1965 -0.1278
21270W        W37531  10.868  12.083   6.015 -0.2467  0.1372 -0.0575
21271W        W37532  15.914   8.444  13.146  0.3476  0.1707 -0.2206
21272W        W37533   7.296  16.869  15.509 -0.1718  0.1648 -0.0674
21273W        W37534   8.212  14.559   4.882 -0.2725 -0.0986  0.0940
21274W        W37535   3.344  11.744   0.992  0.2916 -0.0423  0.0291
21275W        W37536   1.895   7.420  15.977 -0.0585  0.1526  0.0359
21276W        W37537  13.546  13.366   5.530 -0.1739 -0.1496  0.1790
21277W        W37538  15.518  15.174   0.316 -0.1368 -0.0278 -0.2290
21278W        W37539  15.495  12.211   3.702 -0.1201  0.0560 -0.0212
21279W        W37540  12.282  10.804  12.137 -0.2663  0.0072 -0.0194
21280W        W37541  17.642   2.859   3.967 -0.2000 -0.1907  0.0228
21281W        W37542   3.111  11.801   0.399 -0.2181 -0.1781  0.0057
21282W        W37543  12.205  17.628   4.345 -0.1938 -0.3702 -0.1382
21283W        W37544   1.350  10.594  15.535 -0.0868  0.0302  0.2617
21284W        W37545  15.850  14.740   4.612 -0.3508 -0.0226 -0.2240
21285W        W37546  13.446  16.751  11.687  0.1608  0.3333  0.0535
21286W        W37547   9.881   0.422  13.298  0.1377 -0.0143 -0.1777
21287W        W37548  17.158   7.044   1.459  0.0761 -0.0968  0.0599
21288W        W37549  12.405  15.677  13.087  0.2445 -0.1224 -0.1991
21289W        W37550   5.250  10.236  12.691  0.2549  0.0535 -0.0964
21290W        W37551  16.063   0.795  12.761  0.1325  0.1628  0.1275
21291W        W37552   4.021  13.540   2.570  0.0471  0.0678 -0.0113
21292W        W37553   2.566  14.851  11.813 -0.1195 -0.0839  0.0908
21293W        W37554  11.956  13.356   0.355 -0.1282  0.1943  0.0687
21294W        W37555  17.386   1.474   2.482 -0.1747  0.0144 -0.2989
21295W        W37556   5.534   6.366  11.315  0.2319 -0.0050 -0.1323
21296W        W37557  11.364   4.504  13.657  0.0930 -0.4995  0.0282
21297W        W37558   1.571   6.390   5.063  0.1336 -0.2457 -0.1787
21298W        W37559  17.690   3.223   3.390 -0.2503  0.2610  0.0546
21299W        W37560   2.498  17.323   1.209 -0.2553 -0.1287  0.1185
21300W        W37561  14.506  10.748  13.631 -0.0225 -0.4403 -0.0400
21301W        W37562  14.603   0.765  13.330  0.0251 -0.0381 -0.0006
21302W        W37563   5.141   3.594   5.506  0.2536 -0.2084 -0.1985
21303W        W37564   2.318   7.470   6.075  0.1655  0.1789  0.1933
21304W        W37565   4.637  12.244  16.080 -0.3355  0.0083 -0.0201
21305W        W37566   5.396   8.508  14.593  0.1129  0.2686 -0.0903
21306W        W37567  12.986   4.644  16.506 -0.4209 -0.0986  0.2062
21307W        W37568  13.221  13.443   0.225  0.0681 -0.1201  0.2021
21308W        W37569   9.496   9.035  13.919  0.0081  0.1857 -0.2787
21309W        W37570  17.288   2.609  14.062  0.0536 -0.0024  0.1648
21310W        W37571  14.061  16.589  12.946  0.1920 -0.0414 -0.2003
21311W        W37572  16.305   4.504   0.046 -0.0814  0.2647 -0.1356
21312W        W37573  16.021  11.174  15.029  0.3194 -0.0244  0.3158
21313W        W37574  13.807  16.340  13.838 -0.0243 -0.0898 -0.3068
21314W        W37575  11.846   8.835  15.073 -0.0188 -0.0036 -0.0604
21315W        W37576   8.420  12.851  12.557  0.3354  0.1867  0.1148
21316W        W37577  11.713   1.984   3.112  0.1310 -0.0040  0.2362
21317W        W37578  10.373   7.047   3.747 -0.1364  0.0593 -0.1056
21318W        W37579  12.466   6.871  15.035  0.0445  0.0509  0.3009
21319W        W37580   4.145  13.121  12.165 -0.0123  0.2584  0.0687
21320W        W37581  12.599   3.487   0.523  0.1569 -0.1201 -0.0151
21321W        W37582   8.458   5.964   5.063 -0.0313 -0.1059 -0.2846
21322W        W37583   6.819  15.134  15.532 -0.0453  0.2210  0.0503
21323W        W37584   7.981   4.524   3.083  0.0500  0.2268 -0.0392
21324W        W37585   0.669  13.844   4.229 -0.2287 -0.0106 -0.0771
21325W        W37586   3.898  16.365   0.691 -0.0094  0.1097 -0.1600
21326W        W37587  16.107  15.207   3.954  0.0449  0.0511 -0.1602
21327W        W37588   8.963  12.097  16.587  0.0830  0.1380 -0.0760
21328W        W37589  15.819   7.364  15.345 -0.1990 -0.2951 -0.1492
21329W        W37590   6.128   4.681   2.443  0.0690 -0.0891 -0.2026
21330W        W37591   7.544  17.118  13.780 -0.0312 -0.1369  0.4276
21331W        W37592   8.427   9.464   2.589  0.1287 -0.1388 -0.1825
21332W        W37593  14.036   2.817   4.380  0.0757  0.1163  0.1813
21333W        W37594   2.730  15.253   1.123 -0.1086 -0.0536  0.1194
21334W        W37595   2.384  16.912  16.298 -0.0231  0.2115  0.1356
21335W        W37596   4.012   5.756   4.500  0.3481 -0.0958 -0.0691
21336W        W37597   1.895   5.678   3.293 -0.0115  0.0608 -0.1027
21337W        W37598   3.908  17.754  13.281  0.1116 -0.0835  0.1843
21338W        W37599   1.917  10.614   0.149 -0.1279 -0.2165 -0.1252
21339W        W37600   8.437  10.200   0.770  0.0417  0.0682  0.0310
21340W        W37601   1.463   9.051  11.159 -0.0535 -0.2389  0.2900
21341W        W37602   0.032   0.618   0.968  0.1463 -0.2005 -0.0824
21342W        W37603  16.322   6.475  16.330  0.0999 -0.0033 -0.0159
21343W        W37604   6.781   9.921  16.314 -0.1251 -0.0524 -0.0844
21344W        W37605   8.187  12.117   1.525  0.0889  0.1008 -0.1848
21345W        W37606   8.606   0.144   2.485 -0.1022  0.0718  0.2430
21346W        W37607  17.457   9.214   0.380  0.0820  0.0498  0.1616
21347W        W37608   9.058   0.939  12.999  0.1028  0.0984  0.2703
21348W        W37609   5.332   5.463  16.080 -0.1204  0.0346 -0.0490
21349W        W37610   8.591  16.370  11.393 -0.3180  0.0613 -0.1954
21350W        W37611   4.443   2.278   3.824  0.2540  0.1900  0.0050
21351W        W37612   8.635   5.636  16.904  0.0886  0.0281 -0.6297
21352W        W37613   0.328   2.393  16.372 -0.0182 -0.1012 -0.1047
21353W        W37614   8.518  13.547  16.007 -0.0364  0.1303 -0.0489
21354W        W37615  17.198   0.949  15.741 -0.0811  0.0792  0.3297
21355W        W37616  11.069   8.663  14.924  0.0523  0.2841  0.0786
21356W        W37617   6.097  16.954   0.093  0.1051  0.1676 -0.3510
21357W        W37618  10.730   1.757   3.059 -0.1519  0.0767  0.1072
21358W        W37619  17.416   1.778   2.992 -0.0232 -0.0232  0.0006
21359W        W37620   9.425  12.295  15.214  0.0977  0.0933  0.1169
21360W        W37621  16.910   0.856   2.709  0.3002  0.1472  0.1444
21361W        W37622   1.044  13.053  14.248 -0.1799 -0.1073 -0.0132
21362W        W37623   0.629  11.328   0.506 -0.0317 -0.1390  0.1112
21363W        W37624   2.031   3.767   2.266 -0.0929 -0.0973 -0.0858
21364W        W37625   0.919   3.457  16.493 -0.0773  0.0910  0.1153
21365W        W37626   1.590   2.574  16.269 -0.0069 -0.0916  0.2943
21366W        W37627   9.933   2.636   4.862  0.1625 -0.0422  0.1190
21367W        W37628   3.590   0.321   0.112  0.1818 -0.1525 -0.0482
21368W        W37629   0.928  10.795   0.631 -0.0492 -0.3016 -0.0511
21369W        W37630  13.354  10.899   3.570  0.1311 -0.1244  0.0004
21370W        W37631   1.589  14.429   3.682  0.2426 -0.2649  0.3653
21371W        W37632   2.260  16.293  12.844  0.1087  0.1860 -0.2971
21372W        W37633   4.125   5.172   3.719  0.0882 -0.1853  0.0265
21373W        W37634  17.784   6.871   4.480 -0.4855  0.0811 -0.1116
21374W        W37635  12.196   5.906  16.681 -0.0506  0.0683 -0.2524
21375W        W37636   8.131  17.821   4.058  0.2016  0.2913  0.1282
21376W        W37637  17.218  12.425   3.456  0.1706  0.1701  0.1797
21377W        W37638  10.490  14.755  12.871 -0.1271 -0.0381 -0.1274
21378W        W37639  12.687   3.040  11.579  0.0999 -0.3055 -0.0788
21379W        W37640   6.307  11.728   5.487 -0.0565 -0.0415  0.1091
21380W        W37641  17.559   3.947   0.111  0.0093  0.1564 -0.1015
21381W        W37642  13.886   8.993   1.022  0.1431  0.0333  0.0735
21382W        W37643  16.880  17.559  12.993 -0.0386 -0.0199 -0.0509
21383W        W37644   2.029   8.990   3.561  0.0725 -0.1838 -0.3514
21384W        W37645   4.418   5.320  12.063  0.1788  0.0114 -0.1040
21385W        W37646  11.808   0.602  11.098 -0.0002 -0.0945  0.0583
21386W        W37647  17.390  14.978   4.557  0.0040  0.1910  0.0515
21387W        W37648  14.686   6.373   2.446 -0.1148 -0.0187  0.1185
21388W        W37649   7.302  14.151  13.011  0.2097 -0.0228  0.1713
21389W        W37650   2.154   4.385   0.150 -0.0048 -0.1854  0.0679
21390W        W37651   0.631  14.150   2.721 -0.0760 -0.0309 -0.0245
21391W        W37652   9.801   9.493  14.170 -0.3569 -0.2916 -0.1653
21392W        W37653   0.753  15.516  15.612 -0.3507  0.1265 -0.0677
21393W        W37654   3.493   5.411  13.156  0.0925  0.0614  0.2426
21394W        W37655   6.771   7.092  13.032  0.0559  0.1033 -0.2357
21395W        W37656  11.038  14.808  15.946 -0.2335  0.2088 -0.4067
21396W        W37657  12.744   7.701   3.411  0.0113 -0.1047 -0.0379
21397W        W37658   7.151   8.507   5.039  0.3156  0.1379  0.0375
21398W        W37659   1.082   0.048   4.661 -0.0558  0.0242 -0.1112
21399W        W37660   9.529   1.864   5.467  0.0243 -0.3069 -0.2340
21400W        W37661  16.672   8.188  15.716  0.2351 -0.0348  0.1915
21401W        W37662   3.789  10.262  14.395 -0.0904 -0.0522 -0.1781
21402W        W37663   5.049  15.587   5.346  0.0523 -0.0139 -0.2262
21403W        W37664   8.405   4.101  11.541 -0.2347  0.1551 -0.0139
21404W        W37665  11.282   3.656   0.025  0.0563  0.2467 -0.1063
21405W        W37666  17.711  12.748  12.556 -0.0069 -0.0262  0.0965
21406W        W37667  17.799   2.676   4.656 -0.0737 -0.1161  0.0416
21407W        W37668   2.108   2.847  12.459  0.1834 -0.2297  0.1578
21408W        W37669  15.645  15.854   0.500 -0.1299  0.0204 -0.0948
21409W        W37670  10.445  17.238  12.728 -0.1236  0.1528  0.1622
21410W        W37671   5.613   1.580   2.474 -0.2139  0.2303 -0.3301
21411W        W37672  13.497  11.777   1.539 -0.1054 -0.0908 -0.0777
21412W        W37673   9.787  10.793  13.466  0.0604 -0.0400  0.0546
21413W        W37674   1.969   3.081   4.621 -0.1861  0.0336 -0.0762
21414W        W37675   9.581   1.293   6.323  0.3751  0.0251  0.2340
21415W        W37676  14.297   4.948  15.734 -0.0659  0.2209 -0.0503
21416W        W37677  14.830   7.965  11.755  0.0515  0.0094  0.2250
21417W        W37678  17.231   9.211  14.384  0.1629 -0.0964 -0.0679
21418W        W37679  11.988  13.026  16.416 -0.1207  0.0793  0.1490
21419W        W37680  11.957  15.595   6.542  0.1011 -0.1343  0.0387
21420W        W37681   2.820   0.805  14.921 -0.1890 -0.2589 -0.1163
21421W        W37682   2.192  13.952  15.225  0.0826  0.0076 -0.0925
21422W        W37683   8.870  14.498  15.394 -0.1189  0.0673  0.0541
21423W        W37684   5.800   1.668   0.077 -0.4938  0.1755 -0.1080
21424W        W37685   8.430  11.734   0.610 -0.0257 -0.0504  0.0146
21425W        W37686   0.775   2.081   4.364 -0.0159  0.0327 -0.0154
21426W        W37687  14.558   6.906   2.327 -0.1137 -0.0800 -0.0137
21427W        W37688  13.562  10.595  15.177 -0.0631  0.2045  0.1646
21428W        W37689   3.744   7.805   0.368 -0.0324  0.1296  0.2832
21429W        W37690  11.861   7.243  13.139  0.2965  0.0174 -0.2415
21430W        W37691  12.158  11.749   2.105  0.2042 -0.3866  0.0447
21431W        W37692   5.293   8.275   1.561  0.2663  0.1821 -0.1268
21432W        W37693   2.705   8.590   0.860 -0.1561  0.0380 -0.2760
21433W        W37694   5.916   6.376   3.522  0.0840  0.0599  0.1862
21434W        W37695  11.125   4.636  11.663  0.1272  0.1751  0.0027
21435W        W37696  11.800  12.866   1.696  0.3171  0.0340 -0.1636
21436W        W37697   9.062  11.909  15.207 -0.0716 -0.3408 -0.1702
21437W        W37698   1.829   2.556   2.029  0.0605 -0.0123  0.2101
21438W        W37699   0.677   4.464   3.050  0.0899  0.0204 -0.1265
21439W        W37700   6.357   4.069  16.932 -0.2584  0.0565  0.1208
21440W        W37701  17.084   5.644   6.053  0.0115  0.1482 -0.0218
21441W        W37702  10.457   0.069   4.522  0.2957 -0.2466 -0.3772
21442W        W37703  15.730   4.999  12.315  0.0305  0.2708  0.1994
21443W        W37704  10.289  13.327  13.430  0.2475  0.3783 -0.1884
21444W        W37705   3.802  13.569  14.881  0.1518  0.1263  0.1671
21445W        W37706   5.213  16.500  16.529  0.1227  0.0930 -0.4264
21446W        W37707  15.938   5.692  11.699  0.2090 -0.0314 -0.4295
21447W        W37708   9.109   6.270  15.058 -0.0192  0.2221 -0.1812
21448W        W37709  15.491  17.078   1.320  0.2175  0.0129  0.2527
21449W        W37710  15.409  12.901   2.882 -0.3515 -0.2411 -0.1643
21450W        W37711  13.539   1.379   1.367 -0.0546  0.3037  0.0342
21451W        W37712  14.419  17.510   4.544 -0.0798 -0.2508 -0.0419
21452W        W37713  10.704   9.586   5.050  0.1731 -0.1562  0.1865
21453W        W37714   0.623   6.809  13.999  0.0426 -0.0704 -0.1546
21454W        W37715  12.666   0.695  13.205  0.1334 -0.0533  0.4468
21455W        W37716  16.472   8.782  16.534 -0.3383 -0.1969  0.1397
21456W        W37717  16.330  13.759   1.888 -0.2537 -0.2175  0.1395
21457W        W37718  17.096  12.750  13.636  0.0431 -0.5721  0.1173
21458W        W37719   8.365  13.269   1.011 -0.1307 -0.0632 -0.3282
21459W        W37720   6.768   5.825  16.166  0.1686 -0.3202  0.2467
21460W        W37721  12.621   5.567  12.234 -0.2298  0.1067 -0.0817
21461W        W37722  15.995   5.924   6.009 -0.1242  0.2413  0.0770
21462W        W37723   0.775  11.193   3.275 -0.0871 -0.1947 -0.1169
21463W        W37724   4.501   6.442  12.944 -0.0599 -0.1544  0.2047
21464W        W37725   1.407   3.197  11.578  0.2226  0.0148  0.0952
21465W        W37726   9.651   5.564  16.155 -0.1331  0.1499 -0.0754
21466W        W37727   0.890  15.150  12.317  0.0208 -0.1668 -0.1201
21467W        W37728   2.546  15.061   0.252  0.0699 -0.1376 -0.3674
21468W        W37729  17.659   3.657   1.142 -0.1670  0.0850 -0.0304
21469W        W37730   9.233   0.497   6.346  0.1734  0.0955  0.1621
21470W        W37731   4.603   4.362  13.594 -0.3508  0.2115 -0.0063
21471W        W37732  17.121  13.623   5.183 -0.0996  0.2476 -0.2646
21472W        W37733   0.730  13.683   1.832  0.0588 -0.0347 -0.1316
21473W        W37734   8.971   4.649  16.305  0.1600 -0.1089 -0.1498
21474W        W37735  11.326  11.057  13.290  0.3654 -0.1101  0.2395
21475W        W37736   0.003   3.641   1.932 -0.1961 -0.1526 -0.3420
21476W        W37737   0.338   6.873   4.802  0.1599 -0.1320 -0.1116
21477W        W37738  16.592  16.057  12.946 -0.2061  0.0351  0.3400
21478W        W37739  15.526  16.746  13.170 -0.5976 -0.0559  0.1380
21479W        W37740  15.806  14.852   0.582  0.5605  0.1089 -0.1789
21480W        W37741   6.158  11.852  12.217  0.2588 -0.4268  0.0983
21481W        W37742  17.109  15.268  16.602  0.0122  0.1060 -0.0697
21482W        W37743   7.457  14.118  15.863  0.2168  0.1779  0.0723
21483W        W37744   3.548  13.628   1.178  0.0324  0.1392  0.2070
21484W        W37745  13.379  17.275   4.634 -0.0137 -0.1438 -0.2065
21485W        W37746  14.939   7.690   3.606 -0.0890 -0.0216  0.1040
21486W        W37747   6.143   9.159   0.969  0.3202  0.1804 -0.3190
21487W        W37748   8.252  17.820  13.376  0.2071  0.4205  0.2242
21488W        W37749   6.838   8.139  16.327  0.1593  0.2660 -0.1548
21489W        W37750   2.709   2.946   0.063  0.0921  0.1255  0.0993
21490W        W37751  10.410   0.368   6.329 -0.1031  0.1087 -0.1720
21491W        W37752   5.834   9.201  15.708  0.0206  0.1784  0.0807
21492W        W37753   7.453   2.907  12.633 -0.2762 -0.3611 -0.1720
21493W        W37754  15.661  13.405  12.609  0.0796  0.1832  0.1456
21494W        W37755   9.979  14.394  15.308 -0.2999  0.2331  0.1083
21495W        W37756   0.320  17.576  14.789  0.2216  0.1659 -0.2555
21496W        W37757   0.332  12.307   5.472  0.1938 -0.0904  0.0911
21497W        W37758  14.312  15.539  12.054 -0.1007 -0.2270 -0.5030
21498W        W37759  13.971  10.741   1.406 -0.0427 -0.4376 -0.1168
21499W        W37760  12.032   2.090   1.177  0.0353 -0.1512  0.1393
21500W        W37761  15.794   3.315  14.857 -0.2642  0.1493 -0.0230
21501W        W37762  15.174  15.319  12.138  0.2146  0.1543  0.1001
21502W        W37763  14.890   3.956  13.756  0.0326  0.0141 -0.1428
21503W        W37764  12.960  13.782   2.141 -0.3960  0.2053 -0.0540
21504W        W37765  13.067  15.074  12.152  0.1945 -0.2661  0.4350
21505W        W37766   3.886   4.367   3.221  0.1010  0.1381 -0.0077
21506W        W37767   3.781  10.115   1.617  0.2311  0.1217  0.3415
21507W        W37768   9.374  15.543  12.593 -0.2177 -0.2555  0.0607
21508W        W37769   1.228  10.157  16.808  0.0846  0.1953 -0.0710
21509W        W37770   9.131   3.651  16.852  0.0873  0.1937  0.3214
21510W        W37771   0.300   3.929   2.295  0.3591 -0.0803 -0.1657
21511W        W37772   1.974  11.103   5.292  0.1321 -0.2641  0.1701
21512W        W37773  13.560  13.440  15.415 -0.1481 -0.3765  0.0915
21513W        W37774   1.263   2.596  11.998  0.0005 -0.0280 -0.1662
21514W        W37775   7.745  16.467   3.780 -0.0829  0.0894 -0.3075
21515W        W37776  11.602  13.480  16.830 -0.0024 -0.1041 -0.0773
21516W        W37777   5.207   6.687  14.251  0.0323 -0.2362 -0.0126
21517W        W37778   0.959  15.141  13.663  0.1602 -0.0579 -0.0138
21518W        W37779  17.141   9.071   3.955 -0.1542 -0.0003 -0.2514
21519W        W37780   0.040  12.264  11.831  0.2029  0.2273 -0.0547
21520W        W37781   2.912   7.733  12.316 -0.0509  0.1473 -0.2230
21521W        W37782  12.222   3.863  12.145 -0.1659 -0.3633 -0.0458
21522W        W37783   4.604   4.261  15.731  0.1138 -0.2112  0.1666
21523W        W37784  14.573   5.893   3.269  0.2267 -0.3621  0.2275
21524W        W37785   2.904  10.820  12.979  0.2148  0.1391  0.0191
21525W        W37786   8.703   1.158   3.987 -0.0553 -0.3371 -0.2814
21526W        W37787   6.152   8.262  12.838  0.0495 -0.1135  0.1444
21527W        W37788  17.299  12.015   2.013  0.0998  0.1695 -0.1376
21528W        W37789   7.219   1.823  13.491  0.0208  0.2208 -0.0447
21529W        W37790   3.599  14.184   1.503 -0.0493 -0.0170 -0.0765
21530W        W37791   5.835   6.069   5.471 -0.1794 -0.1926  0.0671
21531W        W37792  17.797   5.490  16.119 -0.0458 -0.1069  0.2310
21532W        W37793  14.620   4.589  14.229  0.0118 -0.2940  0.0526
21533W        W37794  10.090   7.902   5.142  0.0938 -0.0081  0.1198
21534W        W37795   4.427   0.794  12.052  0.1051 -0.1931  0.2730
21535W        W37796   8.948   7.934   2.048 -0.1291 -0.0196 -0.0166
21536W        W37797   5.725   4.788  11.978  0.1299  0.1132  0.0794
21537W        W37798  15.348   1.738   5.636  0.2966  0.0633 -0.3181
21538W        W37799   8.030   3.316   2.614  0.1065 -0.2747 -0.2310
21539W        W37800  11.785   7.367   4.909 -0.1621 -0.1520  0.1002
21540W        W37801   2.225   3.814  12.084  0.0949  0.2063  0.3560
21541W        W37802  13.686  11.566  13.747  0.1492 -0.1487  0.1417
21542W        W37803   1.083   6.596   4.146 -0.1650  0.1715 -0.2862
21543W        W37804   7.635   0.037   4.166  0.0326  0.0392  0.0436
21544W        W37805   8.742   2.298  15.761 -0.4301 -0.1399  0.0761
21545W        W37806   3.391  13.188   6.060 -0.0306  0.0718 -0.2198
21546W        W37807  12.981   2.033  13.864 -0.1787 -0.0605 -0.0910
21547W        W37808   5.466  12.046  12.628  0.1239  0.2008  0.1433
21548W        W37809   1.174  12.505  12.166 -0.1862  0.1182 -0.3600
21549W        W37810   3.439   9.263  13.482 -0.3346 -0.1604 -0.3018
21550W        W37811   7.749   6.518  13.280  0.0924 -0.0412 -0.1708
21551W        W37812  15.539   2.855  14.656  0.2297 -0.3040 -0.1196
21552W        W37813   7.232  13.302   6.131  0.2070 -0.0077 -0.1948
21553W        W37814  14.258  11.306  15.393  0.0911  0.1913  0.2156
21554W        W37815   3.838   7.444   4.004 -0.0057 -0.0559  0.0607
21555W        W37816   4.377   8.841   4.828 -0.0031  0.0488  0.0699
21556W        W37817  13.692  14.694   2.554  0.1880  0.0786 -0.0500
21557W        W37818  15.690  17.197   0.650  0.1714 -0.2058 -0.1198
21558W        W37819   1.288  17.266  14.945  0.1086  0.2328  0.3865
21559W        W37820   2.663   0.823   4.691 -0.0824  0.0992  0.2649
21560W        W37821   3.130  12.832  11.994 -0.1524  0.1708 -0.0004
21561W        W37822   8.975   6.297   1.104  0.4845 -0.0792  0.0167
21562W        W37823   2.720  15.127  13.471 -0.1152 -0.1599  0.0661
21563W        W37824   4.776   4.748   0.135  0.1391  0.0430 -0.1321
21564W        W37825   8.296  14.818   2.414 -0.0460 -0.0150  0.1269
21565W        W37826  16.909   1.699  15.519  0.0928  0.0348  0.0468
21566W        W37827  12.847   8.195  14.995 -0.0347 -0.4477  0.0692
21567W        W37828  14.031   4.841   2.074  0.1664  0.3754  0.0357
21568W        W37829   9.671   4.530   3.739 -0.2179  0.0998 -0.1208
21569W        W37830   3.795   4.621  15.626  0.3973 -0.0383  0.0174
21570W        W37831  10.097  15.958   1.390 -0.1075  0.0322 -0.2017
21571W        W37832  12.005   5.408   2.531  0.0479 -0.1066  0.2863
21572W        W37833   4.647   9.784   6.613 -0.0789  0.1277 -0.2975
21573W        W37834   1.315  16.505  14.833  0.0363 -0.2205 -0.1151
21574W        W37835  11.512  10.861  13.709 -0.2090  0.0754 -0.1840
21575W        W37836   0.176  16.071   0.701  0.1926 -0.2056  0.0501
21576W        W37837   3.385   9.332  12.985  0.0939 -0.0165 -0.4235
21577W        W37838  15.029   1.287  15.201 -0.0699 -0.0476  0.3136
21578W        W37839  13.568  15.971  15.742 -0.0383  0.2139  0.0141
21579W        W37840   3.805   8.113   3.153  0.1587 -0.1814 -0.0792
21580W        W37841  17.709   8.729   1.162  0.2622  0.2984 -0.2303
21581W        W37842  10.071   4.033  11.994 -0.3256  0.2523  0.0026
21582W        W37843  12.615   4.145   6.197  0.4490  0.1455  0.3537
21583W        W37844   1.470   0.980   4.189 -0.0433 -0.2472  0.0731
21584W        W37845   2.631   2.725   3.083 -0.0229  0.0145  0.1715
21585W        W37846   3.039   1.015  15.467 -0.0063 -0.0442 -0.0482
21586W        W37847   9.211  13.106   1.442  0.1280  0.0496 -0.2019
21587W        W37848   4.030   2.405   2.893 -0.0573  0.0225  0.2680
21588W        W37849  10.278   9.701   1.374  0.0543  0.2805  0.2430
21589W        W37850  10.336   1.763   0.206  0.1727 -0.3675  0.0453
21590W        W37851  11.015   7.702   3.796 -0.1963 -0.0010  0.1980
21591W        W37852   0.310   3.469   2.479  0.1474 -0.1305  0.0253
21592W        W37853   1.774   2.519  15.018  0.1110 -0.2873 -0.2353
21593W        W37854   9.529   6.220  15.634  0.1621 -0.2233 -0.3101
21594W        W37855  10.755   0.124   1.085 -0.0478  0.1773  0.1536
21595W        W37856   2.750  13.008  16.062 -0.0656  0.0395  0.1075
21596W        W37857   2.250   0.035  13.970 -0.1405  0.0472  0.1050
21597W        W37858  12.558  12.637  13.574 -0.2093 -0.3043  0.2006
21598W        W37859  10.525   9.567  15.078 -0.1601 -0.2278 -0.0107
21599W        W37860  12.395  13.722  12.967 -0.1054  0.0654 -0.0041
21600W        W37861   4.862   5.094   5.853  0.1144 -0.1104 -0.0241
21601W        W37862  15.524  14.700  13.508 -0.0205  0.1513  0.1028
21602W        W37863  14.922  13.140   2.679 -0.0646 -0.3454 -0.2585
21603W        W37864  11.797   7.826   4.535 -0.0213 -0.0097 -0.0815
21604W        W37865   6.328  12.753  12.567  0.0916  0.0288  0.0692
21605W        W37866   0.922  12.840  13.711 -0.2451  0.0590  0.2419
21606W        W37867  13.309   2.122   5.743  0.0065 -0.2505  0.1461
21607W        W37868   5.450  13.560  16.920 -0.1732 -0.2412 -0.1645
21608W        W37869  12.105  13.680   1.775  0.2956  0.0693  0.3031
21609W        W37870  12.768   0.749   1.294  0.0672 -0.2149 -0.0110
21610W        W37871  10.648   6.674   2.507  0.3317 -0.0199 -0.3114
21611W        W37872   4.350   7.137  12.114  0.1236 -0.1776 -0.0970
21612W        W37873   8.102  16.632  16.876 -0.2179  0.0024 -0.2385
21613W        W37874   8.176   1.591  13.254  0.0382  0.1147  0.2613
21614W        W37875   6.067   0.685  13.712  0.1273 -0.0271  0.0628
21615W        W37876  16.400   0.610  14.559 -0.1458 -0.0646 -0.2496
21616W        W37877   7.366  17.338   3.475 -0.0467 -0.3638  0.1938
21617W        W37878   0.428   8.627  13.573 -0.2482  0.3147  0.2860
21618W        W37879  14.367  14.462  12.991 -0.0730 -0.2216 -0.3291
21619W        W37880   4.459   4.540  14.305  0.1003 -0.1195 -0.1569
21620W        W37881   2.425  11.092   5.615  0.0186  0.0467 -0.0067
21621W        W37882  10.124   5.107   4.332 -0.2271  0.0675 -0.1956
21622W        W37883  12.828   8.385  16.252  0.0264  0.1259  0.0604
21623W        W37884  15.664   7.936   4.075 -0.2679  0.0744 -0.0323
21624W        W37885  11.974   4.282  15.551 -0.0900  0.0579  0.3443
21625W        W37886  13.629   4.460  14.705 -0.4172  0.1380  0.2152
21626W        W37887   7.799  11.516   0.804 -0.0371  0.1155 -0.2613
21627W        W37888  16.169  16.150   2.019  0.2194  0.1719  0.1699
21628W        W37889   3.875   4.986  15.059 -0.0022 -0.1282  0.4106
21629W        W37890   3.600  17.791   4.787  0.2750  0.1280 -0.1720
21630W        W37891   3.464  11.059   5.588 -0.2732  0.0775  0.0297
21631W        W37892   6.328   5.733  15.110 -0.0826  0.1758 -0.0525
21632W        W37893  16.096   5.067   3.124  0.0724  0.2604  0.0905
21633W        W37894  11.401   5.054  15.519  0.1058  0.0689 -0.0295
21634W        W37895  16.197  11.450   3.460  0.1012  0.3631 -0.0296
21635W        W37896   5.065   0.443  11.810 -0.1431  0.1475 -0.0641
21636W        W37897  11.822   4.540   0.195 -0.3619 -0.4507  0.0740
21637W        W37898   7.317   9.312  13.078  0.1731 -0.1355  0.4194
21638W        W37899   4.792   4.706  13.992 -0.0760 -0.0282 -0.1472
21639W        W37900   5.496  16.621  14.029 -0.0586 -0.0062  0.2448
21640W        W37901   2.170   9.364  12.210  0.2938 -0.1979  0.0001
21641W        W37902  15.713  11.303   3.647  0.0603  0.1942  0.1400
21642W        W37903  11.290  12.444  16.892  0.1677  0.0800 -0.4631
21643W        W37904   9.348  17.615   4.180  0.1036 -0.1007  0.3365
21644W        W37905   2.228   4.937  16.326 -0.4767  0.0399  0.0580
21645W        W37906   2.558   7.842  14.453  0.0497  0.1754 -0.1483
21646W        W37907  17.652   7.722  15.003 -0.2359 -0.2697 -0.0460
21647W        W37908  14.700  16.232   3.272  0.1702  0.1721  0.0146
21648W        W37909  10.452  16.988   1.111 -0.1925 -0.1004 -0.1003
21649W        W37910  13.508   2.424  15.971  0.0397 -0.2664 -0.0859
21650W        W37911  14.733  11.505  16.090  0.0475 -0.2938 -0.1275
21651W        W37912  17.527   9.465   6.043 -0.1827 -0.4049 -0.2349
21652W        W37913  10.223  13.729  14.365  0.3684 -0.1601 -0.2134
21653W        W37914   7.082  12.107  14.683  0.0974 -0.1122  0.1218
21654W        W37915   7.498   9.274   2.383  0.1474  0.0326 -0.0249
21655W        W37916   3.066   9.490   5.219 -0.3614 -0.0346  0.1147
21656W        W37917  15.364   8.208  12.496  0.0564 -0.0709  0.1344
21657W        W37918  11.046   4.493  14.663 -0.0416  0.0766  0.0940
21658W        W37919  17.842   0.375   4.804 -0.1597  0.3407 -0.0026
21659W        W37920  15.817   8.675  15.898 -0.1659  0.1089  0.0032
21660W        W37921   4.091   5.370   6.326  0.0530  0.0200 -0.1166
21661W        W37922   5.196   0.988  12.744  0.2121  0.2435  0.0700
21662W        W37923   5.386   1.451  16.486 -0.0613 -0.0283 -0.0412
21663W        W37924   1.908   8.324  13.498 -0.1407 -0.0543  0.1120
21664W        W37925   9.015   3.528   0.316  0.1376  0.0371 -0.2527
21665W        W37926   5.159  12.796   2.263 -0.2589 -0.0298 -0.0536
21666W        W37927  17.213  17.385  13.885 -0.1815  0.1856  0.0151
21667W        W37928   6.983   1.558  13.833  0.1119 -0.0166 -0.2917
21668W        W37929   7.782   0.365   2.305 -0.0265  0.1155 -0.0847
21669W        W37930   5.196   8.138  12.319  0.1927 -0.3086  0.2415
21670W        W37931  15.470   1.466   3.731 -0.1978 -0.0648  0.0147
21671W        W37932   7.844   7.863  13.945  0.2598 -0.3770 -0.1672
21672W        W37933  12.990   9.796  12.561 -0.0857 -0.3887 -0.1102
21673W        W37934  14.209   0.703  14.441 -0.0675 -0.0770 -0.0858
21674W        W37935   6.896  13.877   3.404  0.0683 -0.0777  0.0770
21675W        W37936   6.781   1.640  14.369  0.3895  0.1894 -0.1238
21676W        W37937  12.224   1.051   4.673  0.2574 -0.1441  0.0916
21677W        W37938  17.553   8.333   0.931 -0.1037 -0.0863 -0.1160
21678W        W37939   4.402   6.335  16.611  0.0696 -0.4087  0.2134
21679W        W37940   5.936   6.815  15.507 -0.0645  0.0433 -0.1722
21680W        W37941   7.717  14.659  11.928  0.1758  0.0232 -0.3427
21681W        W37942  15.282   4.207  15.095  0.1474  0.0656  0.0503
21682W        W37943  12.195  17.216  13.401 -0.1157 -0.1841  0.2429
21683W        W37944   2.160   4.230   2.084  0.1918  0.3197 -0.2332
21684W        W37945   4.019   3.668   3.447 -0.3406  0.1855 -0.0435
21685W        W37946  17.379   0.057  11.563  0.1826  0.0196  0.0972
21686W        W37947   5.598  11.978  11.522  0.1310  0.3489 -0.0368
21687W        W37948  14.928  15.036   1.054  0.1392  0.1432 -0.1158
21688W        W37949  12.265  16.421  13.012 -0.1031 -0.1276  0.0038
21689W        W37950   7.148   8.790  14.794  0.3687  0.1643 -0.2115
21690W        W37951   5.686  16.949  12.121 -0.0113 -0.3575 -0.0148
21691W        W37952  17.159   6.163  14.092  0.3242  0.1782 -0.0064
21692W        W37953   6.238   5.128  12.675  0.3248  0.2042  0.2829
21693W        W37954   0.120   7.496   3.036 -0.2146 -0.0975  0.2023
21694W        W37955  17.604  17.410   3.243 -0.1162  0.0397 -0.0214
21695W        W37956   5.310  16.802   4.468 -0.1296  0.1366 -0.2451
21696W        W37957  11.874  11.330   1.892 -0.1614  0.0855  0.1151
21697W        W37958   3.833  14.294  13.627 -0.2254 -0.0746 -0.0859
21698W        W37959   0.855  10.691   3.327 -0.0595  0.2915  0.1970
21699W        W37960  17.482  10.408   3.432  0.3980  0.0535 -0.5584
21700W        W37961   2.296   6.136   4.472  0.0555  0.0786 -0.1486
21701W        W37962   3.441  14.929   4.736  0.0358  0.0257  0.0142
21702W        W37963  10.785   6.333   2.960 -0.1679  0.1197 -0.1255
21703W        W37964   9.298   2.297   1.310  0.1029  0.0721 -0.2474
21704W        W37965  17.557   7.158  11.981 -0.1875 -0.1395 -0.0919
21705W        W37966   0.242   9.749  12.668  0.0858 -0.3706  0.0333
21706W        W37967  15.313   7.675   1.764  0.2763  0.0355  0.0055
21707W        W37968  13.403   5.030  12.620  0.0871  0.4256  0.0914
21708W        W37969  16.748  17.437   1.895  0.0002 -0.2303 -0.2987
21709W        W37970   6.315  10.707   2.198  0.2874  0.0274  0.1220
21710W        W37971   1.058   8.462  16.232  0.3251 -0.1504  0.0547
21711W        W37972  10.915   1.053  13.182 -0.0903 -0.1244 -0.2739
21712W        W37973   2.586  12.572  16.839  0.3387  0.0131 -0.0129
21713W        W37974  15.859   6.614  14.934  0.0436 -0.0064 -0.1220
21714W        W37975  17.016  10.352   2.812 -0.2688  0.2740  0.2330
21715W        W37976   8.054  11.561   0.325 -0.0841  0.0694  0.0259
21716W        W37977  10.121  10.598   1.762 -0.1243 -0.0620  0.2292
21717W        W37978   0.756   1.639   2.961 -0.1378 -0.1823  0.0404
21718W        W37979  14.192  14.857   4.153 -0.0771  0.0635  0.1033
21719W        W37980  16.695   4.467   1.177  0.0246 -0.3386 -0.0401
21720W        W37981  11.554  16.835  15.417 -0.2647  0.1690 -0.2230
21721W        W37982  15.100  14.615   0.869  0.1907 -0.0922  0.1392
21722W        W37983  11.162   3.260   4.595 -0.1492  0.0124  0.3746
21723W        W37984   3.059  15.748   2.200  0.0091 -0.0388 -0.0982
21724W        W37985  13.665   8.999   0.126  0.1047 -0.2550  0.0060
21725W        W37986  10.243   3.331  14.249 -0.2288  0.2438 -0.1494
21726W        W37987   5.985   8.722   3.986 -0.0475 -0.1641 -0.2408
21727W        W37988   1.700  15.390   1.740  0.0309  0.2966 -0.0847
21728W        W37989   9.785   9.923   3.387  0.1871  0.0635 -0.0529
21729W        W37990  13.448  12.992  15.928  0.0240  0.1464 -0.1290
21730W        W37991   6.380   7.367  13.976 -0.0293  0.1271  0.1019
21731W        W37992   1.903   3.702  12.787  0.1262 -0.2282 -0.2636
21732W        W37993  15.413   9.864   2.932 -0.4053  0.1089 -0.1725
21733W        W37994   4.082   4.286   0.267  0.1025 -0.1829 -0.1091
21734W        W37995  10.882   5.538   3.280  0.0517 -0.2245  0.0447
21735W        W37996   9.116   4.931   1.400  0.2324  0.0367 -0.1286
21736W        W37997  10.241  15.875  12.609 -0.0686 -0.0613 -0.1348
21737W        W37998   4.052   1.129  12.117 -0.1568 -0.0468 -0.1183
21738W        W37999   5.078  15.582  16.652 -0.0753 -0.0289 -0.1833
21739W        W38000  17.342   7.139   4.552 -0.1120 -0.1027 -0.2820
21740W        W38001  12.843  13.394   5.937 -0.2211 -0.0376  0.2599
21741W        W38002  16.323   0.158  14.361 -0.0548  0.3277 -0.0014
21742W        W38003  13.115   3.001   4.736 -0.2362 -0.0568 -0.0140
21743W        W38004   6.915   8.656  12.508  0.0746  0.1250 -0.1788
21744W        W38005   6.070  12.221   2.382  0.1555 -0.0525  0.1514
21745W        W38006  11.035   2.692  13.007  0.1316 -0.4729  0.2041
21746W        W38007  12.560  12.716  14.495 -0.3430 -0.5792  0.0102
21747W        W38008  13.628   7.990   4.934  0.2319 -0.1354 -0.1340
21748W        W38009  14.237   9.404   2.334  0.2872 -0.0196 -0.1208
21749W        W38010  16.596   7.070   0.579  0.1330 -0.0943  0.0900
21750W        W38011   2.836  13.495  16.620 -0.2074  0.3326 -0.1427
21751W        W38012   8.611  11.624   0.155 -0.6648 -0.0680  0.1954
21752W        W38013   8.120   7.395  16.736 -0.0466 -0.1097 -0.1531
21753W        W38014   6.990   4.756   4.748  0.1488  0.1837 -0.1966
21754W        W38015  10.377  12.432  12.677 -0.0146 -0.1816 -0.0431
21755W        W38016   2.843  13.031   4.602 -0.3806 -0.0265  0.0244
21756W        W38017   1.297   4.661  16.137  0.1476 -0.0267 -0.1241
21757W        W38018  12.432  11.940  14.165  0.0837  0.1703  0.2272
21758W        W38019   1.224   7.717  12.328  0.0245 -0.0729 -0.3826
21759W        W38020  11.375  17.306  13.674  0.1294  0.1680  0.1028
21760W        W38021   6.176   9.198  14.404  0.0836  0.1074  0.1053
21761W        W38022  15.199  16.566   5.372 -0.1183 -0.2790 -0.1313
21762W        W38023  14.468   1.644   0.759 -0.0950  0.2392  0.3023
21763W        W38024   6.537   9.963  15.823  0.1058 -0.0930  0.0280
21764W        W38025   3.412  14.594   2.230 -0.0753  0.1147 -0.2369
21765W        W38026   7.302   0.667   3.125 -0.1996 -0.1186  0.0742
21766W        W38027  16.947   3.264  14.270 -0.2500  0.0255  0.2318
21767W        W38028   2.792  14.743   4.342  0.0724  0.4115 -0.0248
21768W        W38029  11.729  13.193  16.023  0.0759  0.1193  0.0316
21769W        W38030   6.650   3.402   4.143  0.2571  0.0027  0.3116
21770W        W38031  17.812   5.328   3.427 -0.2188  0.2358 -0.0212
21771W        W38032  10.346   9.992   4.055 -0.1464  0.3179  0.3276
21772W        W38033   2.249   2.411   5.601  0.1483  0.0882 -0.0478
21773W        W38034  11.534   4.974  13.828  0.0604 -0.1376  0.0886
21774W        W38035  13.343   2.654  11.199  0.0573 -0.2134 -0.2276
21775W        W38036  14.538   9.475  12.357  0.0974  0.2467 -0.2005
21776W        W38037   5.075  15.018   4.258  0.0559 -0.0613  0.1248
21777W        W38038  13.876   5.393  15.131 -0.3140 -0.0135 -0.1388
21778W        W38039  11.424   6.592   5.989  0.0089 -0.1799  0.1143
21779W        W38040  14.925  13.435   2.229 -0.1575  0.0659 -0.0080
21780W        W38041   5.297   2.833   5.833 -0.0419  0.1147  0.0191
21781W        W38042   6.623   1.684  15.664 -0.0097  0.2755  0.1125
21782W        W38043   1.116   3.207   5.747 -0.0051  0.0049  0.1761
21783W        W38044  14.120   9.533  12.839 -0.2645 -0.0089 -0.0235
21784W        W38045  17.663   6.851   0.466  0.0189  0.3389  0.1278
21785W        W38046   2.072   3.589   0.543  0.1583 -0.2009  0.0596
21786W        W38047   7.379  15.082  11.620  0.1988 -0.2685  0.1649
21787W        W38048   5.949   6.537  11.924  0.1536  0.0607  0.1249
21788W        W38049   6.771  16.550   1.892 -0.3042  0.3605  0.0035
21789W        W38050   1.445  11.986  15.634  0.1184 -0.0682 -0.1166
21790W        W38051  11.586  15.021   2.678 -0.0342  0.1032 -0.1034
21791W        W38052   6.594   0.911   2.665  0.2950 -0.2637  0.0168
21792W        W38053   7.415  10.000   1.171 -0.0107  0.1348 -0.0552
21793W        W38054   7.262   9.711   1.525 -0.0355 -0.0585 -0.1951
21794W        W38055   2.426  14.185   3.236  0.1873 -0.4206 -0.1287
21795W        W38056   0.731   2.376   3.929 -0.0042 -0.1857 -0.0632
21796W        W38057   4.275   4.096  12.254  0.2280  0.0709  0.0367
21797W        W38058   6.520  11.161  13.928  0.4298 -0.0058 -0.1183
21798W        W38059   6.584   1.374   0.277  0.2096 -0.4809  0.4098
21799W        W38060   4.427  14.553   4.677 -0.0413 -0.2446 -0.3208
21800W        W38061   9.497   6.762  12.376 -0.2548 -0.2406 -0.2602
21801W        W38062  13.774   3.138  16.953 -0.2587  0.0499 -0.4035
21802W        W38063  15.358  15.804   4.357 -0.0655  0.4802  0.2298
21803W        W38064   8.618   6.052  15.778  0.3283  0.2332  0.0422
21804W        W38065   3.800  16.089  16.211  0.0684  0.4194 -0.1221
21805W        W38066   4.106   3.291   4.232 -0.1273 -0.0479 -0.0909
21806W        W38067   1.497   5.128  16.328  0.2184  0.2022 -0.1476
21807W        W38068   9.979   1.064   1.143 -0.2277 -0.2084  0.1813
21808W        W38069  10.427  14.079   1.372 -0.2719 -0.0851 -0.1682
21809W        W38070   5.968  13.282   5.295  0.0356 -0.0129  0.1207
21810W        W38071   9.354  14.457   4.010  0.3013  0.0065 -0.1420
21811W        W38072  11.697  14.392  15.986  0.2814  0.0556 -0.0648
21812W        W38073   4.882   9.712  16.759  0.0785  0.1332 -0.0018
21813W        W38074  14.562   9.848   1.811  0.2731 -0.1054  0.1022
21814W        W38075   2.489  10.794   3.301  0.5312  0.0508  0.1153
21815W        W38076  17.783   4.147  13.073  0.1361 -0.1006  0.0304
21816W        W38077   3.469   1.677  13.354  0.1185 -0.0364  0.0804
21817W        W38078   0.221  11.864   2.973  0.2209  0.0959  0.0324
21818W        W38079  11.970  17.147   5.864  0.0222  0.0466 -0.0695
21819W        W38080  14.302  16.457   3.081 -0.0913 -0.0376 -0.0047
21820W        W38081  13.178   2.829   0.428  0.1311  0.1069 -0.0737
21821W        W38082   2.262   2.448   2.153 -0.0764  0.0593  0.2001
21822W        W38083   6.409  13.718   3.566 -0.2222  0.0964 -0.1703
21823W        W38084  10.373   7.442   4.241 -0.0221 -0.1124 -0.0977
21824W        W38085   0.270  15.690   1.042  0.1577  0.2111 -0.0600
21825W        W38086   5.838   1.830   5.151  0.0697 -0.0538 -0.2777
21826W        W38087  14.736   4.203  16.416  0.4656 -0.0354  0.3511
21827W        W38088   7.269  15.772   1.905 -0.0801 -0.1332  0.0121
21828W        W38089  14.826  13.177   5.697  0.0924 -0.1336 -0.1524
21829W        W38090   2.629   7.878   5.017  0.1062  0.2736 -0.1483
21830W        W38091   8.956  13.358   5.366  0.1852  0.0027 -0.1059
21831W        W38092  11.484   3.179   1.362 -0.0711  0.1238  0.0860
21832W        W38093  15.764   4.158  13.953 -0.2961  0.1414  0.1687
21833W        W38094   6.126  10.203  15.053  0.0265  0.2790 -0.1240
21834W        W38095  12.018   6.947   0.109  0.0299 -0.4643  0.3512
21835W        W38096   9.824   4.007   0.282  0.2280 -0.1963 -0.1523
21836W        W38097  16.443  10.659  11.665 -0.0025 -0.1671 -0.1724
21837W        W38098  12.686   0.973   4.880 -0.0519  0.1155  0.0050
21838W        W38099   4.803  15.268  13.165  0.0365 -0.0583 -0.2349
21839W        W38100   0.098  15.112  16.506 -0.0842 -0.3442  0.0329
21840W        W38101   7.821  15.838  16.353  0.3425 -0.1457 -0.0595
21841W        W38102   5.125   7.597  12.638 -0.0170  0.0710 -0.1377
21842W        W38103   1.755   3.251   2.307 -0.2583  0.0051 -0.0216
21843W        W38104   2.946   5.168   1.907  0.3103  0.1816  0.3294
21844W        W38105   6.629   8.830   2.299  0.1869  0.2470 -0.0725
21845W        W38106   4.947   1.409  13.420  0.0618 -0.3426  0.0587
21846W        W38107  10.336   8.863  12.547 -0.0041 -0.0299 -0.2629
21847W        W38108   0.342   9.536   1.304 -0.0867  0.1051  0.0398
21848W        W38109  11.042   6.152  12.204 -0.2425  0.1171 -0.0485
21849W        W38110  11.937   8.662  14.629 -0.1872  0.1650 -0.3815
21850W        W38111   3.011   8.483   2.146  0.0878  0.1377  0.2910
21851W        W38112   8.873   1.205  14.758  0.2004  0.0265 -0.1365
21852W        W38113   0.029  15.391  13.287 -0.0896  0.2400 -0.1536
21853W        W38114  15.722  14.629  14.840 -0.0606  0.3362  0.2580
21854W        W38115  17.173   9.758   3.179  0.3058 -0.1790  0.0080
21855W        W38116   6.990  15.149  16.470  0.0165 -0.6184 -0.2725
21856W        W38117   7.155   1.295  16.065 -0.1936  0.0731 -0.2699
21857W        W38118   5.811   5.088   0.131 -0.1761 -0.3617 -0.0172
21858W        W38119   1.245   6.616   2.108 -0.0671  0.2136 -0.3411
21859W        W38120  10.855  17.748  12.532  0.1953 -0.1865  0.0458
21860W        W38121   8.534  15.836   0.703  0.0063 -0.4169 -0.1290
21861W        W38122  11.480   6.360   3.084 -0.0980 -0.3229 -0.2767
21862W        W38123   4.719  14.741  13.656  0.0889 -0.1701 -0.2049
21863W        W38124   0.302   3.578  15.480 -0.0815  0.0924  0.1996
21864W        W38125   6.392   9.472  12.265  0.1279 -0.1468 -0.2324
21865W        W38126  11.143  15.313  14.641 -0.0337  0.1622  0.2502
21866W        W38127   6.540  13.732   5.188  0.2244  0.4022  0.2116
21867W        W38128   4.899  13.507  16.528 -0.2786  0.1189 -0.0588
21868W        W38129  16.568   3.598  12.146  0.1275  0.0628 -0.0856
21869W        W38130   8.623  16.243   4.758  0.1952  0.2172 -0.3385
21870W        W38131   4.954  16.707   3.522  0.1284  0.1627 -0.0294
21871W        W38132   4.074  11.481  13.706  0.2041 -0.1413  0.4126
21872W        W38133   9.758  12.870  14.596 -0.4054  0.0460 -0.1603
21873W        W38134  13.228  10.006  12.990 -0.1180  0.0654  0.0849
21874W        W38135  15.275   4.361   1.988 -0.2678  0.0309 -0.0750
21875W        W38136   9.468   5.679  12.959  0.1657  0.1448  0.1304
21876W        W38137  14.107   2.370  15.514  0.1257  0.1560  0.0547
21877W        W38138   4.353   0.040  11.301 -0.3805  0.2868 -0.0614
21878W        W38139   4.994  13.195   5.856  0.0231  0.0874 -0.0712
21879W        W38140  16.814   6.558   1.466  0.0508 -0.0845  0.0556
21880W        W38141   3.137   9.047  13.906  0.2691 -0.1559  0.0289
21881W        W38142   6.178  10.521   3.052 -0.1428  0.0104  0.0150
21882W        W38143  10.809   6.653  14.298  0.1818  0.2148 -0.1578
21883W        W38144   9.894   5.524   4.079 -0.1050  0.0150 -0.2971
21884W        W38145   8.379  16.264   1.447 -0.0653  0.1377  0.0272
21885W        W38146   4.970  12.506   1.344 -0.3146  0.2465  0.0204
21886W        W38147  10.223   0.229  13.650 -0.0196  0.0626 -0.0789
21887W        W38148   2.094   3.241   5.576  0.2407 -0.0808  0.2796
21888W        W38149   0.652   2.918   2.823 -0.1633 -0.3989 -0.2023
21889W        W38150   6.191   5.834  15.610 -0.1267  0.2911  0.3113
21890W        W38151   0.651   8.703   1.684 -0.0603  0.2261 -0.0272
21891W        W38152   3.460   8.887  13.179  0.2393 -0.1907 -0.2516
21892W        W38153   7.387   2.700   0.785 -0.1326  0.1140 -0.0639
21893W        W38154   2.646  13.706   5.579  0.0937  0.2199 -0.2356
21894W        W38155   2.304  16.534  15.250 -0.1818  0.1404  0.2101
21895W        W38156   8.791  13.360  13.091  0.0646  0.1227  0.2330
21896W        W38157   6.097   7.383   2.924 -0.2390 -0.0963 -0.2270
21897W        W38158   0.318  17.374  12.185 -0.1434  0.0174  0.2997
21898W        W38159   2.631   3.474   5.517  0.2194 -0.2468  0.3467
21899W        W38160   8.106   3.004  15.484  0.0569 -0.1922  0.0562
21900W        W38161   5.839   2.113  14.801  0.0918  0.1325 -0.3237
21901W        W38162   8.699   1.680   4.983 -0.0210 -0.0993 -0.3260
21902W        W38163  11.616  15.801  16.747 -0.0245  0.0638  0.0858
21903W        W38164   2.807   7.273   5.674  0.3501 -0.0548 -0.1349
21904W        W38165  10.803  15.353   2.073  0.5135  0.1209 -0.2789
21905W        W38166   5.336   4.252  14.779  0.0575  0.2786 -0.1140
21906W        W38167  10.176  13.441  12.372 -0.0492  0.0077  0.1666
21907W        W38168   3.396   9.231   6.725  0.1860  0.3989 -0.4459
21908W        W38169  12.859  12.655   2.388 -0.1540  0.1804  0.0572
21909W        W38170   9.783   2.569  13.566 -0.0035 -0.1014 -0.0045
21910W        W38171   3.555   2.919   0.283 -0.1594  0.0224 -0.3273
21911W        W38172  12.124  13.632  12.053 -0.0153 -0.1221 -0.1664
21912W        W38173   6.060   6.745   0.193  0.1338 -0.1190 -0.0413
21913W        W38174   6.094   4.013  15.125 -0.2020 -0.1590 -0.0823
21914W        W38175  16.597  12.774  14.979 -0.0813 -0.0038 -0.1523
21915W        W38176  11.222   5.029   2.906  0.3295  0.1525  0.0492
21916W        W38177   6.494   3.088  15.255 -0.2087 -0.0441  0.1101
21917W        W38178   3.837  13.410  12.535 -0.3464 -0.1684 -0.2719
21918W        W38179  10.659   8.761   1.932  0.2424  0.0990 -0.0181
21919W        W38180   4.007   4.195   1.742  0.1462  0.1987  0.0366
21920W        W38181   4.012   2.864  13.275  0.1087  0.2143 -0.0045
21921W        W38182   4.361   9.355   4.947  0.2260 -0.0045 -0.1218
21922W        W38183   4.904   4.281  16.937 -0.0233 -0.1060 -0.0604
21923W        W38184   6.564   6.850   6.436 -0.4584 -0.1584 -0.0099
21924W        W38185  12.095  16.140  14.131  0.2152 -0.2541 -0.3810
21925W        W38186   7.937  10.185   4.925  0.3154 -0.0024  0.0701
21926W        W38187   5.535  13.710  15.706 -0.4726  0.1239 -0.1020
21927W        W38188   1.126   1.343  16.490 -0.2021 -0.0527 -0.1363
21928W        W38189   1.448   0.788  11.537  0.0498 -0.2828  0.3096
21929W        W38190   7.779   6.833   2.664  0.1268 -0.3673 -0.0535
21930W        W38191   5.506  15.206   4.463  0.0114 -0.1886  0.0421
21931W        W38192   9.916  14.465   3.102 -0.1727  0.2599 -0.0429
21932W        W38193  15.757   6.985   5.200 -0.0826  0.1827 -0.1214
21933W        W38194   2.117  13.340   3.549 -0.0778  0.3144 -0.1410
21934W        W38195   1.635   8.543  13.961  0.1848  0.4159 -0.2855
21935W        W38196  11.996  15.097   6.370  0.2282  0.0458  0.0385
21936W        W38197  14.967   8.882   3.040  0.0387  0.0628  0.0148
21937W        W38198   2.551  10.207   0.992 -0.0387  0.1851  0.1666
21938W        W38199   2.778  16.825  13.122  0.3151  0.0342 -0.2971
21939W        W38200   1.381  11.418  13.548 -0.1464  0.2614  0.0265
21940W        W38201  16.272   5.445   2.823  0.0652  0.1624 -0.1327
21941W        W38202  12.565   8.821   4.891 -0.2288  0.2594  0.0697
21942W        W38203  13.389   3.497  12.203  0.0330 -0.0113 -0.0855
21943W        W38204  13.332   3.023  12.275  0.2650 -0.1434  0.1450
21944W        W38205   6.686   7.915   5.653  0.3253  0.1596 -0.1201
21945W        W38206  17.621  15.934  16.574  0.2245 -0.0129 -0.1533
21946W        W38207   8.096   8.315   0.655 -0.1185  0.0197  0.1775
21947W        W38208  10.001  15.349   5.809  0.0911  0.1906 -0.0088
21948W        W38209  17.033   7.377  13.584 -0.0787  0.0781  0.2052
21949W        W38210   0.016  15.142  13.733  0.0265  0.1197  0.2862
21950W        W38211  14.810   7.389  15.949 -0.3025  0.1203 -0.0354
21951W        W38212  13.675   1.191  12.120 -0.0664  0.0840 -0.0809
21952W        W38213  14.775  10.201  14.909  0.0432 -0.3098  0.2250
21953W        W38214   7.691  12.640  14.707  0.3469  0.0290 -0.2969
21954W        W38215  13.851  16.734  15.820  0.2047  0.0998 -0.0857
21955W        W38216   5.332   5.993  12.969 -0.1174 -0.1404  0.0621
21956W        W38217   2.404  14.512   1.049 -0.0220  0.0919  0.1374
21957W        W38218   8.174   5.771  13.665  0.1917 -0.1269  0.1334
21958W        W38219   4.369  12.040   0.028  0.0917  0.0326  0.0088
21959W        W38220   8.502   9.046  13.007  0.0343  0.0118  0.2046
21960W        W38221   9.540   1.892   2.614 -0.2463 -0.0852 -0.2728
21961W        W38222   8.751   5.086  12.083  0.2144 -0.2140 -0.2208
21962W        W38223   6.417   4.374   4.490 -0.0764  0.1879  0.2680
21963W        W38224   1.555   1.029  13.348  0.2452 -0.0573 -0.0235
21964W        W38225   3.160   2.965   4.002 -0.3129 -0.3132 -0.2479
21965W        W38226  15.173   0.900  15.640  0.1603  0.2555  0.0842
21966W        W38227  16.523   6.153   4.693  0.2153  0.0890  0.1125
21967W        W38228   9.629  11.241  13.619  0.1764  0.0326  0.0076
21968W        W38229  15.223   2.147  14.254 -0.2909  0.1111  0.3389
21969W        W38230   2.286   9.725   3.551 -0.2592 -0.0984 -0.2235
21970W        W38231  17.682   5.713  13.655  0.6298 -0.1862  0.1334
21971W        W38232  10.382   7.083   4.600  0.2462  0.5269 -0.0447
21972W        W38233   9.327   1.591  11.891 -0.0555  0.0361  0.3781
21973W        W38234  12.338   9.784  13.230  0.0960 -0.2133  0.1019
21974W        W38235   4.711   0.415   1.921  0.2079  0.3908 -0.0358
21975W        W38236  15.114   2.241   1.799 -0.0721 -0.3173 -0.1896
21976W        W38237   3.675   2.920  16.359 -0.0171 -0.1000  0.1447
21977W        W38238  13.950  15.676  14.094  0.1368 -0.1262 -0.2863
21978W        W38239  16.862   5.394  12.804  0.0521 -0.2074 -0.3157
21979W        W38240  10.494  17.223   4.071  0.3177 -0.0621 -0.3548
21980W        W38241  10.005  11.932   5.142 -0.1670 -0.1890 -0.0539
21981W        W38242  16.514  11.496  11.977 -0.3287  0.0115 -0.1592
21982W        W38243   0.639  11.487   3.784 -0.0143 -0.0184 -0.1276
21983W        W38244   6.316   5.342   2.817 -0.2057 -0.2100 -0.2650
21984W        W38245  12.557   7.264  15.879  0.2321 -0.0231  0.2786
21985W        W38246  12.449   4.879   3.382 -0.2476 -0.1755 -0.0712
21986W        W38247  13.150  17.833   5.159  0.0813  0.0232 -0.4070
21987W        W38248   2.033   9.478   2.732 -0.2633 -0.0645  0.3131
21988W        W38249  13.316   9.593  15.194  0.0752 -0.1205  0.0443
21989W        W38250  13.383   4.232  15.707 -0.2525  0.2947 -0.2041
21990W        W38251   6.074  14.510  12.277 -0.2797 -0.1968 -0.0068
21991W        W38252  14.745  15.737   3.503  0.0953  0.1835  0.0798
21992W        W38253  15.335  17.603  12.941  0.2844 -0.2354 -0.0561
21993W        W38254  17.053   4.089   1.285  0.0459  0.1546 -0.0898
21994W        W38255  13.748   0.354  16.511 -0.3987 -0.3488  0.1176
21995W        W38256  17.399   6.501   4.560  0.1624  0.1029 -0.2445
21996W        W38257   4.812  16.431  12.564 -0.0320 -0.3010 -0.0730
21997W        W38258   9.373  17.504  14.471  0.1387  0.0335 -0.1242
21998W        W38259   8.896  17.557   3.291 -0.0175 -0.2477 -0.2912
21999W        W38260   8.003   9.241   1.302  0.0701  0.3202 -0.1915
22000W        W38261   7.458   0.670  14.709 -0.0753 -0.1274 -0.1786
22001W        W38262   0.037  17.113  11.862 -0.0457 -0.1201 -0.1726
22002W        W38263   6.459   0.071  16.573  0.0260 -0.1505 -0.1917
22003W        W38264   9.809  15.649   4.899 -0.0783  0.5318 -0.2934
22004W        W38265  14.324   2.187   5.621 -0.0924 -0.2142  0.0330
22005W        W38266   6.629   6.097  15.173 -0.1981  0.2339  0.1799
22006W        W38267   5.240  16.890  16.776  0.1994  0.0482 -0.2024
22007W        W38268   1.169  15.239  16.594  0.1311 -0.1369 -0.0045
22008W        W38269  10.530   7.246  15.861  0.2330  0.0135 -0.2107
22009W        W38270  16.638   8.219  16.453  0.1273  0.0782  0.0452
22010W        W38271   0.744   8.283   5.324 -0.0544  0.4242  0.2103
22011W        W38272  11.484   1.270   5.582  0.0054 -0.1994  0.0749
22012W        W38273   3.339  17.564   4.408  0.1674  0.0506 -0.1373
22013W        W38274  15.860  13.837  16.542  0.0289 -0.2142  0.0743
22014W        W38275  10.217  17.238  14.325 -0.0950 -0.1685  0.0119
22015W        W38276  10.479  17.134  13.825 -0.1764 -0.2036 -0.0716
22016W        W38277  10.576   7.724  15.982 -0.0323  0.1039  0.1926
22017W        W38278   0.079  16.107   1.204  0.0361 -0.0688 -0.3520
22018W        W38279   2.335  10.933  12.500  0.0990  0.1232 -0.1066
22019W        W38280   7.452   0.049   3.388 -0.0081 -0.0802  0.0044
22020W        W38281   8.957   9.436   1.774 -0.1285 -0.3577 -0.2427
22021W        W38282  13.771   7.595  11.581  0.1893 -0.0411 -0.1792
22022W        W38283   6.680  16.318   0.920 -0.1719  0.1011 -0.0797
22023W        W38284   4.489  15.442  15.242 -0.3249  0.2103 -0.0240
22024W        W38285   8.620  10.186  14.630  0.0085  0.0474 -0.1583
22025W        W38286  17.028  12.005   0.899 -0.0859 -0.1029 -0.2655
22026W        W38287   6.505  15.391   3.695 -0.1049 -0.2806  0.0830
22027W        W38288   0.723  11.029  14.682 -0.0131  0.1402  0.1889
22028W        W38289  15.475   6.435  15.157 -0.3129 -0.0828 -0.0371
22029W        W38290  10.764   3.932  12.277 -0.2927  0.0365  0.1622
22030W        W38291   8.819  17.717   0.974  0.0593  0.0786  0.0945
22031W        W38292  12.207   0.603   0.992  0.1690 -0.0099 -0.1828
22032W        W38293  10.916  16.845   0.767  0.1879 -0.2466  0.2656
22033W        W38294  12.213   6.456   3.108  0.0482 -0.1406 -0.0274
22034W        W38295  17.299   1.381   4.644  0.0483  0.1542  0.2269
22035W        W38296   8.564  14.422  11.935 -0.1925  0.1687  0.0974
22036W        W38297   1.271   2.619  13.403 -0.1582 -0.1349 -0.2365
22037W        W38298  15.736   9.005   4.066  0.0744  0.0540  0.0815
22038W        W38299   6.885   9.769  15.078  0.0215  0.4518 -0.1370
22039W        W38300  11.006   7.060  12.073  0.3131  0.1336  0.0507
22040W        W38301   4.703   0.319  16.541 -0.3405 -0.0953 -0.0989
22041W        W38302   6.111  10.045  13.716  0.3826 -0.1797  0.1985
22042W        W38303  16.460  17.301  12.992 -0.0263  0.1221 -0.0741
22043W        W38304   1.644   5.097   5.327  0.0048 -0.3300 -0.1009
22044W        W38305   7.441  14.889   1.405 -0.0711  0.1290  0.1428
22045W        W38306   0.962  10.594  15.213  0.1533  0.0608  0.0017
22046W        W38307  15.553   8.234   3.378  0.2589 -0.1846  0.4280
22047W        W38308   6.783   2.273  14.930  0.3435 -0.0097 -0.6270
22048W        W38309   9.622  15.976   2.508 -0.3183  0.0304  0.2418
22049W        W38310   6.003   5.652  16.557 -0.2678 -0.3507  0.3034
22050W        W38311   1.351  10.856   2.585 -0.1871  0.1313  0.0455
22051W        W38312   9.131  12.743  16.037 -0.1091 -0.0757  0.2824
22052W        W38313  10.194   8.812   1.236 -0.0623  0.1391 -0.1864
22053W        W38314  11.810  15.499   0.489 -0.0286 -0.0159  0.1341
22054W        W38315  13.498   1.509   2.395 -0.2666  0.1505  0.0821
22055W        W38316  16.854   1.989  15.088 -0.0161 -0.2658 -0.3610
22056W        W38317  12.944   6.591   3.639 -0.1946 -0.0708  0.0761
22057W        W38318   6.579   5.897   1.332 -0.0887  0.0316 -0.1599
22058W        W38319  17.267   5.931   5.707 -0.0138  0.0593 -0.1787
22059W        W38320   8.436   6.776   3.924 -0.0388  0.0575  0.1964
22060W        W38321   1.681   7.420   1.670 -0.0636  0.3432 -0.1898
22061W        W38322   8.937   2.733  14.811 -0.2084 -0.3825  0.0480
22062W        W38323  13.364   1.324   5.462 -0.0777 -0.1453  0.2903
22063W        W38324   6.989  10.263  15.342  0.2182  0.1104  0.0893
22064W        W38325   4.721   0.028   3.201 -0.1008 -0.0707 -0.2384
22065W        W38326  14.503   3.439   4.056  0.1305  0.0658 -0.3244
22066W        W38327   0.664  16.591   5.076 -0.1865  0.1313  0.1560
22067W        W38328  16.885   4.328   3.518  0.0493  0.0226  0.2379
22068W        W38329   7.204  16.198  14.039 -0.0436 -0.0081  0.1428
22069W        W38330   6.256   2.041   0.803  0.1134 -0.0204  0.0927
22070W        W38331  10.458  16.413  13.836  0.0741 -0.0067  0.0906
22071W        W38332   3.877   8.966   5.578  0.1755 -0.0113  0.0183
22072W        W38333   3.235   2.040  16.793  0.1102  0.3143  0.3570
22073W        W38334  10.266   3.913   2.433 -0.2020  0.0861  0.2263
22074W        W38335  13.690  15.070   4.432 -0.0380  0.4301  0.3727
22075W        W38336   8.771  12.615   3.855  0.2209  0.0229  0.1517
22076W        W38337  16.978   1.753   4.606  0.3829 -0.1055  0.0982
22077W        W38338   2.373  12.437  11.961 -0.1764  0.1833 -0.2345
22078W        W38339   7.972  13.634   0.893 -0.2977 -0.2163 -0.1639
22079W        W38340   9.587   9.121   3.067  0.1054 -0.2035  0.2019
22080W        W38341  11.210   8.212   0.580  0.0585  0.1415 -0.0323
22081W        W38342  17.611   5.797  12.458  0.0933 -0.1647 -0.0786
22082W        W38343  11.951   2.981   3.383 -0.2547  0.2609  0.0905
22083W        W38344   5.501   6.983  11.939  0.1010  0.1680 -0.5822
22084W        W38345   9.346   0.144   2.978  0.2135 -0.2107  0.0214
22085W        W38346   6.484  11.798   3.018 -0.2175  0.1240  0.1149
22086W        W38347  10.102   4.221   3.365 -0.1114  0.2397 -0.0080
22087W        W38348  12.591  11.829  15.889 -0.5926  0.1838 -0.0074
22088W        W38349   3.054   6.126  12.684 -0.1507 -0.0556  0.1338
22089W        W38350   3.071  17.837   3.907 -0.1853 -0.1948  0.0866
22090W        W38351   6.398  17.473  16.371  0.1235  0.1476 -0.3269
22091W        W38352   4.042  16.228  14.388 -0.0068  0.1446 -0.0457
22092W        W38353   4.888   5.462   2.710  0.2383 -0.2144  0.2583
22093W        W38354  14.445  14.535   2.958 -0.1315 -0.1976  0.0650
22094W        W38355  14.628  16.437   0.773 -0.1897  0.0002 -0.1502
22095W        W38356   8.869  11.757  16.124  0.0549 -0.2232 -0.0286
22096W        W38357  13.297   1.190  11.464 -0.0112 -0.0324 -0.1712
22097W        W38358   2.338   8.967  14.154  0.0001 -0.0197  0.0748
22098W        W38359   3.638  11.451   3.360  0.0632  0.0272 -0.0096
22099W        W38360  15.683  15.891  14.184  0.0002  0.1991 -0.4778
22100W        W38361   4.281   6.483   2.981  0.0876  0.0120 -0.2668
22101W        W38362   6.099   7.557   3.790 -0.1759 -0.2994  0.0395
22102W        W38363   9.793  13.869  14.640 -0.3129 -0.0631 -0.2721
22103W        W38364   0.350  17.075   0.681 -0.2133  0.0428  0.0562
22104W        W38365  15.099   6.477   0.760  0.1474 -0.0884  0.2447
22105W        W38366  11.858   9.101  16.069 -0.1179 -0.1755 -0.2832
22106W        W38367   6.311   2.318  16.894 -0.1680 -0.1542  0.2850
22107W        W38368   0.581   3.977  14.066 -0.3736 -0.0053  0.3113
22108W        W38369   0.724  15.860   3.484 -0.0085 -0.1115 -0.0181
22109W        W38370   3.545   0.793  16.848 -0.2372  0.0120  0.0580
22110W        W38371  16.535  17.137   0.338 -0.1622 -0.0219 -0.0509
22111W        W38372   8.309   6.822  13.976 -0.0153 -0.1982  0.3254
22112W        W38373  13.339   4.535  14.192  0.0228  0.4454 -0.2060
22113W        W38374   9.268   0.219   1.093 -0.0414  0.0283  0.0384
22114W        W38375   2.214   8.914   2.550 -0.6535 -0.1002 -0.0719
22115W        W38376   2.005  12.562   1.069  0.1261 -0.3129 -0.3743
22116W        W38377  12.391  14.832   2.023 -0.1215 -0.0579 -0.3304
22117W        W38378  10.982   8.512   3.558  0.2562 -0.1187  0.1102
22118W        W38379   6.892   5.451   5.839 -0.3294 -0.1609  0.5565
22119W        W38380   8.865  13.604   2.675  0.1407  0.2075  0.2233
22120W        W38381  11.365  10.273  15.294 -0.0936 -0.1156 -0.2274
22121W        W38382   3.030   3.271   1.705 -0.1487 -0.0274  0.1750
22122W        W38383  15.951  12.572   5.848  0.0749 -0.5833  0.0889
22123W        W38384  15.865  16.011   5.874  0.0174  0.2048  0.0755
22124W        W38385   3.383   7.018  12.863 -0.1830  0.3891  0.0380
22125W        W38386  16.696  15.461  15.355 -0.3942 -0.1342  0.1351
22126W        W38387   0.225  15.821  13.387 -0.2131  0.0391 -0.0125
22127W        W38388  16.608   4.052   3.930  0.0317 -0.1255 -0.0536
22128W        W38389   8.503  13.929  11.909  0.3526  0.2749 -0.0722
22129W        W38390  10.196  14.794  14.635  0.1876  0.1982 -0.0200
22130W        W38391  14.235  13.671   3.747 -0.4998  0.0926 -0.1827
22131W        W38392   2.287  15.025  11.244 -0.1010 -0.0169 -0.4435
22132W        W38393  13.197   2.978   4.035 -0.3313  0.1261 -0.1426
22133W        W38394   9.784  13.706   0.885 -0.0445 -0.0570  0.0743
22134W        W38395   7.873   7.975   1.984 -0.3039 -0.0403 -0.2581
22135W        W38396   6.643  13.957  15.445  0.1439  0.0680  0.0346
22136W        W38397  13.399  10.253   6.006  0.3486 -0.0641 -0.1967
22137W        W38398   5.296  12.291   5.810  0.1488 -0.0240 -0.0617
22138W        W38399   2.932  10.115   6.501  0.0402  0.0234  0.1905
22139W        W38400  15.940   2.784   2.464  0.1497  0.0227 -0.2377
22140W        W38401  14.167   7.792   6.070  0.0066 -0.4600  0.0405
22141W        W38402   0.199  12.489  12.272  0.3262 -0.1785 -0.1740
22142W        W38403  11.314   4.616  12.129 -0.0295 -0.3079 -0.1502
22143W        W38404   4.331  13.735   3.553  0.1909 -0.1277  0.2253
22144W        W38405   4.822   5.045  12.080 -0.2138 -0.1422 -0.0762
22145W        W38406   2.974   6.513  14.955  0.0727 -0.0430  0.2988
22146W        W38407   6.627  15.837   2.872  0.4044 -0.0877 -0.1492
22147W        W38408   7.848  10.850  14.186 -0.0203 -0.2541 -0.0263
22148W        W38409   5.478   9.281   1.450 -0.0537 -0.0713  0.4684
22149W        W38410  13.048   2.336   3.422 -0.2336 -0.0274  0.0864
22150W        W38411  16.742  16.678   3.287  0.0790 -0.1706  0.3490
22151W        W38412  13.210  10.647   5.837 -0.2751 -0.0606 -0.1052
22152W        W38413   4.623   9.335   5.446  0.1731  0.0556  0.1866
22153W        W38414  10.563   5.833  14.320 -0.3190  0.2108 -0.2442
22154W        W38415  17.195   5.807   3.856  0.1710  0.0356 -0.0433
22155W        W38416  13.890  12.368   0.982  0.2357 -0.2101 -0.0424
22156W        W38417   8.734   8.167  15.193 -0.1170  0.1286  0.1773
22157W        W38418   8.801  10.195  11.600 -0.1729 -0.1901  0.0282
22158W        W38419  13.682   0.095   0.032 -0.1790  0.0851 -0.2415
22159W        W38420   5.886  15.371   5.349  0.2579 -0.1913 -0.0740
22160W        W38421  15.614   4.209   2.776  0.0257 -0.1042 -0.2669
22161W        W38422  17.669   7.042   1.633 -0.0225 -0.0823  0.0839
22162W        W38423   9.632   3.638   0.878 -0.1812 -0.0131  0.2647
22163W        W38424   7.337  17.129  12.978 -0.0330 -0.2721 -0.0341
22164W        W38425  15.142   9.556   4.880  0.1435  0.3145  0.1186
22165W        W38426   1.199   0.866   2.506 -0.1494  0.4325  0.1224
22166W        W38427  17.428   1.846   4.720 -0.1131 -0.3772 -0.1059
22167W        W38428  12.273   0.826   2.740 -0.2631 -0.0210  0.3220
22168W        W38429   5.268   1.320   5.698  0.1296 -0.0005  0.0562
22169W        W38430  16.078   0.775   4.173 -0.0720 -0.2504  0.1557
22170W        W38431  11.961  13.991  15.698  0.1211 -0.0141 -0.3165
22171W        W38432   0.651  15.640   2.468  0.1431  0.1405  0.0186
22172W        W38433  11.714  11.192   4.822  0.1447  0.1942 -0.0582
22173W        W38434  13.180  13.503   3.933 -0.0887 -0.4896  0.3748
22174W        W38435   5.717   8.017   0.352  0.0425 -0.1293  0.2194
22175W        W38436   8.129  13.312  12.526 -0.1123 -0.1516 -0.0976
22176W        W38437   7.214   3.921  13.190  0.1791 -0.0142 -0.0926
22177W        W38438   0.706  15.716  14.613  0.1045 -0.1577  0.0459
22178W        W38439  16.762   7.437   0.236 -0.1936 -0.2359 -0.0874
22179W        W38440   7.969  14.783   1.292 -0.0603 -0.0880  0.2264
22180W        W38441  14.257   8.312   4.821  0.2151  0.0511  0.1846
22181W        W38442  11.967   7.063  12.062 -0.0533 -0.1643  0.3505
22182W        W38443  12.018   1.573  13.940  0.3062  0.1954  0.1971
22183W        W38444   2.606  16.254  14.706 -0.1195 -0.2191 -0.2746
22184W        W38445   4.912   4.998   4.223 -0.0720 -0.1754 -0.0807
22185W        W38446  17.604  13.579  13.546 -0.0669  0.1071  0.1946
22186W        W38447   9.673  12.597   5.402 -0.0935 -0.0484 -0.4588
22187W        W38448   2.391   5.997   1.864  0.1206 -0.0052 -0.0908
22188W        W38449   3.622  16.328   1.924  0.2005  0.0539  0.2141
22189W        W38450   5.654  15.669  12.974 -0.1296  0.1230  0.0888
22190W        W38451   2.923  11.634  14.031  0.4022  0.0980  0.0266
22191W        W38452   9.865   9.845   4.760  0.1997  0.0106 -0.3930
22192W        W38453   2.193  16.387  16.647  0.1817 -0.2374  0.0396
22193W        W38454  15.135   9.237  15.308  0.0290 -0.2633  0.1604
22194W        W38455   2.210   1.395   3.957 -0.2638 -0.3283 -0.2525
22195W        W38456   5.862   7.317   0.799 -0.0955  0.2487  0.1549
22196W        W38457  10.108   6.724  16.349 -0.0083 -0.2097 -0.1247
22197W        W38458   2.193   0.153  15.138  0.3228  0.0953  0.0197
22198W        W38459  11.436  13.090  13.875 -0.4897 -0.2554 -0.2427
22199W        W38460   4.263   7.767  15.248  0.3341  0.0949 -0.3048
22200W        W38461  15.523  17.805   1.566 -0.0537  0.2884 -0.0882
22201W        W38462  12.466   4.255   5.140 -0.0658  0.0008  0.0249
22202W        W38463  15.686   9.292  13.999 -0.0201  0.0052 -0.0278
22203W        W38464  15.469  17.824   0.031 -0.0163  0.1828  0.0035
22204W        W38465   2.906   7.458  14.205  0.0433  0.2347  0.1507
22205W        W38466  14.160  13.093  13.150 -0.2556  0.1007  0.0606
22206W        W38467   3.863   6.971   0.680 -0.0434  0.0465 -0.0637
22207W        W38468  16.032   7.995   2.728  0.1526 -0.0436  0.0159
22208W        W38469   7.253  11.573   1.355 -0.2699 -0.0064 -0.0844
22209W        W38470   4.070  17.337  14.222 -0.1822 -0.3332  0.0933
22210W        W38471  13.079  15.605  15.287  0.1713 -0.0224  0.0054
22211W        W38472   4.511  15.732   4.225 -0.1059  0.2998  0.0221
22212W        W38473  15.957   4.581  16.700  0.1057 -0.2910 -0.1027
22213W        W38474  11.496  13.034   3.867 -0.0624 -0.0946 -0.2349
22214W        W38475  12.242  10.359   0.063 -0.1741 -0.2383  0.2690
22215W        W38476   7.006   1.993   4.434  0.0469  0.0334  0.0460
22216W        W38477   5.810  16.866   3.232 -0.2058 -0.0181  0.1015
22217W        W38478  12.484   5.817   0.106  0.4481  0.0539 -0.1971
22218W        W38479   3.061   9.125  12.424  0.3196 -0.3185 -0.1487
22219W        W38480   0.438  14.262  13.680 -0.0798  0.0613 -0.1461
22220W        W38481  11.680   3.880   4.931  0.3305 -0.0951 -0.0454
22221W        W38482  10.106  16.637   0.317  0.0630  0.5196  0.1448
22222W        W38483   5.408   2.669   1.839 -0.0407  0.0116 -0.1501
22223W        W38484  14.858  13.549   0.182  0.1102 -0.0474  0.1825
22224W        W38485  15.238  13.585  12.429 -0.0336 -0.1114 -0.1744
22225W        W38486  12.895   6.476  14.192 -0.1941 -0.0669  0.0420
22226W        W38487  14.211   2.107  12.247 -0.1710  0.3066  0.1425
22227W        W38488  17.397  14.559   0.054 -0.0410 -0.0526 -0.0719
22228W        W38489   7.174   9.497  14.529 -0.4187  0.0509  0.0506
22229W        W38490   6.715  13.175   2.111  0.0911  0.3955  0.0055
22230W        W38491   4.091  15.774  14.612 -0.0489 -0.1145  0.0233
22231W        W38492   0.469  14.179   3.783 -0.3519  0.0751  0.1501
22232W        W38493  17.006  13.221  15.568  0.0783  0.1993  0.0320
22233W        W38494   6.442   6.112   3.330 -0.1000  0.0514  0.1759
22234W        W38495  15.120   7.721  14.647  0.0242 -0.0435 -0.1141
22235W        W38496   5.951  15.091   1.622  0.0423 -0.2237  0.0189
22236W        W38497   3.196   4.564  14.669 -0.1864 -0.1171  0.0659
22237W        W38498   2.111  15.518  15.434 -0.0034 -0.1785  0.2515
22238W        W38499  10.171   0.697  15.388 -0.0238 -0.0419  0.5240
22239W        W38500   8.333  17.847   5.081 -0.0865 -0.1115 -0.1410
22240W        W38501  15.527   2.078   0.989 -0.1091  0.3622  0.0711
22241W        W38502  16.186   1.198  14.931 -0.1135 -0.0752  0.2106
22242W        W38503   7.230  17.673  14.944 -0.0452 -0.2453  0.0492
22243W        W38504   1.551   4.825   0.399  0.3523 -0.1784 -0.1529
22244W        W38505   8.265  12.842   2.052 -0.1596 -0.0875 -0.1134
22245W        W38506   7.923   9.120  13.691 -0.1123 -0.1518  0.2085
22246W        W38507   5.625  15.278  14.609  0.0409 -0.0181 -0.0939
22247W        W38508  17.153  15.297   2.516 -0.3401 -0.2205 -0.0895
22248W        W38509  11.169   5.404  15.210  0.2863 -0.1644  0.0687
22249W        W38510  16.983  12.496  16.662  0.1754  0.3955 -0.0699
22250W        W38511  14.690  16.959  15.365  0.0124  0.1089 -0.1322
22251W        W38512   1.379   7.368  11.997 -0.2422 -0.0926  0.1417
22252W        W38513   9.720   6.653   3.236 -0.1268 -0.0282 -0.0006
22253W        W38514   4.735   4.955   4.903 -0.0303 -0.1527 -0.3012
22254W        W38515   4.608   6.949   5.630  0.1071 -0.1687  0.0828
22255W        W38516  10.942  11.497   0.541  0.2292 -0.1326  0.2539
22256W        W38517  10.713   6.202  15.174 -0.3489  0.0424  0.1557
22257W        W38518   1.853   3.406   1.018 -0.0757  0.3204  0.1302
22258W        W38519   7.773   5.151   0.188 -0.1001  0.0275 -0.0594
22259W        W38520   1.554  13.451   4.051  0.0617 -0.0883  0.0533
22260W        W38521   0.527   6.819  16.792 -0.3131  0.1337 -0.3435
22261W        W38522   3.558   8.595   1.935  0.0604  0.3404 -0.0165
22262W        W38523  14.416  15.506  14.105 -0.2461 -0.0374  0.0951
22263W        W38524  17.471  10.010  10.901 -0.0031  0.2751 -0.5453
22264W        W38525  14.114  16.366  13.402 -0.1520 -0.2882  0.3355
22265W        W38526  11.357   4.776   2.110  0.0642  0.0637 -0.2149
22266W        W38527   7.120   2.408  15.520  0.1033 -0.0189  0.2335
22267W        W38528   0.769   4.942  11.763  0.3495 -0.0440 -0.1610
22268W        W38529  15.154   9.244   5.273 -0.2819 -0.0482 -0.0711
22269W        W38530   5.290   1.708  12.577 -0.3570 -0.4500 -0.2589
22270W        W38531  10.508   2.915   5.018 -0.1459  0.1920 -0.0879
22271W        W38532  13.448   5.457  12.399  0.0416 -0.0308  0.2099
22272W        W38533   7.607   7.279   5.117 -0.0226 -0.2116  0.0368
22273W        W38534   1.907  16.608  14.413 -0.0673  0.0843  0.0031
22274W        W38535   7.860  15.462  14.451  0.1663  0.3515 -0.1970
22275W        W38536   8.244   7.029   4.970  0.0343  0.3546 -0.0017
22276W        W38537   2.238  10.666  16.017 -0.1581  0.0943  0.0141
22277W        W38538   5.826   3.250   3.024  0.1828  0.1768 -0.1164
22278W        W38539   6.867  14.372  12.004  0.0993 -0.2673 -0.4637
22279W        W38540   4.790  17.170   4.439 -0.1414  0.2000  0.3841
22280W        W38541  17.357   4.673  15.658  0.0171  0.2696  0.0812
22281W        W38542   7.284   3.724   5.151  0.0646  0.2652  0.1274
22282W        W38543   6.054   4.400  12.061  0.1194 -0.2718 -0.2334
22283W        W38544  13.142   3.255  16.284  0.0618  0.0979 -0.1378
22284W        W38545  17.133   1.390  13.576 -0.0632 -0.0147 -0.0313
22285W        W38546  15.070   9.084   2.598  0.2796  0.0017 -0.2787
22286W        W38547   9.354   4.123   2.819  0.1395 -0.0746  0.0019
22287W        W38548  11.714  12.470  12.905  0.0846  0.0714  0.2026
22288W        W38549   6.596  14.317   1.093  0.1512 -0.2507  0.1048
22289W        W38550  15.692   7.575   1.455  0.1779 -0.0519  0.0929
22290W        W38551   3.094  13.873   5.658 -0.0393 -0.1949 -0.0360
22291W        W38552  13.327  17.575  12.458  0.0238  0.2517 -0.3609
22292W        W38553   3.714  10.767  14.583 -0.2060 -0.1700  0.0738
22293W        W38554  11.855  16.334  13.281 -0.2800  0.0014  0.1743
22294W        W38555  10.835  11.932   5.505  0.0248  0.1023  0.3234
22295W        W38556  13.205   2.952  13.288 -0.1335  0.1825 -0.0853
22296W        W38557  10.356   7.301  14.005  0.2790 -0.2500 -0.0758
22297W        W38558   5.216  11.916   2.455 -0.2517  0.1202 -0.1125
22298W        W38559  10.806  16.803  14.017 -0.3420 -0.2950 -0.0017
22299W        W38560   6.425   3.796   5.017 -0.0977 -0.1225  0.2783
22300W        W38561   9.488  13.303   5.774 -0.1646  0.0298 -0.1473
22301W        W38562   2.166   5.578   1.934 -0.1883 -0.0840 -0.0706
22302W        W38563  17.442  10.004  15.807 -0.1882  0.0471  0.2057
22303W        W38564   6.255  15.342   5.043  0.2933 -0.1565  0.1579
22304W        W38565   7.646   6.219  16.067 -0.1569 -0.0397 -0.2263
22305W        W38566   7.220  11.861   2.230 -0.1526 -0.0700 -0.3088
22306W        W38567   9.012  16.000  12.528 -0.3957 -0.0285  0.1512
22307W        W38568  10.450   0.936   3.337 -0.1466  0.4256  0.0606
22308W        W38569  17.536   8.345   0.407  0.0247 -0.1603 -0.1372
22309W        W38570  12.604   2.491   4.838  0.1374 -0.3138  0.1253
22310W        W38571  16.302  16.040  16.872  0.0523 -0.1496  0.0173
22311W        W38572  14.765   9.356   3.331  0.0154 -0.1000  0.0245
22312W        W38573   0.856  17.217   3.866 -0.0392 -0.2901  0.1110
22313W        W38574  13.410  15.162   2.437 -0.2390  0.2628  0.1393
22314W        W38575  16.054   0.320   2.065  0.0692  0.0459  0.1097
22315W        W38576  15.668  10.214  12.295 -0.2529  0.2349 -0.3443
22316W        W38577   5.061   9.544   1.477 -0.0151  0.1172 -0.1836
22317W        W38578   2.216  13.119   5.787  0.0559 -0.1006  0.1028
22318W        W38579   2.692  16.695  15.642 -0.2225 -0.0467 -0.0190
22319W        W38580   4.087  17.610   0.308  0.0128 -0.1605  0.0365
22320W        W38581  10.688   9.743   0.273 -0.0624 -0.2320  0.0042
22321W        W38582  14.777  13.908   0.547  0.0463 -0.0133 -0.0315
22322W        W38583   2.356  16.164   5.089  0.1505 -0.1831 -0.1055
22323W        W38584   5.334   2.683  16.299  0.1232  0.0969 -0.3275
22324W        W38585   8.290  15.349   3.780 -0.1195  0.2120  0.1626
22325W        W38586  16.133  16.237  12.211  0.0587  0.2138  0.1499
22326W        W38587   3.147   6.101  16.383  0.0113 -0.1728 -0.1038
22327W        W38588  11.269   6.048  16.310  0.0908  0.0626  0.0426
22328W        W38589  10.484   4.781   5.039 -0.2398 -0.0934 -0.0845
22329W        W38590  15.547  14.945   3.829 -0.0997  0.1842  0.1689
22330W        W38591  10.154   7.926   1.831  0.0761 -0.0465 -0.0906
22331W        W38592  11.865   3.963  16.603  0.3540 -0.0601  0.0134
22332W        W38593   7.513  15.732   0.217 -0.0322  0.0121 -0.1903
22333W        W38594  11.785   6.953   2.050  0.2850 -0.0405 -0.0482
22334W        W38595  11.662  15.867  14.499 -0.1384 -0.2171 -0.1428
22335W        W38596  12.837   0.251   5.464  0.1767 -0.1417 -0.1152
22336W        W38597  10.623  13.834   3.778  0.0759 -0.0157 -0.4207
22337W        W38598  12.530   9.310   3.890 -0.0129  0.0458  0.3313
22338W        W38599  11.823   7.292   2.583  0.3268  0.0155  0.2359
22339W        W38600  12.696   6.272   3.258 -0.0423  0.0185 -0.0074
22340W        W38601   9.003   0.504  16.552 -0.0933  0.0642  0.0734
22341W        W38602  10.337  13.741   2.049 -0.0424  0.0006  0.1178
22342W        W38603  10.142  13.078  11.975 -0.0018  0.1275  0.1871
22343W        W38604  12.936  12.496   0.020 -0.0051  0.1222 -0.1061
22344W        W38605  15.365  16.937  14.578  0.0254 -0.2019 -0.0257
22345W        W38606  13.808  12.262  16.632 -0.1196 -0.0417  0.2090
22346W        W38607   5.503   0.398  14.437  0.1908 -0.1101 -0.1425
22347W        W38608   5.054  16.025  16.317 -0.2519  0.0301 -0.0699
22348W        W38609   2.498  13.417   1.632 -0.0487  0.0546  0.0874
22349W        W38610  13.821   5.542   4.451 -0.0215 -0.2107 -0.1464
22350W        W38611   1.535  10.187  12.143  0.0105 -0.2794  0.1584
22351W        W38612   1.461  16.207  14.408  0.3521  0.0207  0.1746
22352W        W38613   8.407  16.869   5.521 -0.2989 -0.1739  0.1676
22353W        W38614   8.363  11.742   3.577 -0.1637 -0.0548  0.2174
22354W        W38615  12.264   2.744   0.815  0.1752 -0.1400 -0.3339
22355W        W38616   1.578  11.301  12.570 -0.0429 -0.4657  0.1909
22356W        W38617   1.197   8.967   4.244 -0.0636  0.1244  0.0355
22357W        W38618  14.637   8.534  13.636 -0.2321  0.0805  0.0789
22358W        W38619   2.083  12.157  11.617  0.0719  0.1076  0.0571
22359W        W38620   9.153   8.431   2.853 -0.1945 -0.0701  0.3446
22360W        W38621  16.620  17.636   3.832 -0.4466  0.1873  0.0486
22361W        W38622  13.808   0.477  11.411 -0.0504  0.2457  0.1187
22362W        W38623   7.988  17.238  12.857 -0.2193  0.2201 -0.1902
22363W        W38624   7.986  17.052   3.251 -0.0528 -0.0638  0.1081
22364W        W38625   6.737   5.723  11.821 -0.2706  0.1600 -0.1580
22365W        W38626  10.846   3.072  16.437  0.0444 -0.1867 -0.1947
22366W        W38627   6.148   4.823   5.194 -0.2238  0.3674 -0.0189
22367W        W38628  17.788   9.219   2.040 -0.1262 -0.0974 -0.2740
22368W        W38629   5.433   9.624   4.121  0.1938 -0.2237  0.1685
22369W        W38630   9.539  11.551  13.159 -0.0205 -0.3205  0.0655
22370W        W38631   7.517  16.371  14.411 -0.1188  0.0656  0.0924
22371W        W38632   5.405   9.244  13.730 -0.2418 -0.0524  0.0187
22372W        W38633  11.777  17.850  15.402  0.3574  0.1137  0.3143
22373W        W38634   7.961   2.789   3.532  0.0193 -0.1120  0.1648
22374W        W38635   8.745  11.316   3.735 -0.0952 -0.2136 -0.0026
22375W        W38636  14.565   0.751   4.065 -0.0478 -0.1105  0.0206
22376W        W38637  14.334  13.935   6.435  0.1466 -0.2355  0.0006
22377W        W38638  16.490  14.023   0.913  0.0467  0.0835  0.1836
22378W        W38639   3.055   1.806  11.374 -0.2331 -0.0684 -0.0952
22379W        W38640  14.591  15.763   5.103  0.1723 -0.1985 -0.1708
22380W        W38641   8.844   9.736   2.369 -0.0549  0.0078  0.0422
22381W        W38642   9.517  10.786   5.955 -0.0296 -0.0981 -0.0169
22382W        W38643   9.980   6.775  12.224 -0.1554 -0.2078 -0.2336
22383W        W38644   3.246   6.070  13.901 -0.2017  0.0923 -0.0073
22384W        W38645   8.575   5.370   4.373 -0.0660  0.0961 -0.1089
22385W        W38646   0.317   9.169   5.615  0.0744 -0.1876  0.0387
22386W        W38647   7.076   0.180  12.604 -0.1728 -0.1991 -0.3481
22387W        W38648   7.217   2.301  13.313 -0.1252 -0.1940 -0.0067
22388W        W38649  16.134   3.391   0.897 -0.0780 -0.1761 -0.0118
22389W        W38650  15.501   2.755   0.014  0.4497  0.0683  0.4905
22390W        W38651  11.564  10.074  16.559  0.1119  0.0769 -0.2172
22391W        W38652  11.562  10.837   4.450 -0.2035  0.0080 -0.2891
22392W        W38653  11.664   4.903  16.350  0.3853 -0.0175 -0.0263
22393W        W38654  10.083   2.031  11.875  0.1112  0.0225  0.0115
22394W        W38655  13.676   3.728  15.573 -0.0824 -0.2320  0.1301
22395W        W38656   1.869  10.910  12.723 -0.2442 -0.3325  0.1413
22396W        W38657  10.581   3.406   0.744 -0.0013  0.1995 -0.2492
22397W        W38658  11.017   1.929   1.350 -0.0659  0.1656  0.0706
22398W        W38659   5.241   5.858  14.086 -0.2025 -0.1796 -0.1852
22399W        W38660  10.702   2.258   2.173 -0.0670 -0.3173 -0.3151
22400W        W38661   1.539   6.367   3.966  0.3933 -0.0685  0.0037
22401W        W38662   1.168  12.560  15.558 -0.0002 -0.0159 -0.0137
22402W        W38663  11.800   1.373   0.898 -0.1784  0.1305  0.1677
22403W        W38664   8.279   9.204   0.595 -0.1904  0.1359 -0.4118
22404W        W38665   5.114   2.722   5.156  0.2106  0.3165  0.0692
22405W        W38666   0.092  10.548   1.259  0.1201  0.0942  0.0615
22406W        W38667   2.876  13.000   1.738 -0.0476 -0.0380 -0.1267
22407W        W38668   2.893   5.888  14.326 -0.2463 -0.2539  0.1233
22408W        W38669   2.028   3.463   3.125 -0.2327  0.0302  0.1711
22409W        W38670  16.019   6.499   0.957 -0.2425 -0.0064  0.1678
22410W        W38671   9.946   6.495  14.622  0.0269  0.0992  0.3643
22411W        W38672  14.578  11.672  13.218 -0.0601  0.1686 -0.1001
22412W        W38673  16.239   7.520   2.776 -0.0357 -0.3429  0.0798
22413W        W38674   3.491   0.400   2.720  0.0163 -0.2267  0.0229
22414W        W38675   6.642  11.399  16.138  0.0999 -0.3186 -0.0139
22415W        W38676  15.214   7.556   4.032 -0.4578  0.3842 -0.1168
22416W        W38677   0.084   6.854   3.914  0.4514  0.1836  0.2974
22417W        W38678  14.541   0.595   3.067 -0.1984  0.2083 -0.1193
22418W        W38679   6.723  13.399   4.474 -0.1874  0.1394  0.2373
22419W        W38680  10.188   2.676   5.324 -0.2230  0.0240 -0.1406
22420W        W38681   4.897  12.619   5.837  0.1359  0.1528  0.2748
22421W        W38682   6.596  17.022  15.345  0.0025  0.1356 -0.0547
22422W        W38683   6.839   2.178  14.345 -0.0033 -0.2673 -0.1234
22423W        W38684   5.870   2.494  12.134 -0.4013  0.0896 -0.0947
22424W        W38685   0.899   2.657  12.657  0.3002  0.1788 -0.2662
22425W        W38686  15.078  17.623  12.447 -0.1956  0.0100 -0.3067
22426W        W38687   8.879   9.745  13.512  0.1319  0.2502  0.1089
22427W        W38688  10.075  10.049   1.030 -0.1549  0.1934 -0.0296
22428W        W38689  15.505   5.998   4.159 -0.1073  0.2399 -0.0080
22429W        W38690  12.115  12.964  13.310  0.0542  0.0834  0.3411
22430W        W38691   3.567   3.932   3.358 -0.2718  0.0298 -0.1126
22431W        W38692   9.125  14.709   4.487  0.0863  0.0881  0.5082
22432W        W38693   2.113  11.569   1.550 -0.0353 -0.2356  0.1716
22433W        W38694   3.938   8.526   4.713  0.0230  0.0251 -0.1353
22434W        W38695  15.273   5.221   4.096 -0.0629  0.0234  0.3381
22435W        W38696  12.866  15.557   2.625 -0.1464 -0.2415  0.4105
22436W        W38697   7.350  16.394  15.795  0.3808 -0.4096 -0.0064
22437W        W38698  13.767   9.609   2.889  0.1561  0.2480 -0.0489
22438W        W38699   4.973   2.458   5.592  0.0431  0.0380  0.1330
22439W        W38700  13.380  12.294  16.867 -0.0007  0.1429  0.1088
22440W        W38701  11.232  15.516   4.058 -0.1959  0.2149 -0.1100
22441W        W38702  15.741   7.748  13.273 -0.2257 -0.2339 -0.1046
22442W        W38703  10.791  11.274  14.262  0.0259 -0.3901  0.0095
22443W        W38704   2.441  11.407  16.579  0.0514  0.3314 -0.0468
22444W        W38705   0.274  14.902  13.399 -0.0119  0.1672  0.0532
22445W        W38706   6.254  12.782  11.767 -0.2018  0.2060  0.0004
22446W        W38707   3.996  16.232  14.910 -0.1028 -0.2816 -0.1527
22447W        W38708   2.640   0.843   5.210  0.1451 -0.0411 -0.0328
22448W        W38709  13.859  11.041   0.950  0.1513 -0.0403  0.2684
22449W        W38710  11.151   2.765  11.222 -0.1289 -0.0147  0.0484
22450W        W38711  15.729  15.349  14.239  0.3185  0.1797 -0.0391
22451W        W38712   6.559  13.352   6.412 -0.0956 -0.0303 -0.2166
22452W        W38713   3.998   6.186   0.709  0.1662 -0.2383  0.4727
22453W        W38714  10.986   3.586  13.599 -0.0442 -0.0273  0.0146
22454W        W38715  12.669  14.319  15.369  0.0077 -0.3033  0.0106
22455W        W38716   9.905   2.661   0.746 -0.2480 -0.1156  0.2801
22456W        W38717  16.479  12.669   0.445 -0.0022 -0.4660 -0.1445
22457W        W38718   2.320  17.599   0.355 -0.2849 -0.1756  0.1602
22458W        W38719   4.566   2.242   0.413  0.1478  0.0039 -0.1224
22459W        W38720  17.838  13.503  16.243  0.0764 -0.0062  0.1519
22460W        W38721  10.421   5.920   3.806 -0.1715 -0.0386  0.0331
22461W        W38722   9.763   7.688   1.522 -0.2138 -0.0738 -0.2112
22462W        W38723   7.758   3.176   1.110  0.1563  0.0013 -0.0345
22463W        W38724   3.021  15.342   3.372  0.0898 -0.0199  0.3614
22464W        W38725   8.043  15.463   0.766 -0.2229 -0.0061  0.1025
22465W        W38726   4.605   9.348  14.126  0.2772 -0.1738  0.2140
22466W        W38727  13.064   9.898   6.009  0.2487 -0.1984  0.0140
22467W        W38728  10.647   3.899   3.343 -0.0095  0.0956 -0.1746
22468W        W38729   5.691  16.494  14.867  0.3267 -0.3123 -0.0024
22469W        W38730  10.108   9.538  13.794 -0.0879  0.2844 -0.0206
22470W        W38731   9.963   7.366   3.893  0.0067  0.1056 -0.1438
22471W        W38732   8.939   8.864  15.874 -0.0412  0.0566  0.1009
22472W        W38733   1.582   5.984   1.458  0.2562  0.0715  0.2254
22473W        W38734   9.907  17.314  13.097 -0.4885  0.0812 -0.3726
22474W        W38735   6.246   4.596  10.661  0.0313 -0.0333 -0.1852
22475W        W38736  15.158   2.490   0.376 -0.0253 -0.0774  0.0282
22476W        W38737   3.631   6.358  14.055  0.2361  0.2154  0.0870
22477W        W38738   9.630  12.086   0.650  0.1590  0.1098 -0.2008
22478W        W38739  13.724   5.744   3.877 -0.2405 -0.0072 -0.1662
22479W        W38740   3.919  16.991  16.435 -0.3299 -0.1755  0.1579
22480W        W38741  14.311   3.229  12.106  0.0700  0.5535 -0.0548
22481W        W38742   1.172   0.168  16.294  0.1906 -0.0481 -0.3333
22482W        W38743  11.753  17.227   5.408 -0.2245 -0.0583  0.1391
22483W        W38744   7.973   0.656   5.632 -0.0987  0.1089  0.2335
22484W        W38745   0.050   4.916  16.815  0.0290 -0.2087 -0.2948
22485W        W38746   7.043  14.474  12.669  0.0636  0.1661  0.2154
22486W        W38747  17.312  13.485   3.639 -0.2978  0.5406  0.0779
22487W        W38748  11.933   5.892   1.159  0.0993  0.2912  0.0886
22488W        W38749   1.290  13.579  14.695 -0.0812  0.1653 -0.2229
22489W        W38750  11.299  17.573  16.889 -0.3051 -0.0212  0.2030
22490W        W38751   4.757  11.262   0.713  0.3016 -0.3898 -0.0100
22491W        W38752  16.391   5.348  14.078  0.4299 -0.1113  0.0503
22492W        W38753   9.745  10.054  11.623 -0.0592 -0.0269 -0.0746
22493W        W38754   5.674  13.881   2.900  0.0173  0.1005 -0.0761
22494W        W38755   4.835   0.927  11.697  0.1516 -0.0668 -0.0582
22495W        W38756  10.253  17.009   3.275 -0.1607  0.2651 -0.0535
22496W        W38757   3.951   2.819   3.909  0.0017 -0.1067  0.1079
22497W        W38758   2.007  12.242   3.425 -0.2958  0.1308 -0.0170
22498W        W38759   4.594  14.815   0.941  0.1966 -0.0889  0.1986
22499W        W38760   4.914   5.815  13.192 -0.0123 -0.1563 -0.0591
22500W        W38761   5.422   6.684   4.708  0.0283  0.4745 -0.2411
22501W        W38762  14.633  15.128  15.723  0.0980 -0.2834 -0.0008
22502W        W38763   3.992   4.426   1.246 -0.2006  0.2483 -0.0494
22503W        W38764  11.885   9.579  15.781  0.0021  0.1773 -0.1859
22504W        W38765   8.934   2.565   3.380  0.0509 -0.0601  0.2673
22505W        W38766   4.094  14.769  14.326 -0.1336  0.0137  0.1145
22506W        W38767   8.201  13.000  10.671  0.2282 -0.1756  0.2580
22507W        W38768   5.278  14.959  14.416 -0.0544 -0.1151 -0.0803
22508W        W38769   3.955   4.339  16.642 -0.4384  0.2995 -0.1872
22509W        W38770   6.371  14.972  15.534  0.0379 -0.1345  0.0665
22510W        W38771   3.998   2.360  13.184 -0.2101 -0.2170 -0.1258
22511W        W38772   9.084   8.785   2.271  0.0999 -0.0919  0.1891
22512W        W38773  16.697   8.756  12.715 -0.0596  0.0284 -0.1328
22513W        W38774   7.463   2.581  16.882  0.0558  0.0415  0.2512
22514W        W38775  13.927  10.640  12.798 -0.1746 -0.3204  0.1170
22515W        W38776  12.503   7.331  11.438  0.1654 -0.0210  0.2220
22516W        W38777  15.990  17.740  14.838 -0.2875  0.0885 -0.0060
22517W        W38778  13.440  12.020  15.210  0.2051  0.2128 -0.0519
22518W        W38779  13.742   2.822   0.403  0.1115 -0.1448  0.1510
22519W        W38780   3.235   9.569   5.744  0.0094  0.2621 -0.1190
22520W        W38781   5.309  10.928   0.549  0.5064  0.5533 -0.2906
22521W        W38782   6.200  16.543   2.927 -0.1718 -0.1340  0.1348
22522W        W38783  16.564  14.554   1.644  0.1655 -0.0181 -0.0879
22523W        W38784   0.493   9.493  13.642  0.1942  0.2031 -0.3749
22524W        W38785   6.315   6.321   4.855 -0.0086 -0.0505  0.2945
22525W        W38786   2.264   7.238   5.645 -0.1093  0.0197 -0.2121
22526W        W38787   2.851   2.195   5.215 -0.2600  0.0512  0.0918
22527W        W38788   7.693  13.260   6.406  0.3713  0.0545  0.1792
22528W        W38789  15.523   3.680  14.988 -0.1497 -0.2501 -0.0705
22529W        W38790  17.421  17.578   5.421  0.3434 -0.2036  0.1013
22530W        W38791  17.607  10.643   4.259  0.0213 -0.0934 -0.0913
22531W        W38792  17.702   7.279  13.681  0.0615  0.1194 -0.1711
22532W        W38793  11.072   9.983   4.951 -0.0186  0.1248 -0.0795
22533W        W38794   5.708   9.151   6.003  0.0898  0.1001 -0.1888
22534W        W38795   2.929  14.348   1.419 -0.1267 -0.1718 -0.1493
22535W        W38796   4.491   5.237   1.940  0.0991  0.2423  0.0401
22536W        W38797  10.234   7.509   1.436 -0.0708  0.2870  0.2452
22537W        W38798  15.874   7.926  14.261 -0.0643 -0.1539  0.1281
22538W        W38799   5.996  11.212   4.353 -0.2148 -0.3775 -0.2198
22539W        W38800  14.548  10.054  11.721  0.2181 -0.2152 -0.0532
22540W        W38801   2.625   0.523   2.157 -0.0258  0.2311  0.0639
22541W        W38802   2.611   1.264   4.880 -0.1737  0.1397 -0.0417
22542W        W38803   1.700   0.722   4.714  0.2412 -0.0097  0.2640
22543W        W38804   5.861  13.217   4.761  0.1056  0.0017 -0.0541
22544W        W38805   6.888  15.775   1.008  0.0731  0.0956 -0.3166
22545W        W38806  12.737   9.733  11.139 -0.2130 -0.0255  0.2677
22546W        W38807  12.275  10.516   1.071 -0.0444 -0.2678  0.0407
22547W        W38808  15.570   9.729   4.753 -0.1769 -0.1049  0.2670
22548W        W38809  11.720   1.626  13.317  0.0610  0.2627 -0.0927
22549W        W38810  15.587  16.464  15.375 -0.0675  0.1942  0.1739
22550W        W38811   8.847   0.331  12.964  0.0642  0.0405 -0.3786
22551W        W38812  11.979   3.298  14.405  0.0983 -0.1855 -0.0914
22552W        W38813  14.983  13.960  12.615  0.0446 -0.1492  0.2353
22553W        W38814   4.529   4.795   3.010 -0.0795  0.0670  0.2216
22554W        W38815  13.841  10.557   4.120 -0.2442  0.0342  0.1041
22555W        W38816  10.558  16.715   4.333 -0.1464  0.2049  0.4176
22556W        W38817  16.327   8.114   1.941  0.0464  0.2021  0.2437
22557W        W38818  14.343  17.052  13.051  0.1430 -0.1435  0.1716
22558W        W38819  15.193  10.245  12.115  0.3890  0.1365  0.1762
22559W        W38820   5.141   9.480  11.758  0.1754  0.1068  0.0135
22560W        W38821   6.796  14.157  16.533 -0.0736  0.1538  0.1646
22561W        W38822   0.669   6.757  15.866 -0.0574  0.4198  0.1254
22562W        W38823  11.481  12.450  15.219 -0.2374  0.0440  0.1672
22563W        W38824  16.030   8.880   6.013  0.3526  0.2018 -0.3446
22564W        W38825   8.818   0.789   1.790 -0.2584  0.1851 -0.3048
22565W        W38826   9.945   5.701   5.122  0.0778 -0.3959 -0.0975
22566W        W38827  10.843   3.653   6.159 -0.0953  0.0589  0.0145
22567W        W38828   1.322  15.119   1.193  0.3665 -0.1472  0.1184
22568W        W38829  14.961   6.855  15.856 -0.1925 -0.2149 -0.0278
22569W        W38830  15.741   1.640  15.982  0.2629 -0.1506  0.2903
22570W        W38831   4.712  15.977   0.180 -0.2386  0.0219 -0.1871
22571W        W38832   8.695  13.090  16.001 -0.0787  0.1503 -0.0017
22572W        W38833  12.970  14.511  16.353 -0.2351 -0.0832  0.4425
22573W        W38834   1.833   8.766   0.203 -0.0136  0.4435  0.1982
22574W        W38835  10.292   3.003  14.970  0.2456  0.1289  0.0917
22575W        W38836  11.600  14.852   6.223 -0.0910 -0.1456  0.2352
22576W        W38837   0.569   1.345   1.262 -0.2360  0.1966  0.2334
22577W        W38838   8.066   3.883   5.464  0.2767  0.1373 -0.2907
22578W        W38839   9.381   1.813   2.149 -0.0100  0.0535 -0.0249
22579W        W38840  10.276   3.377  12.702 -0.2587 -0.2147 -0.0198
22580W        W38841  10.868   9.268   2.048 -0.2853  0.2833  0.0451
22581W        W38842   4.530   3.864  13.506  0.2434 -0.0173 -0.1022
22582W        W38843   9.135   0.456   1.958 -0.1872  0.4125 -0.0910
22583W        W38844   2.137   3.719   3.841 -0.2672 -0.0192  0.0500
22584W        W38845  17.684   9.640  12.978  0.0453  0.0657  0.0116
22585W        W38846  12.847  11.989   5.509  0.0743 -0.0846  0.1253
22586W        W38847   1.921   1.313   3.006  0.1112 -0.1383  0.1503
22587W        W38848   0.446  15.375  12.019  0.0836  0.2699  0.2981
22588W        W38849  13.634  13.995  15.291  0.0309 -0.0411  0.1023
22589W        W38850  13.887   8.537  14.113 -0.1508 -0.0351  0.2527
22590W        W38851   4.696   5.494  15.519 -0.0232  0.2687 -0.0182
22591W        W38852   3.936  17.234  16.944 -0.2274  0.1213 -0.1288
22592W        W38853   3.180   9.362  16.324 -0.3565  0.1084 -0.2036
22593W        W38854  15.090  11.691  13.907 -0.1126  0.1866  0.0741
22594W        W38855   7.013  12.466   4.600  0.3040 -0.0090 -0.1605
22595W        W38856   9.243   0.028   0.638 -0.2328  0.1923  0.0694
22596W        W38857  11.029   4.437  16.121  0.1900 -0.1391 -0.0905
22597W        W38858   0.352   1.992  12.585 -0.2170 -0.1688  0.0291
22598W        W38859  12.474   7.125   1.348 -0.3420  0.0782  0.1931
22599W        W38860   6.650   0.275   4.450 -0.1888  0.0314  0.3277
22600W        W38861  15.655   5.477   0.025 -0.0598 -0.0931 -0.2303
22601W        W38862   6.404   5.718   0.390 -0.0694  0.1528  0.0435
22602W        W38863  17.383   4.681   2.627  0.1042 -0.0105 -0.1516
22603W        W38864  15.504   6.735   2.032 -0.1607  0.0473 -0.0172
22604W        W38865   3.882   4.896   3.221  0.4833  0.0342  0.1049
22605W        W38866   8.678  12.916  16.731  0.3061 -0.2501 -0.0505
22606W        W38867   1.249   5.522   4.058 -0.0489  0.0791  0.0229
22607W        W38868   4.698   3.071   2.147 -0.0974  0.0100 -0.1801
22608W        W38869   2.819  11.130  14.947 -0.0287 -0.0342  0.0958
22609W        W38870  10.022   6.837  15.051 -0.2162  0.0884  0.1283
22610W        W38871  12.056   6.958  11.582  0.1779  0.2523 -0.0147
22611W        W38872   9.935   7.741   2.360  0.0941  0.0399 -0.0822
22612W        W38873  13.727  10.759   5.034  0.2992  0.1687  0.1244
22613W        W38874   8.815   2.931   5.640 -0.0347  0.1634  0.1192
22614W        W38875  12.591   9.501   4.340  0.2820  0.5184 -0.0957
22615W        W38876   6.164   4.336  14.729 -0.0223 -0.1807  0.0925
22616W        W38877   9.182  13.300   0.317 -0.1096 -0.3019  0.0194
22617W        W38878   1.096   8.645  11.946  0.2004  0.0045 -0.1867
22618W        W38879  13.257   4.451   2.977 -0.1016  0.0029 -0.0756
22619W        W38880  14.546  12.890  16.713  0.0022 -0.2189  0.0436
22620W        W38881   8.695   0.230   3.656  0.0640  0.1442  0.0128
22621W        W38882  14.068  14.615   6.723  0.1280  0.0580  0.0326
22622W        W38883  16.887   8.069   2.220  0.0117  0.0575  0.2230
22623W        W38884  16.133   0.374  11.862 -0.1539  0.0539 -0.3378
22624W        W38885   3.049  15.717   0.781  0.1635  0.1615  0.1581
22625W        W38886  11.325   7.765  16.734 -0.0958  0.1081 -0.0613
22626W        W38887  17.476   4.473  16.120  0.1943  0.1659  0.0413
22627W        W38888   3.261  10.110   2.824  0.0446 -0.0740  0.2844
22628W        W38889  11.100   8.247  16.642 -0.1790  0.0923  0.0200
22629W        W38890  13.840   3.724   4.333  0.0144 -0.0813  0.0472
22630W        W38891  12.030  15.562  15.812 -0.2392 -0.0863  0.2120
22631W        W38892  13.236   1.708  13.133 -0.1575 -0.0338  0.1089
22632W        W38893  16.209  12.453  15.294 -0.0803  0.2176 -0.0711
22633W        W38894  11.592   0.946   4.736 -0.0797 -0.3392  0.1347
22634W        W38895   3.561  17.823  11.905  0.1044  0.1803  0.0130
22635W        W38896   0.524  17.081  12.576  0.0362 -0.0933 -0.2895
22636W        W38897  15.061   8.855  16.855  0.0722  0.0163 -0.0029
22637W        W38898  11.321  10.317   2.316  0.1360 -0.3601  0.0944
22638W        W38899   2.620  17.047   2.777  0.3976  0.0115 -0.1598
22639W        W38900   8.572   4.564   5.001  0.2575 -0.0931 -0.3656
22640W        W38901  13.463   4.124   2.567  0.2477 -0.2445 -0.0089
22641W        W38902   9.500   4.311  13.864  0.2014 -0.0436  0.0763
22642W        W38903  10.360   6.630  15.362  0.4512 -0.2029  0.2082
22643W        W38904   0.222  10.411   5.818  0.1759  0.0696 -0.0190
22644W        W38905   9.556  11.908  13.474  0.1195 -0.0207 -0.1981
22645W        W38906   9.521   3.942  14.273 -0.1580 -0.1053  0.0749
22646W        W38907  10.244   9.844   5.169  0.0638  0.3341  0.1621
22647W        W38908   7.343  11.460  12.882 -0.2944 -0.2077  0.0441
22648W        W38909   7.851   9.475  13.385  0.0084  0.0558 -0.0622
22649W        W38910   2.814  15.300   4.187 -0.2528 -0.0948  0.0439
22650W        W38911   9.931  14.866  15.171  0.0371 -0.1509  0.0275
22651W        W38912  14.944   6.650  14.495 -0.2758 -0.0246 -0.0766
22652W        W38913   8.089   8.636   1.430 -0.1988 -0.0856  0.0110
22653W        W38914   0.287  15.395   1.452  0.1048 -0.0087  0.1252
22654W        W38915   9.700   0.337   6.205 -0.3608  0.2178 -0.0754
22655W        W38916  15.129  16.422   0.743  0.2450  0.1663 -0.0205
22656W        W38917  11.024  10.488  13.738 -0.1223 -0.2403  0.0836
22657W        W38918  17.121   4.751   2.060  0.2237 -0.2064  0.0156
22658W        W38919   6.171   1.065  16.464 -0.1989 -0.1548 -0.3275
22659W        W38920   5.568   6.434   1.963  0.0694  0.0151 -0.0907
22660W        W38921   8.845   3.115  14.431  0.0216  0.0711 -0.0681
22661W        W38922   8.659   6.319  14.652  0.4411  0.1998 -0.0513
22662W        W38923  11.913   9.052   4.510  0.0067 -0.2951 -0.1352
22663W        W38924   0.922  17.586   5.976  0.2768  0.0009 -0.0749
22664W        W38925   6.520   5.506  12.290 -0.1035 -0.0556 -0.1909
22665W        W38926   9.095   6.201  15.958 -0.1552 -0.0690 -0.1155
22666W        W38927   1.611   5.349   2.017  0.4910 -0.0897  0.0315
22667W        W38928  16.799   5.530  14.305  0.5177  0.2030  0.1413
22668W        W38929  13.331  13.658  12.475  0.1840  0.2860 -0.0359
22669W        W38930  16.936  16.896  15.134  0.2227  0.3523 -0.1770
22670W        W38931   6.306  13.532   2.310  0.2084  0.3070  0.0808
22671W        W38932   3.226  12.634   4.420  0.1494  0.3024 -0.4060
22672W        W38933  10.897   3.727   5.098  0.0446  0.1923  0.2682
22673W        W38934  10.984  16.438   0.527 -0.1985  0.1361  0.1161
22674W        W38935  15.739  12.166  16.468  0.0917 -0.0861  0.2939
22675W        W38936   1.913   1.734   4.471 -0.1470 -0.0728  0.1481
22676W        W38937  11.627  17.105  16.657  0.0942 -0.1101  0.0245
22677W        W38938   7.907   9.912  13.081  0.2223 -0.0468 -0.3241
22678W        W38939   6.899   0.584  13.945 -0.0470  0.1688  0.1966
22679W        W38940   7.540   7.419   1.523  0.0155  0.1974  0.2553
22680W        W38941   9.545  12.625   0.136  0.1614  0.1258  0.0769
22681W        W38942  11.673  14.387  16.453 -0.0379  0.2498 -0.1467
22682W        W38943  17.009   7.297  16.108  0.1184 -0.3042  0.0746
22683W        W38944   2.085   8.291  16.409 -0.2484 -0.0299 -0.1428
22684W        W38945  12.907  14.044   3.646 -0.2802  0.1560  0.0735
22685W        W38946   7.459   8.174   3.686  0.1284  0.1364 -0.0116
22686W        W38947   6.732   0.886  14.904  0.1464 -0.0719  0.0760
22687W        W38948  12.193   9.324  12.437  0.0556 -0.2517  0.2136
22688W        W38949   3.319   4.277   2.345  0.2455 -0.0518  0.2277
22689W        W38950   4.574   7.448   5.735 -0.0121 -0.0108  0.0939
22690W        W38951   0.767  14.438  12.489 -0.0437 -0.4607 -0.0485
22691W        W38952   7.133   4.917   3.441 -0.1011  0.0192  0.0134
22692W        W38953   5.287   2.945   2.310 -0.0603 -0.1955 -0.1647
22693W        W38954   4.481  16.046  14.451 -0.1966 -0.1918  0.0036
22694W        W38955   2.474   1.928  16.176  0.0749 -0.2406 -0.2542
22695W        W38956  14.727  14.956   1.620 -0.1901 -0.0722 -0.0982
22696W        W38957  12.592   4.746  15.567  0.0918 -0.0242 -0.2298
22697W        W38958  11.834   8.400  16.480 -0.0090  0.1464  0.0719
22698W        W38959  14.239   6.936  11.998 -0.3437  0.1114 -0.0944
22699W        W38960   9.673  13.973  16.550  0.0107 -0.0042 -0.2860
22700W        W38961   2.783   7.521   2.874 -0.1572  0.0902 -0.2099
22701W        W38962  17.614  10.257  13.614  0.0458 -0.0576 -0.0986
22702W        W38963   9.164   3.980  15.525  0.1761  0.1700  0.1196
22703W        W38964  10.487   7.205  15.073 -0.1505 -0.1494  0.1501
22704W        W38965  11.852  11.912  16.341 -0.0060 -0.1158 -0.0439
22705W        W38966   6.385   7.474   6.242  0.0774 -0.2098  0.1681
22706W        W38967   9.882   7.448  15.280 -0.1363  0.3981  0.1442
22707W        W38968   8.494   1.333  14.014  0.0623 -0.1309 -0.0272
22708W        W38969   7.217   6.154  16.429  0.1165  0.2138 -0.1386
22709W        W38970  13.639   2.085  12.888  0.0387 -0.0492 -0.2244
22710W        W38971  13.947   5.696  14.222 -0.1989  0.1547  0.0868
22711W        W38972  14.379  15.953  12.486  0.0357 -0.0415  0.0410
22712W        W38973   0.871  13.895   3.316  0.0312  0.2488 -0.2530
22713W        W38974  10.384   2.234  12.532  0.2673 -0.0688  0.1224
22714W        W38975  16.563   3.006   5.203 -0.2063  0.0884 -0.3853
22715W        W38976  16.751  11.385  12.448 -0.6009  0.1518 -0.1156
22716W        W38977   3.691   4.843  16.413 -0.0809  0.0150 -0.0357
22717W        W38978  12.046  14.708  13.032  0.0065  0.1104  0.3728
22718W        W38979   2.664  13.122  12.412 -0.3189  0.0325  0.1478
22719W        W38980   3.330   8.058   3.606 -0.0729  0.0901 -0.0020
22720W        W38981  13.050  12.823   5.214  0.1932  0.0708  0.1488
22721W        W38982   9.572  17.560   5.398  0.0158 -0.0961 -0.0068
22722W        W38983   8.889   2.049  13.589 -0.1489 -0.3074  0.0381
22723W        W38984   2.683   3.222  13.576 -0.2004  0.1478 -0.5002
22724W        W38985   4.779   0.900   0.200 -0.0402 -0.1002  0.3242
22725W        W38986   3.099   8.547  13.031  0.1810 -0.0179  0.0201
22726W        W38987   8.674   9.005   5.395 -0.0945  0.0051  0.1267
22727W        W38988   9.160  12.757   1.911  0.1919 -0.0412  0.0205
22728W        W38989   4.258  10.674   1.660  0.0608 -0.2594  0.1492
22729W        W38990  16.541  10.127  16.544 -0.1181 -0.1368  0.2349
22730W        W38991   7.138  11.242   6.384 -0.0712 -0.1167 -0.0380
22731W        W38992  13.216   1.036   4.855  0.1043 -0.0153  0.1996
22732W        W38993   6.123   3.333   2.665 -0.1652  0.0640 -0.0629
22733W        W38994   9.965   3.346  14.816 -0.0620  0.0569 -0.2500
22734W        W38995  12.554   0.309   2.326  0.0680 -0.1123  0.3246
22735W        W38996  16.420   4.240  15.276  0.0416 -0.1414  0.1310
22736W        W38997   1.483   0.043   4.236  0.2817 -0.1984 -0.1459
22737W        W38998   7.805   6.835   4.099 -0.0863  0.0411 -0.1105
22738W        W38999  11.202   2.459  16.064 -0.0537 -0.0618 -0.2749
22739W        W39000   6.901  14.680   3.574  0.0425  0.0323 -0.0141
22740W        W39001  14.443   2.766   1.290 -0.1294  0.1000 -0.0874
22741W        W39002   1.512   4.411   4.162 -0.2811 -0.2419 -0.0182
22742W        W39003   1.978  17.140  16.232 -0.1258  0.1118  0.6132
22743W        W39004  16.747  11.705  14.917 -0.1122  0.1049  0.1605
22744W        W39005   0.849   1.349  14.702  0.3395 -0.0279 -0.1108
22745W        W39006  15.561   5.297  15.496  0.2093  0.1007 -0.1951
22746W        W39007   0.525   8.815   2.597 -0.1820 -0.0339  0.2166
22747W        W39008  16.971   9.855  16.658  0.0604 -0.0649  0.1980
22748W        W39009  15.806   1.027  13.923 -0.1489  0.1755  0.0158
22749W        W39010   6.943   9.164   0.404  0.0584 -0.2831 -0.4053
22750W        W39011  13.044   1.589  11.753 -0.2466 -0.3072 -0.1829
22751W        W39012   0.020  15.079  14.754 -0.0745  0.2881 -0.1540
22752W        W39013   5.378   7.998   1.207 -0.0376 -0.0422  0.0327
22753W        W39014  11.042  11.344  12.619 -0.3012  0.1657  0.4002
22754W        W39015   6.026   3.347  13.689  0.1389  0.1048  0.0947
22755W        W39016   3.550  13.599   2.287 -0.0761 -0.1550 -0.2724
22756W        W39017  14.107   0.692   0.846  0.3009 -0.0153  0.0930
22757W        W39018   3.336   4.484  11.764  0.1302 -0.1812 -0.2628
22758W        W39019  14.281  10.366   3.698  0.1187 -0.1303 -0.2132
22759W        W39020  17.070   6.582  12.358 -0.0073  0.1077  0.4765
22760W        W39021   8.517   9.197   3.554 -0.0952 -0.1622 -0.2304
22761W        W39022  12.775  15.793   1.629  0.2782  0.1705  0.1967
22762W        W39023   9.618   8.189  13.453 -0.4347 -0.4184  0.4591
22763W        W39024  11.885  11.637  12.292  0.0140  0.1055 -0.0288
22764W        W39025   1.793  15.672  16.221 -0.2105 -0.2363 -0.0717
22765W        W39026   6.375   6.629   4.427  0.1923  0.2096 -0.2388
22766W        W39027   6.745   5.173  12.755  0.0700  0.1975 -0.0289
22767W        W39028   0.777   8.404   1.293  0.2904  0.1220  0.0164
22768W        W39029   5.667  13.708   1.087  0.0418 -0.2845 -0.1651
22769W        W39030  13.804   9.076  13.682 -0.3239  0.0923  0.1906
22770W        W39031   9.796  16.788  12.780 -0.1568 -0.1331 -0.0710
22771W        W39032  10.705   9.365  11.606 -0.3611 -0.1462 -0.0118
22772W        W39033  11.751  12.355   1.315  0.1215  0.1026 -0.3273
22773W        W39034  14.038  16.602  15.023 -0.0044 -0.2010  0.0991
22774W        W39035   8.903   0.764   4.844 -0.1270 -0.2728 -0.2996
22775W        W39036  10.961  16.010  11.803  0.2105 -0.2505  0.1573
22776W        W39037   3.733   2.957   5.993  0.0751  0.0553  0.0110
22777W        W39038   6.902   7.291  16.611 -0.2791  0.1687 -0.0196
22778W        W39039   5.218   4.584  15.732 -0.0314  0.0539 -0.1051
22779W        W39040  14.899   7.410  14.186  0.1906  0.2051 -0.1790
22780W        W39041   9.951   0.244  11.620 -0.0763  0.0482  0.1796
22781W        W39042   7.323  13.230   5.616 -0.0575  0.1028 -0.0237
22782W        W39043   9.352   3.493  16.330 -0.0249 -0.0609  0.3216
22783W        W39044  12.859  14.647   1.837  0.0367  0.0224 -0.3352
22784W        W39045  15.710  10.014  15.158  0.0021 -0.2404  0.0764
22785W        W39046  14.538   8.317  11.968  0.3169  0.0047 -0.2591
22786W        W39047   8.638  11.377  16.281  0.0411  0.0938  0.1873
22787W        W39048   8.879  12.637   2.674  0.1500 -0.3748  0.3540
22788W        W39049   3.836   1.005  12.547 -0.0178  0.0027 -0.0784
22789W        W39050  13.450  14.561  15.125  0.2185  0.1693  0.2998
22790W        W39051   8.983  16.469   5.024  0.0347  0.1326  0.2223
22791W        W39052   0.951  11.800   3.500  0.1148 -0.0301  0.3030
22792W        W39053  14.793   9.297  16.914  0.0920  0.0356 -0.2290
22793W        W39054   7.898   6.235  16.471  0.0391 -0.1310  0.1449
22794W        W39055   0.338   1.924  16.542  0.2321 -0.0647  0.0642
22795W        W39056  14.740  16.746   5.606  0.2978 -0.0907  0.0429
22796W        W39057  10.173  10.025  16.376  0.1979 -0.2595  0.0108
22797W        W39058  16.846   7.778   5.703  0.0055 -0.0516 -0.0277
22798W        W39059   1.337  15.260   5.509 -0.1608  0.3603  0.0686
22799W        W39060   2.341   9.679   1.713 -0.2005 -0.1229 -0.1049
22800W        W39061  14.835   5.111  12.301 -0.0154  0.1692  0.0041
22801W        W39062  16.452   3.317   5.716  0.0596  0.0219 -0.0450
22802W        W39063   1.780  10.574   5.221 -0.0860  0.1677  0.1880
22803W        W39064   3.745  12.633   0.033 -0.1696  0.0601  0.1540
22804W        W39065   3.512   5.496   5.243 -0.0381 -0.2798 -0.0292
22805W        W39066  15.153  17.274   5.037  0.0864  0.1554 -0.1877
22806W        W39067   8.654  12.570  15.944  0.2205 -0.1962  0.1590
22807W        W39068   3.809  15.862  15.740 -0.0241 -0.1608 -0.2290
22808W        W39069  15.128   2.562  14.503 -0.3016 -0.0349 -0.0052
22809W        W39070   5.586   3.383   2.396 -0.0739 -0.2467  0.1803
22810W        W39071  10.748   6.752   3.759  0.0216 -0.4410 -0.1272
22811W        W39072  13.732  12.380  12.300 -0.2034  0.2039 -0.1004
22812W        W39073   5.983   3.400  16.106 -0.1044  0.1544  0.1455
22813W        W39074  16.529   6.680  13.689 -0.2051  0.3272  0.0157
22814W        W39075  10.040  17.233   4.799 -0.2246 -0.0475 -0.0053
22815W        W39076   7.872   6.171  14.382 -0.2078  0.2222  0.2495
22816W        W39077   4.288   7.642  13.582  0.0264  0.1480 -0.1528
22817W        W39078  11.749   2.207   2.117 -0.1835  0.1125 -0.1170
22818W        W39079   5.244  11.913  15.522  0.2406  0.1012  0.2433
22819W        W39080  16.088  13.479   2.203 -0.1027  0.2547 -0.0673
22820W        W39081  16.965   2.988  12.965 -0.2496  0.1116  0.1483
22821W        W39082   8.128  12.019   5.769 -0.0022  0.1697  0.0921
22822W        W39083   7.891   4.562   5.744 -0.3006  0.1105  0.2188
22823W        W39084  10.061   4.666  13.867 -0.0412  0.1397 -0.0033
22824W        W39085   5.616  12.129  14.058  0.2134 -0.0864  0.1647
22825W        W39086  11.482   5.733  14.833  0.0726 -0.0356 -0.0591
22826W        W39087   5.907   7.691   4.996  0.0371 -0.1504  0.0281
22827W        W39088  12.836  16.585   3.197 -0.3522  0.2552  0.0939
22828W        W39089   1.035   1.534   3.404 -0.1764  0.1051  0.1801
22829W        W39090   8.865   6.976   1.792  0.2494 -0.0784  0.0202
22830W        W39091   3.428  16.934   3.723 -0.1088  0.1313 -0.2549
22831W        W39092   3.954   4.475  16.119 -0.0726  0.0454 -0.3023
22832W        W39093   6.388  16.285   3.718  0.2577 -0.0636 -0.0223
22833W        W39094   0.309  16.160   2.594  0.0524  0.2431  0.3628
22834W        W39095  15.918   2.585  12.195  0.0649 -0.1752 -0.3017
22835W        W39096   2.511  17.109  13.452 -0.0457  0.1793 -0.2207
22836W        W39097  16.982  16.474   0.703  0.0823 -0.0111 -0.1904
22837W        W39098   2.724  15.349  11.953 -0.1516  0.0129 -0.1629
22838W        W39099   2.823  17.706  14.637 -0.0217 -0.0217 -0.3345
22839W        W39100   2.052   9.392  15.607  0.0507 -0.2418 -0.0573
22840W        W39101  13.973   6.393   5.336 -0.1438 -0.0648  0.0163
22841W        W39102  17.460   8.032  12.808  0.2131  0.3371  0.0358
22842W        W39103  11.475  16.486  16.282  0.0715 -0.2932 -0.0137
22843W        W39104  11.001   2.200   0.108  0.2395 -0.1383 -0.1557
22844W        W39105   5.677   4.315  13.395  0.0481  0.4627 -0.1199
22845W        W39106   2.955   4.071  13.964  0.0547 -0.2101  0.2505
22846W        W39107   7.735   6.357   5.554  0.1246  0.2342 -0.1361
22847W        W39108   2.693  12.325   6.232 -0.2973  0.0231  0.2049
22848W        W39109  11.442   3.582   4.395 -0.1333  0.0536  0.0523
22849W        W39110   7.814  12.764   0.290  0.1508  0.0977  0.0286
22850W        W39111  10.288   3.976   4.920  0.1221 -0.1991 -0.1096
22851W        W39112   5.393   9.796  13.021  0.2949  0.1722  0.1568
22852W        W39113  15.817   7.376  14.060 -0.0642 -0.1838 -0.1666
22853W        W39114  15.665   6.158  12.609  0.2947 -0.1776  0.1530
22854W        W39115  14.566   0.474  12.903 -0.1107  0.2903  0.0205
22855W        W39116   0.305  12.417   2.338 -0.1247 -0.0858  0.0714
22856W        W39117   8.451   9.332   1.080  0.1140  0.4574 -0.1190
22857W        W39118  12.925   8.000   0.317 -0.1032  0.1725 -0.0614
22858W        W39119  14.965   3.623   1.265  0.3915  0.1458  0.3499
22859W        W39120  14.486  10.241  16.411 -0.0559  0.0600  0.1940
22860W        W39121   8.328   7.715  12.306  0.0536  0.0118 -0.3724
22861W        W39122   6.804   2.536  15.891 -0.2830 -0.2427 -0.3981
22862W        W39123   8.472   2.782  14.500  0.1439 -0.0013 -0.0296
22863W        W39124  14.419   3.125  15.394  0.1744  0.1009  0.0171
22864W        W39125   9.904  12.586   1.623 -0.2118 -0.0166  0.2330
22865W        W39126   3.326  15.319  12.016  0.0191 -0.0967  0.0940
22866W        W39127  12.118  16.989  15.902 -0.2429 -0.1155 -0.0701
22867W        W39128  12.947  12.835  11.999 -0.1185  0.2945  0.2006
22868W        W39129   7.803  12.219   3.691  0.1216 -0.1714  0.2695
22869W        W39130   2.574   9.789   2.180 -0.1308 -0.3825  0.2080
22870W        W39131  12.832  14.629   5.434  0.0087 -0.0176 -0.1377
22871W        W39132   0.930  10.765  15.741 -0.0268 -0.1696 -0.1693
22872W        W39133  11.846   4.700   3.157 -0.0566  0.0201 -0.2413
22873W        W39134   3.102   1.412   4.863 -0.2662 -0.1973  0.0483
22874W        W39135   8.666   6.641   4.867 -0.0194  0.0738  0.0954
22875W        W39136   0.854   2.873  13.175 -0.1816 -0.2648  0.2033
22876W        W39137   4.081   6.001  15.787 -0.2271  0.1878 -0.1326
22877W        W39138   4.437  11.429   0.366  0.0362 -0.1550  0.3696
22878W        W39139   4.163   1.672   5.351  0.1186 -0.1003 -0.0261
22879W        W39140   6.839   3.140   0.066  0.0001 -0.0783 -0.1598
22880W        W39141  14.107   2.394   3.871 -0.1202 -0.0170 -0.3839
22881W        W39142  15.591  15.573  12.742  0.0384 -0.1698 -0.2280
22882W        W39143   0.140   6.194  14.373 -0.4725  0.1580 -0.2618
22883W        W39144  16.864  11.324  15.296  0.0744  0.0879  0.3746
22884W        W39145  12.100  12.111   2.594  0.1080 -0.1716 -0.1022
22885W        W39146   0.979  14.164   3.962  0.2107  0.2874 -0.2908
22886W        W39147   9.914  17.507  14.603  0.0140  0.2251  0.1481
22887W        W39148  10.792  14.426   0.514  0.0280  0.0253 -0.1936
22888W        W39149   6.122   7.866  14.388  0.1064 -0.2236  0.1475
22889W        W39150   1.220   9.859   4.199  0.0731  0.0866  0.0827
22890W        W39151  12.769  12.355  14.792 -0.0049 -0.0759 -0.3565
22891W        W39152   0.838   2.704  12.148 -0.1280 -0.0833 -0.1830
22892W        W39153   7.247  16.168   0.170 -0.0615  0.0553  0.1242
22893W        W39154   7.957   0.157  15.252  0.0348  0.2637 -0.2065
22894W        W39155   3.938   1.860  13.168 -0.1161  0.1543 -0.0050
22895W        W39156  13.205  13.825   1.666  0.3092 -0.0520  0.0301
22896W        W39157  11.772   1.817   4.270 -0.0831 -0.2084  0.0720
22897W        W39158   4.622   1.251  12.023 -0.3511  0.2371 -0.3039
22898W        W39159  11.208  15.559  11.901 -0.0417 -0.0441  0.4451
22899W        W39160   0.051   2.768  12.788  0.0435  0.1133  0.0478
22900W        W39161  15.556   5.658   5.953 -0.0877  0.1923  0.1875
22901W        W39162  15.418  10.938  13.148  0.0450  0.0946  0.0628
22902W        W39163   7.602  12.782   1.103  0.1259 -0.0234  0.1636
22903W        W39164  16.574   6.465  13.247 -0.0764  0.0495  0.0507
22904W        W39165  10.096  17.079   6.294  0.4342  0.1998 -0.0563
22905W        W39166   8.162   6.609   4.709  0.2769  0.0380  0.0517
22906W        W39167   2.735   9.448   0.710  0.0418  0.0262  0.1424
22907W        W39168  15.070   5.961   2.316 -0.2409 -0.0415 -0.1665
22908W        W39169   5.022   7.073   5.368 -0.2177  0.2766  0.0592
22909W        W39170   5.018   6.430   1.363  0.1704  0.3161  0.3009
22910W        W39171  17.095  11.836  15.747 -0.2383  0.1271  0.0888
22911W        W39172  17.594   5.017   5.892 -0.0396  0.0241  0.3582
22912W        W39173   9.744  16.776  15.146 -0.1685  0.0225 -0.2997
22913W        W39174   9.015  17.833  12.644  0.0304 -0.2964  0.2014
22914W        W39175   8.922   9.214  14.742 -0.1253  0.0625  0.3903
22915W        W39176   5.905   0.789   1.811 -0.1055  0.2949  0.4008
22916W        W39177   3.168  11.525   1.964 -0.1192 -0.1442  0.3087
22917W        W39178   0.339  15.982  16.249 -0.0195  0.0974  0.0958
22918W        W39179  17.776  16.481   3.033  0.0503  0.0977 -0.0688
22919W        W39180   1.500   3.120   4.331 -0.2407 -0.2644  0.4039
22920W        W39181   4.317   1.426   2.247 -0.3886 -0.1482  0.0901
22921W        W39182   2.663  13.876   1.629  0.1370  0.2159 -0.3374
22922W        W39183  14.189   9.620  15.733  0.0035  0.1841  0.0830
22923W        W39184   6.204   9.893   1.740 -0.3087 -0.5800  0.1558
22924W        W39185  16.078   5.470   5.848  0.0601  0.2767  0.0775
22925W        W39186  12.173   6.004   0.471 -0.0295 -0.2222 -0.0063
22926W        W39187  10.310  12.893  15.868  0.1836 -0.3097 -0.0640
22927W        W39188  16.322   4.080   4.580 -0.1515 -0.1552  0.1483
22928W        W39189  13.779  12.386   4.481 -0.2123  0.4496 -0.1466
22929W        W39190   3.574  10.736  12.168 -0.1992 -0.0651 -0.2972
22930W        W39191   4.492   8.680   2.763  0.0953  0.0486 -0.2294
22931W        W39192   8.256  13.590   5.817  0.0113  0.2230 -0.3080
22932W        W39193  17.134   9.282   1.566 -0.0614 -0.1338 -0.1238
22933W        W39194   1.919   5.518   3.963  0.1009 -0.0314  0.0046
22934W        W39195   1.564  10.469   4.609  0.0621  0.1209  0.1560
22935W        W39196  13.241  15.551  12.110  0.3605  0.1662 -0.0537
22936W        W39197  11.389  17.716  15.701 -0.1171 -0.1391 -0.1034
22937W        W39198   7.470   6.496  14.531  0.2524 -0.3458  0.0288
22938W        W39199   4.367  10.658  16.639  0.1851  0.1041  0.3376
22939W        W39200   8.873   4.722  15.564  0.1985 -0.1511 -0.1710
22940W        W39201  17.414  11.478   4.556 -0.2439 -0.1594 -0.3019
22941W        W39202   3.712   7.190  15.294 -0.0433  0.1708 -0.2633
22942W        W39203   7.877  13.229   4.956 -0.0893  0.1966  0.1531
22943W        W39204   3.202  10.808   0.056 -0.0981  0.1337  0.0802
22944W        W39205   8.400  13.894   1.005  0.1976 -0.1644  0.0579
22945W        W39206  17.836   7.269  15.810 -0.2421 -0.0227 -0.0877
22946W        W39207   6.480   3.569   2.941 -0.3854 -0.1228 -0.1380
22947W        W39208  12.926  11.794  13.833  0.0308 -0.4694 -0.2778
22948W        W39209   8.920   5.858   1.881  0.3422  0.1361 -0.0364
22949W        W39210  11.155   8.934  16.284  0.0900 -0.1315 -0.1381
22950W        W39211  10.670   6.771  13.368 -0.0940 -0.1880 -0.0264
22951W        W39212   6.890  10.476   2.224  0.2585  0.2112 -0.1098
22952W        W39213   3.709  11.441  16.490  0.1550  0.1857  0.0081
22953W        W39214  14.288   2.353  13.860 -0.1562 -0.0133  0.0079
22954W        W39215   0.279   7.060   0.644  0.0362 -0.4280  0.3283
22955W        W39216   4.784   8.672   5.145  0.0056  0.2723  0.0852
22956W        W39217  17.654  15.872   0.452 -0.1924  0.1110  0.0679
22957W        W39218  10.661   5.795   1.525  0.0423 -0.1543  0.2641
22958W        W39219   4.149  16.747  15.595  0.2694  0.1664 -0.2184
22959W        W39220  15.591  13.022   4.288  0.1110  0.1382  0.1295
22960W        W39221  15.528   5.540   2.469 -0.1549 -0.1259  0.1735
22961W        W39222  12.340   2.886   6.436  0.0546 -0.0904  0.2974
22962W        W39223   1.822  16.718   5.000 -0.1257 -0.3543  0.0643
22963W        W39224   3.033   5.906   4.419 -0.1046  0.1258  0.2819
22964W        W39225   9.824   9.076   6.331 -0.0613 -0.0185  0.0209
22965W        W39226   0.215  11.643  14.830 -0.3352 -0.0787  0.1347
22966W        W39227  13.274   2.220  13.237 -0.2843 -0.0574  0.1988
22967W        W39228  10.269  17.457   2.142 -0.1779 -0.0769 -0.3178
22968W        W39229   6.613   6.956   0.935  0.2214  0.3848  0.0292
22969W        W39230  15.494   3.222   5.598 -0.1409  0.1509  0.0375
22970W        W39231   3.910  16.561  12.567 -0.0193 -0.0012  0.3965
22971W        W39232   8.807   2.226   1.094  0.0654 -0.2820  0.1579
22972W        W39233   6.830   6.662  13.647 -0.1891 -0.0035  0.1057
22973W        W39234   6.972   7.644   4.684 -0.0039 -0.0676  0.0768
22974W        W39235  17.777   1.698  12.081  0.1109 -0.1374 -0.0594
22975W        W39236   2.426   1.217   4.449 -0.3215 -0.1137  0.5104
22976W        W39237   4.929   4.768  12.565 -0.1056 -0.3842 -0.0454
22977W        W39238  12.509  10.627  14.550 -0.1231  0.0813 -0.1626
22978W        W39239  10.922   4.617   2.714 -0.1844  0.3259 -0.1530
22979W        W39240  11.388   0.231   6.498  0.1475 -0.3651 -0.5310
22980W        W39241  10.413   1.359   0.425  0.3056  0.0785  0.0038
22981W        W39242   3.645  11.279  15.284  0.1629  0.1580 -0.2730
22982W        W39243   8.198  13.057  13.576 -0.2272  0.0122  0.0516
22983W        W39244  17.806   9.399   5.113  0.0842  0.0931  0.4361
22984W        W39245   4.204   7.088   0.158  0.0524  0.1385 -0.2139
22985W        W39246   7.675  12.793  11.941  0.1485 -0.4161 -0.2089
22986W        W39247   6.837  13.970  16.075 -0.5680  0.1361  0.2065
22987W        W39248  17.156   2.799   3.928 -0.1248  0.2254  0.0518
22988W        W39249  17.331   5.358  16.120 -0.0293 -0.1425  0.2489
22989W        W39250  17.068  14.171  13.443 -0.0957 -0.0267 -0.1636
22990W        W39251   5.465  15.823  11.584  0.0677 -0.0987 -0.3567
22991W        W39252  15.547   9.986   5.573  0.0721 -0.1198 -0.2257
22992W        W39253  16.903   6.286   0.673 -0.4176 -0.0316 -0.1445
22993W        W39254   1.286   7.294   6.189  0.0733  0.1096 -0.1392
22994W        W39255   7.254   3.492  13.810 -0.0133 -0.1448 -0.0293
22995W        W39256   9.048  10.258  13.689  0.0960 -0.1246  0.3684
22996W        W39257  14.233   6.270  15.974 -0.0139  0.1514  0.3293
22997W        W39258   9.771  16.327   1.579  0.1010  0.1288  0.1007
22998W        W39259   0.919   8.672  12.837 -0.0576  0.0941 -0.0522
22999W        W39260   5.431   6.346   5.980 -0.0206 -0.0174 -0.3117
23000W        W39261   8.877   5.821   4.501 -0.0590 -0.1600  0.0025
23001W        W39262   5.343   5.109  11.886  0.2164  0.2413  0.0595
23002W        W39263   4.710  12.379  12.437 -0.0751 -0.0544 -0.2048
23003W        W39264  13.332   6.678  16.362  0.1985  0.1397 -0.2144
23004W        W39265   1.890  10.487   0.728 -0.2867 -0.0887 -0.1031
23005W        W39266  11.358   7.345   3.608  0.0848  0.2766  0.2504
23006W        W39267   8.072   4.670  12.495 -0.0013 -0.2497  0.1769
23007W        W39268   6.179   1.564   0.467  0.2277 -0.1449  0.2310
23008W        W39269  12.598  12.680  13.031  0.0700  0.4891  0.0447
23009W        W39270   5.865  13.495  13.495 -0.1733  0.2052  0.0243
23010W        W39271  14.328   4.361   0.219 -0.4961  0.0138 -0.1791
23011W        W39272  15.090  10.021   0.889  0.2227 -0.1128 -0.0081
23012W        W39273  17.798   2.808  14.823  0.1509 -0.0684  0.0213
23013W        W39274   8.307   4.131   3.767 -0.1820 -0.3639  0.0219
23014W        W39275   1.185   6.651  16.181  0.1495  0.0829  0.1520
23015W        W39276  13.993   9.106  16.063 -0.0737 -0.2196  0.0286
23016W        W39277   4.156  16.427  16.486 -0.0952 -0.0183  0.2274
23017W        W39278   0.577   6.194   1.005 -0.2007  0.1641  0.2341
23018W        W39279  12.189   7.477  16.193  0.6247 -0.0286  0.0417
23019W        W39280   2.872   4.243   0.477 -0.1945 -0.1201  0.4149
23020W        W39281   1.921  16.330   1.667 -0.2106  0.3227 -0.0098
23021W        W39282   9.267   8.139  10.903 -0.1860  0.1154 -0.1393
23022W        W39283  13.327  16.050   0.614 -0.2746 -0.2586  0.1663
23023W        W39284   9.844   7.883  15.580 -0.1369 -0.1553 -0.0190
23024W        W39285   6.425   8.605   6.199  0.3468  0.2729  0.1288
23025W        W39286   2.863  16.844   2.201  0.0332  0.1342  0.1193
23026W        W39287  10.335   9.740   2.201  0.2305  0.2262  0.0161
23027W        W39288   9.797   8.970   1.625  0.0004 -0.1671  0.4035
23028W        W39289   1.280  11.465   2.312 -0.0579 -0.0882 -0.1075
23029W        W39290   5.328   7.951  16.141  0.4269 -0.2274  0.0777
23030W        W39291   3.971  16.775   0.267  0.4453 -0.1619 -0.0380
23031W        W39292  17.828  16.354   3.559 -0.0496 -0.0368 -0.1645
23032W        W39293  13.665  14.660   6.401  0.1402  0.1795 -0.1813
23033W        W39294   1.848   1.169   2.099  0.4630 -0.0737 -0.1193
23034W        W39295  13.267  17.411  13.790  0.1268  0.0317 -0.1156
23035W        W39296  16.960   5.200  15.743  0.1056  0.2608 -0.2677
23036W        W39297  17.252   3.160  16.678 -0.1512 -0.0685  0.0203
23037W        W39298   3.253  14.608  16.322  0.1112  0.1099 -0.0153
23038W        W39299  10.112  15.646   4.478  0.0272  0.4401 -0.0210
23039W        W39300   0.543  12.448  13.237 -0.0047  0.1021  0.1968
23040W        W39301   8.450   7.014  15.305  0.0395  0.0319  0.1044
23041W        W39302  13.956   9.450   0.288 -0.0310 -0.3062 -0.1908
23042W        W39303  16.976   3.372  11.022 -0.2547 -0.0583 -0.0870
23043W        W39304   5.998  16.195   0.349  0.0555 -0.0747  0.1648
23044W        W39305  10.958   6.824  13.861  0.1886 -0.0357  0.1399
23045W        W39306   5.277   1.537   2.839 -0.0557  0.0435  0.1242
23046W        W39307  17.232  10.092   3.728 -0.2444 -0.0380  0.0604
23047W        W39308   9.468   6.865  16.911 -0.0101  0.1726  0.1160
23048W        W39309  13.679   1.053   4.604 -0.0378 -0.1081  0.1500
23049W        W39310  10.990  12.701   3.258 -0.1526  0.1190  0.0857
23050W        W39311   6.722   3.877   2.008 -0.0105  0.0900 -0.1019
23051W        W39312   7.796   3.002  15.915 -0.0709 -0.1430 -0.1623
23052W        W39313   5.478   9.447  15.486  0.1614  0.1678 -0.0526
23053W        W39314   5.110  12.320  15.852 -0.0797  0.2855  0.0544
23054W        W39315   4.174  17.292   3.589 -0.1965 -0.0202  0.2400
23055W        W39316   4.945  16.643   1.188  0.1618  0.0119 -0.0223
23056W        W39317  17.653  12.403  13.677  0.0703  0.2478 -0.2647
23057W        W39318  16.399  15.214  15.815  0.1954  0.4627  0.1772
23058W        W39319  10.376  13.388   4.163  0.1204 -0.0195  0.1409
23059W        W39320  10.252  14.092  12.517  0.1007  0.3348 -0.1307
23060W        W39321   3.471   7.751   4.016  0.2243 -0.1426  0.1548
23061W        W39322   4.536   8.426  14.132 -0.2646 -0.1451 -0.3099
23062W        W39323   9.125  10.753  14.200  0.2533  0.1891  0.1719
23063W        W39324  16.840  12.480   1.622 -0.0419  0.2828  0.0885
23064W        W39325   0.472  14.652  15.603 -0.3088  0.0043 -0.3593
23065W        W39326  17.740  15.156   3.137  0.0915  0.2272  0.1717
23066W        W39327   8.877  16.176   0.735  0.2936  0.0899 -0.2265
23067W        W39328  14.497  13.270  13.959  0.4870  0.3783  0.1693
23068W        W39329  11.400   0.426   4.728 -0.0637  0.3116 -0.1923
23069W        W39330  10.838   2.000  14.938  0.3769  0.1695  0.1120
23070W        W39331   7.452  12.709  13.892 -0.3655 -0.1361  0.0890
23071W        W39332  17.134  12.868   3.255 -0.1501  0.2156 -0.0322
23072W        W39333  17.296   4.067  15.341  0.0505 -0.0487  0.1567
23073W        W39334   7.562   3.179   0.610  0.2321 -0.0661 -0.0769
23074W        W39335   3.096   0.868   4.924 -0.4546 -0.3123 -0.1683
23075W        W39336  12.450  11.785   2.862 -0.2385 -0.1236  0.1668
23076W        W39337   7.399   5.996   6.366  0.3363 -0.1151 -0.1050
23077W        W39338   2.916   6.820   1.126  0.0414 -0.3332 -0.3709
23078W        W39339  12.578  15.608  15.132  0.0070  0.1811  0.1472
23079W        W39340  11.312   8.599   0.179  0.1034 -0.0785  0.0370
23080W        W39341  12.209   5.648   4.605  0.2389 -0.0705  0.1069
23081W        W39342  15.178  11.780   0.148  0.0297 -0.2786 -0.2401
23082W        W39343   7.481   9.226  11.964  0.1234  0.0249 -0.1208
23083W        W39344   6.748   2.099   3.954  0.3152 -0.0023  0.1123
23084W        W39345  10.142   8.744   3.854  0.2414 -0.0846  0.0237
23085W        W39346   3.961   3.362  15.152  0.1463 -0.2428  0.2376
23086W        W39347   6.310   5.071  13.520  0.1851  0.0211 -0.2463
23087W        W39348  11.424   4.067   1.423  0.0070 -0.1213  0.0543
23088W        W39349  12.326   6.200  14.862  0.2576 -0.1663  0.0550
23089W        W39350  13.018   3.786   0.577 -0.3036  0.0607 -0.0092
23090W        W39351   9.794  15.007   5.072 -0.0980  0.3513 -0.1145
23091W        W39352  17.089  10.915   4.786  0.3833 -0.1189  0.3092
23092W        W39353  10.196  13.497   0.986  0.0406  0.2820 -0.1136
23093W        W39354   6.057   1.082   0.887  0.2810 -0.1491  0.1366
23094W        W39355   3.862   1.003  14.118 -0.3315 -0.1442 -0.1821
23095W        W39356   3.155   3.540   0.761 -0.1742  0.1878  0.0529
23096W        W39357  11.163   1.678   2.270 -0.0735 -0.1498 -0.2691
23097W        W39358   1.563   1.271  16.709  0.0666 -0.3553 -0.0142
23098W        W39359  16.287   5.593  13.610 -0.0410 -0.0974 -0.2366
23099W        W39360  13.387  16.630  13.815  0.0852  0.1307  0.1415
23100W        W39361   0.592   1.679  14.920 -0.0683 -0.1442 -0.3899
23101W        W39362  11.099   1.676   3.772  0.0055 -0.1866  0.0638
23102W        W39363   2.155  13.080   1.067  0.3575  0.2988  0.2713
23103W        W39364   4.279  14.554   0.647 -0.1223 -0.3181  0.0646
23104W        W39365  13.267   3.069  13.811  0.0590  0.0245 -0.1103
23105W        W39366   3.170  15.448   1.302 -0.2254  0.2401  0.0577
23106W        W39367   8.568   9.606  16.195 -0.0893 -0.3672 -0.1541
23107W        W39368   8.444   9.809   2.037  0.1494  0.3449  0.1399
23108W        W39369  10.843  11.618   2.641  0.1077  0.2097  0.1446
23109W        W39370   9.873   8.997  14.264  0.2932 -0.0041  0.3227
23110W        W39371   9.694  10.621   4.962 -0.1054 -0.1581 -0.1138
23111W        W39372   1.633   9.354   4.767  0.0572  0.1736 -0.0227
23112W        W39373   1.176   7.173   0.908  0.1561 -0.1455  0.0529
23113W        W39374   9.557   0.508   3.418 -0.0105  0.0931 -0.0049
23114W        W39375   3.550   2.089  15.382 -0.0396  0.2022 -0.2120
23115W        W39376   1.352  17.055   1.090 -0.0010 -0.0488  0.0923
23116W        W39377   9.210  14.283   1.939  0.3435 -0.0816 -0.0341
23117W        W39378   5.491   5.536  12.455  0.1747  0.2450  0.0042
23118W        W39379  14.503  16.281  16.161  0.1874  0.0687  0.3076
23119W        W39380  14.208   3.968  12.744 -0.0184  0.0097  0.1119
23120W        W39381   7.387  17.195  14.224  0.0792 -0.1098  0.0209
23121W        W39382  13.042  10.963  12.789  0.0694 -0.2647  0.0061
23122W        W39383  16.130   9.280   3.125  0.0130 -0.1426  0.0096
23123W        W39384   9.142   0.667   2.994  0.0178  0.1755 -0.0554
23124W        W39385  15.844  12.949   2.241 -0.2958 -0.0288  0.0302
23125W        W39386  10.293   1.396   3.242 -0.1236 -0.2652 -0.0003
23126W        W39387   4.740  13.412   3.368  0.1133 -0.0419  0.0391
23127W        W39388   7.606  13.717   0.046  0.1408 -0.1506 -0.1216
23128W        W39389  16.634   7.007  14.895 -0.1481  0.0755 -0.0439
23129W        W39390   6.285   9.175   5.970  0.1814 -0.1373  0.0938
23130W        W39391  13.857  11.078   0.411  0.1409  0.0166  0.1568
23131W        W39392   2.884   8.253   4.396  0.4366  0.0287  0.1032
23132W        W39393   6.193   2.929   0.779  0.0501 -0.3102  0.1348
23133W        W39394   2.539   8.398  14.208 -0.0672  0.0740  0.0005
23134W        W39395  10.451   0.348   5.516 -0.0981 -0.0368 -0.1533
23135W        W39396   5.836  16.155  13.865  0.0095  0.1049  0.1855
23136W        W39397  11.090  10.210   1.319 -0.0198 -0.1193 -0.1568
23137W        W39398  17.442  10.074  16.407  0.4677 -0.2553  0.0039
23138W        W39399  16.039   7.409  11.371  0.0586 -0.0834  0.1534
23139W        W39400  10.013  10.531   3.274  0.1486  0.0288  0.1454
23140W        W39401   1.123  12.240   3.564  0.0155  0.1610  0.0378
23141W        W39402  15.092   2.883  13.608  0.3265  0.1928 -0.0079
23142W        W39403  10.344  14.557   4.391  0.1602 -0.0409  0.0807
23143W        W39404  16.051   2.098  16.607 -0.1986 -0.0172 -0.1094
23144W        W39405  14.347   8.746  12.200 -0.0327 -0.2320 -0.4718
23145W        W39406   7.429  10.822  16.530  0.0711 -0.0133 -0.1548
23146W        W39407   1.247   0.075  12.670 -0.3348 -0.2480  0.0614
23147W        W39408   8.278   1.655  15.252 -0.1212  0.0295 -0.0900
23148W        W39409  13.610   4.922  16.514  0.1329 -0.1412 -0.1832
23149W        W39410  11.551   3.579  11.722  0.2007 -0.2674  0.1216
23150W        W39411  15.191   2.787  16.454  0.2214 -0.0044  0.1859
23151W        W39412   0.727  12.995   4.382 -0.2404  0.0043  0.0551
23152W        W39413  13.273   9.508  13.193  0.1295  0.1983 -0.0898
23153W        W39414  14.084  16.722  14.516 -0.1329  0.0522  0.0784
23154W        W39415   6.174  15.600  12.922  0.3539 -0.1696  0.1328
23155W        W39416  11.001  13.343   3.166  0.0049 -0.3539 -0.4449
23156W        W39417  15.867   1.441  12.268  0.4119 -0.0308  0.0142
23157W        W39418   3.512  10.372  13.202 -0.0157  0.1109  0.0827
23158W        W39419   8.240   7.553  11.834  0.3680 -0.2080 -0.3452
23159W        W39420   6.162   9.795   5.388  0.0784 -0.0241 -0.4666
23160W        W39421   3.309  16.398   1.486  0.0948  0.1177 -0.0893
23161W        W39422   4.135   2.003  13.666 -0.0161 -0.0961 -0.3120
23162W        W39423   9.917   2.175   2.788  0.0113  0.0649 -0.2120
23163W        W39424  11.937   9.178   2.734  0.0815 -0.0064  0.0085
23164W        W39425   0.933  17.687   0.463  0.0518  0.1723 -0.0636
23165W        W39426   7.063  16.211  12.117 -0.1303 -0.0315 -0.0264
23166W        W39427   3.761  10.679   2.856  0.1745  0.3345 -0.2047
23167W        W39428  13.873  13.505   1.002 -0.0999  0.1026  0.0141
23168W        W39429   6.435   1.312  13.125  0.2047 -0.1112  0.1641
23169W        W39430  10.100   2.262  13.791  0.1049 -0.1479  0.0695
23170W        W39431  12.199  14.169  15.193 -0.0568 -0.0771 -0.1835
23171W        W39432  14.737  12.304   0.678  0.1214 -0.2527  0.1906
23172W        W39433   1.974  17.179  13.360 -0.4711  0.2002  0.0071
23173W        W39434   5.357   1.912  14.576  0.0129 -0.1365  0.4037
23174W        W39435   4.877  12.410   1.829  0.3070 -0.1414 -0.1761
23175W        W39436   8.112   3.430   5.756  0.2374 -0.1487 -0.0588
23176W        W39437  15.543   8.851   2.689  0.0425 -0.1566 -0.1787
23177W        W39438  10.216   4.401   2.575 -0.2714 -0.2066  0.0062
23178W        W39439  10.447   8.890   0.266  0.1371 -0.2044  0.1396
23179W        W39440  17.226  15.870   4.966 -0.1897  0.1768  0.0942
23180W        W39441  11.982   4.622  14.322  0.0069  0.0332 -0.2920
23181W        W39442  11.222   6.967   4.395 -0.2787 -0.0505  0.1072
23182W        W39443   4.734  16.772  13.972 -0.0785 -0.2323  0.2344
23183W        W39444   5.897  10.989   2.164  0.0706  0.0394 -0.0922
23184W        W39445  17.768  12.248  12.638  0.0900  0.0418  0.3880
23185W        W39446  12.037  16.845  15.431 -0.2840  0.0180  0.1114
23186W        W39447   1.450   3.663  14.745 -0.2408  0.0780  0.4298
23187W        W39448   6.129   1.953   1.268  0.0766  0.0280  0.0253
23188W        W39449   2.357  10.235   1.473  0.3687 -0.0232  0.0052
23189W        W39450  13.204   7.046   4.022  0.1760  0.0643  0.0851
23190W        W39451  15.113  15.958   5.208 -0.2563 -0.0478  0.1337
23191W        W39452  10.971   9.598  16.890  0.1786  0.2532  0.0176
23192W        W39453  16.548   3.953   1.153 -0.0170  0.0800  0.2283
23193W        W39454  14.196   8.543   1.856  0.0253 -0.0724 -0.0265
23194W        W39455   4.659   3.277  15.544  0.0852 -0.0407  0.0730
23195W        W39456  17.173   9.033  14.857  0.1234 -0.0862  0.0348
23196W        W39457   4.800   6.008  13.802  0.0000 -0.3699 -0.1488
23197W        W39458   6.724   2.872  13.061 -0.0071 -0.1401  0.2033
23198W        W39459   4.090   2.885  15.374  0.4442 -0.0400  0.0428
23199W        W39460   7.691   0.311  15.692  0.0287  0.1100 -0.3212
23200W        W39461   3.656   2.773  14.552  0.0037 -0.2218  0.4990
23201W        W39462  10.838   6.241   3.746  0.2914 -0.0426 -0.2149
23202W        W39463  15.078  12.884  16.849  0.1525  0.1854 -0.0271
23203W        W39464   4.707   0.597  15.709 -0.0449  0.0231  0.7161
23204W        W39465  17.725  15.699   1.418  0.2078 -0.1095  0.0521
23205W        W39466   5.285   9.423  15.912  0.2189  0.1269 -0.0675
23206W        W39467  15.422   5.573   1.915  0.2359 -0.0953  0.1474
23207W        W39468   1.947   1.483   3.489  0.1162 -0.0290  0.0367
23208W        W39469  16.852   0.539  16.410  0.1061  0.0360 -0.0059
23209W        W39470   6.579   2.182   0.332 -0.1574  0.1972 -0.1450
23210W        W39471   2.117   9.555  16.518 -0.0046 -0.0435 -0.1994
23211W        W39472   3.757   1.447  12.773  0.0346 -0.2592  0.1298
23212W        W39473   9.376   9.148  13.423 -0.4188  0.1351  0.1767
23213W        W39474  10.414  16.447  12.591  0.2036 -0.1759 -0.3814
23214W        W39475   4.432   2.075   2.719 -0.0252 -0.2343  0.1464
23215W        W39476  15.879  15.703   1.362  0.0284 -0.0794 -0.2303
23216W        W39477  16.199  10.234  11.928 -0.1240  0.1959  0.0074
23217W        W39478   7.583  13.782   4.988  0.0520  0.1133  0.0583
23218W        W39479  13.875   1.191   3.772  0.2925 -0.2131 -0.0240
23219W        W39480   1.411   0.484   4.413 -0.0129 -0.0244 -0.2100
23220W        W39481  11.171   3.190  11.746  0.0001 -0.1482 -0.0135
23221W        W39482   6.661   7.030   3.456 -0.0782 -0.2043 -0.1051
23222W        W39483  15.770   4.213  16.218  0.0430 -0.0399 -0.1092
23223W        W39484   1.816  10.705   1.632  0.0789  0.0816  0.0513
23224W        W39485   1.932   0.942  13.999 -0.2868 -0.0405 -0.1941
23225W        W39486  13.772   1.105  14.360 -0.0424  0.0969  0.0779
23226W        W39487   5.215   6.439  16.034  0.1205  0.1612 -0.0222
23227W        W39488  12.813  16.517  12.205  0.1101 -0.1143 -0.0308
23228W        W39489   5.208   6.364  13.882 -0.1575  0.1511 -0.1398
23229W        W39490   6.147   0.963  15.949  0.0855 -0.0874 -0.1240
23230W        W39491   2.790   1.315   4.178  0.2192 -0.2420  0.2533
23231W        W39492  17.473   7.434   5.332 -0.3413 -0.4118  0.0911
23232W        W39493   2.847   6.888   0.639  0.0070  0.1641  0.0708
23233W        W39494   8.485   3.199   2.874  0.0022 -0.0050  0.0235
23234W        W39495  10.231  10.649   4.942  0.0281  0.0935  0.2088
23235W        W39496  15.329   4.482  12.895  0.0481 -0.1202 -0.0166
23236W        W39497  15.383  13.458  15.324  0.1124 -0.2970 -0.0107
23237W        W39498   7.213  17.262  14.685  0.0190 -0.0849  0.1331
23238W        W39499   8.482   3.468  12.592 -0.0618  0.0830 -0.3083
23239W        W39500  10.557  11.068  11.794 -0.4580 -0.0381 -0.1818
23240W        W39501   0.353  13.796   3.421  0.3539  0.0147  0.4524
23241W        W39502   3.167   3.846  15.632  0.2349  0.0792  0.1559
23242W        W39503  13.346   0.074   1.672  0.1987  0.1259  0.0293
23243W        W39504   0.905   4.203   5.793  0.2835  0.0067  0.3735
23244W        W39505  10.693  10.873  14.611 -0.0451  0.2966 -0.2097
23245W        W39506   2.103   4.685  13.548  0.1264 -0.0422 -0.0797
23246W        W39507  11.559  15.611   2.648  0.2908 -0.0627  0.2100
23247W        W39508   1.219  15.495   5.088  0.0665  0.0562 -0.0191
23248W        W39509   1.483  13.052   2.250  0.1413 -0.0110 -0.0102
23249W        W39510   4.088   3.666  12.526 -0.1198 -0.0930 -0.0413
23250W        W39511   6.040   6.443  11.391 -0.2725  0.0265  0.1244
23251W        W39512  11.994   5.996  14.567 -0.0018 -0.0961  0.1962
23252W        W39513   2.886   8.842  13.335  0.0045 -0.3339 -0.0810
23253W        W39514  17.456  15.643   3.249  0.1127  0.0566 -0.0239
23254W        W39515  13.535   6.857  10.304  0.2732  0.0669  0.2405
23255W        W39516   3.839   5.553  16.564 -0.0364 -0.0141  0.2163
23256W        W39517   3.860   0.382   4.553 -0.3932 -0.0761 -0.0575
23257W        W39518   9.018  13.527   1.744 -0.0307  0.2393  0.0388
23258W        W39519  12.939   3.009  14.320 -0.2967  0.1121 -0.1495
23259W        W39520   2.820   7.028   3.065 -0.2512 -0.1011 -0.1980
23260W        W39521   1.392  15.728  15.935 -0.0525  0.1237 -0.0917
23261W        W39522  12.890  16.389   3.961  0.2742 -0.1561  0.2051
23262W        W39523  16.630  11.111   5.599  0.1264  0.0109 -0.0372
23263W        W39524   5.026   9.940   4.088  0.0244  0.0065  0.1302
23264W        W39525   8.060   6.939   0.011  0.0826 -0.0417  0.0582
23265W        W39526  15.209   4.271   4.168  0.0117 -0.0957  0.0330
23266W        W39527   6.026  15.341   3.606  0.3365 -0.2019  0.0504
23267W        W39528   3.153   4.059  16.638 -0.0781 -0.0171 -0.0811
23268W        W39529  10.141  13.345   0.143 -0.1460  0.2879 -0.1259
23269W        W39530   0.876   1.091   4.932  0.0679 -0.1976  0.0899
23270W        W39531  12.126   6.967   3.374  0.1136 -0.0654 -0.4159
23271W        W39532   3.370  14.183   5.304 -0.1188  0.2520 -0.2619
23272W        W39533   9.290  13.660  14.553 -0.1763 -0.0389 -0.0140
23273W        W39534   2.188  12.703  13.003 -0.1824  0.2534 -0.1663
23274W        W39535  12.661   2.782   6.034  0.1657  0.0543  0.0461
23275W        W39536   1.694  10.902   4.860  0.2268 -0.2735 -0.0662
23276W        W39537   5.327   3.396  16.963 -0.2921  0.2600 -0.0360
23277W        W39538   7.098   9.867  12.715 -0.2019 -0.0619 -0.1457
23278W        W39539   0.150   2.348  13.430  0.1295 -0.1726 -0.2543
23279W        W39540  13.174   4.299  13.788  0.0329 -0.2051 -0.1829
23280W        W39541   3.647   3.270  15.534  0.1915  0.0344 -0.1254
23281W        W39542   8.740  11.933   2.205 -0.1936  0.0270 -0.1038
23282W        W39543   0.752  16.022  14.168 -0.1707 -0.0285 -0.0473
23283W        W39544   0.587   6.241  14.034 -0.2539  0.0451  0.0761
23284W        W39545  12.213   7.793  14.712 -0.1309 -0.1230  0.3710
23285W        W39546   4.135  15.080  15.329  0.0969 -0.1627 -0.1972
23286W        W39547  15.296   9.942   1.353 -0.1307 -0.1590  0.1711
23287W        W39548   3.970  13.165   3.014 -0.0980 -0.0414  0.0133
23288W        W39549  12.798  15.457   3.178  0.2504  0.2461 -0.3279
23289W        W39550   1.530   6.846  13.719 -0.1128 -0.0550 -0.2598
23290W        W39551  16.638   7.662  15.873  0.1442 -0.0155 -0.2429
23291W        W39552  15.981  15.304   3.114 -0.1368 -0.2282 -0.0929
23292W        W39553   8.134   3.374  16.803 -0.2895 -0.0858  0.0269
23293W        W39554   5.143   6.346   4.886 -0.0740  0.1687 -0.0736
23294W        W39555   2.830   0.810   4.213 -0.0997  0.0479  0.2821
23295W        W39556   5.119   4.497   0.465 -0.0823 -0.0667 -0.0001
23296W        W39557   2.851   1.401   5.876 -0.0369 -0.0782  0.1378
23297W        W39558   4.223  15.477  16.763  0.0644 -0.0503 -0.0138
23298W        W39559   2.537   3.715   2.284  0.0064 -0.0471  0.0667
23299W        W39560   6.562   6.404   2.250  0.3307  0.2986 -0.1738
23300W        W39561  11.435   6.036  13.020  0.0173  0.0666 -0.2596
23301W        W39562  16.201   6.156  11.430 -0.1823 -0.1774 -0.0040
23302W        W39563  15.833   1.559   5.540 -0.0034 -0.0709 -0.1690
23303W        W39564   8.558   9.321   2.086 -0.1721 -0.2813 -0.1332
23304W        W39565  14.979   1.524   3.480 -0.0723 -0.1031  0.1393
23305W        W39566   6.627   3.266  13.379 -0.1507  0.2267  0.1903
23306W        W39567   8.146  12.371  11.940 -0.2740  0.1500  0.0495
23307W        W39568   7.367  13.205   5.102 -0.2353 -0.0968  0.0064
23308W        W39569  11.296  11.450  15.548 -0.3203  0.1053 -0.1382
23309W        W39570  16.485   7.779  12.722  0.0617 -0.1501 -0.0813
23310W        W39571   0.384   3.286   1.891  0.1926  0.2699  0.0261
23311W        W39572   8.747  10.916   0.219  0.0520  0.1404  0.4019
23312W        W39573   9.515   1.783  16.743  0.2352  0.0263 -0.1039
23313W        W39574  15.367   5.598  14.098 -0.2002  0.0441 -0.2089
23314W        W39575  13.789  12.356   0.267 -0.2827  0.1827  0.0556
23315W        W39576  14.757  17.526  14.632  0.1563  0.2082 -0.0680
23316W        W39577   3.992   3.367  13.097 -0.3193  0.0950 -0.1114
23317W        W39578   7.076   8.429  13.520  0.0145  0.1204 -0.0542
23318W        W39579   7.598   7.340  16.754 -0.2933 -0.1769 -0.1169
23319W        W39580  16.901  14.002  13.003  0.1118  0.0150 -0.1230
23320W        W39581  12.481   2.669  14.006  0.0216 -0.1560 -0.0208
23321W        W39582  17.673   1.060   5.465  0.2600  0.1579 -0.0506
23322W        W39583  14.899  16.183  13.056 -0.1199  0.0841 -0.0500
23323W        W39584  14.815   8.053  12.321 -0.1019 -0.3008  0.0759
23324W        W39585   1.154  10.365   5.554  0.2363  0.0548 -0.1489
23325W        W39586   9.463   8.608  10.754  0.0629 -0.2693 -0.0341
23326W        W39587  14.966   7.767   4.576  0.2257 -0.1187 -0.0810
23327W        W39588   2.889   3.454   0.033  0.1635  0.0322  0.1889
23328W        W39589   0.151   8.643   0.664 -0.2349 -0.2282  0.1217
23329W        W39590   0.218  10.284   4.792 -0.0008  0.1381 -0.1006
23330W        W39591   3.179  10.894   2.097 -0.2377 -0.0521  0.0196
23331W        W39592  16.859  11.634  12.910 -0.2322  0.0536 -0.1817
23332W        W39593   0.019  10.377  14.073  0.2265 -0.0253  0.1971
23333W        W39594   8.063   3.100  12.079 -0.1683  0.2551  0.0703
23334W        W39595   7.484   7.579   3.345  0.2572  0.0374  0.2900
23335W        W39596   5.929   4.175   0.620 -0.2066  0.2208  0.2393
23336W        W39597   6.255  16.625   2.375 -0.2771  0.1195 -0.0883
23337W        W39598   3.554   2.547   1.586  0.1494  0.0928 -0.0685
23338W        W39599  12.179  16.928  13.967 -0.1941  0.1965  0.2208
23339W        W39600   3.623   1.467   5.216 -0.0387  0.0515 -0.2650
23340W        W39601   7.741   1.528   4.426 -0.0001 -0.1616 -0.1814
23341W        W39602  16.332   9.030  11.942  0.1482 -0.5077  0.0981
23342W        W39603  12.113   6.790  13.927 -0.3285 -0.1506  0.0409
23343W        W39604  13.439   1.871  16.064  0.3848  0.2420  0.0785
23344W        W39605   5.417  16.203  12.670  0.1984  0.2157 -0.0423
23345W        W39606   6.890  10.830   4.260 -0.0863 -0.1617 -0.2007
23346W        W39607  11.766  14.453  15.511 -0.0375 -0.1669 -0.0288
23347W        W39608  13.081   5.628   3.482  0.1091  0.1108 -0.1644
23348W        W39609   0.673   2.830  16.517  0.0504  0.1212  0.1164
23349W        W39610   8.513   4.243  14.180  0.0957  0.0941 -0.1307
23350W        W39611  11.121  11.774   3.429  0.0636 -0.0471  0.3143
23351W        W39612  15.102   8.022   3.225  0.0954  0.0719  0.1908
23352W        W39613  11.111  15.090   2.603  0.0442 -0.1701  0.1692
23353W        W39614   8.804   7.604  12.864 -0.2274  0.1227  0.0682
23354W        W39615  15.874  12.324  14.916  0.3315 -0.1753  0.0138
23355W        W39616  13.415   4.114   2.077  0.3998 -0.1966  0.0525
23356W        W39617  16.369   7.450  14.968  0.0952  0.1080  0.0805
23357W        W39618  17.544   5.393  13.305 -0.1885  0.1177  0.0039
23358W        W39619  11.376   8.480   2.772 -0.0554  0.0670  0.1149
23359W        W39620  13.810   6.188  15.720 -0.1297 -0.3704  0.1934
23360W        W39621  12.653  11.440  14.079  0.0683  0.1168 -0.0243
23361W        W39622  13.987  10.947   4.612 -0.2305 -0.1129 -0.2508
23362W        W39623   3.042   8.743   2.880 -0.2489  0.0901 -0.1853
23363W        W39624  14.033  13.597  15.226  0.2354 -0.2685  0.0325
23364W        W39625  15.768  13.481  15.697 -0.0930 -0.1800 -0.0723
23365W        W39626   9.710   9.363  13.080  0.2169 -0.1380 -0.0093
23366W        W39627   8.894   8.304   4.358  0.2759 -0.0859  0.1023
23367W        W39628   2.198  16.782  15.746  0.3145 -0.0467 -0.3435
23368W        W39629   0.515  10.764  11.662 -0.0008  0.3351  0.0734
23369W        W39630   0.805  15.273   1.242 -0.0150 -0.0059 -0.4151
23370W        W39631   3.617  10.902  16.130 -0.1552  0.0080 -0.0415
23371W        W39632  11.927   9.140  15.570 -0.2031  0.4182  0.2127
23372W        W39633  10.887   7.361   4.458  0.0643  0.1654 -0.0520
23373W        W39634   2.272   9.840  13.392  0.2926 -0.2837 -0.0113
23374W        W39635  11.923  12.736  16.006 -0.3058  0.0658  0.1908
23375W        W39636   2.821   5.055   0.096  0.1304 -0.1411 -0.0039
23376W        W39637   1.741  14.875   3.396 -0.1321 -0.2558  0.0506
23377W        W39638  17.720  11.131   3.096 -0.2931  0.2008 -0.1569
23378W        W39639   4.939  11.055  14.748 -0.0597 -0.2261  0.2539
23379W        W39640  11.477   2.301   5.599 -0.0519 -0.3583 -0.0250
23380W        W39641   0.392   9.831   4.586 -0.3208  0.2666  0.2167
23381W        W39642   3.880   7.423  16.890 -0.1778 -0.4327  0.0209
23382W        W39643  14.926   8.855   1.265 -0.1028  0.1987 -0.5828
23383W        W39644   1.906  13.746  12.592 -0.0936 -0.2915  0.0112
23384W        W39645  10.533   3.977  11.787 -0.2951 -0.2226 -0.1045
23385W        W39646  13.628   8.648   0.550 -0.2055 -0.0068 -0.1823
23386W        W39647   9.858   0.733   3.813  0.1161  0.0830 -0.0643
23387W        W39648   1.291   9.634  14.335  0.2553 -0.1097  0.1299
23388W        W39649  16.051   4.528   0.566 -0.0574 -0.0783  0.1263
23389W        W39650  12.986  14.425   2.842 -0.1296 -0.0734  0.0706
23390W        W39651   2.977   1.634  13.653 -0.0198  0.3211 -0.3246
23391W        W39652  11.795   9.768   6.519  0.3830  0.2696 -0.1230
23392W        W39653  10.878  11.947  14.708  0.0197  0.0821  0.1379
23393W        W39654   9.926  15.004  12.231  0.1632  0.0038 -0.1788
23394W        W39655  11.930   0.879  16.415 -0.2533 -0.0259 -0.0858
23395W        W39656  15.464   9.373   3.843  0.3146  0.1297 -0.0962
23396W        W39657   8.084   8.460   6.063 -0.1776 -0.0338  0.1972
23397W        W39658  12.678   8.483   1.261  0.3629  0.1081  0.4067
23398W        W39659   5.466  12.491   1.094  0.1155  0.1917 -0.0592
23399W        W39660  11.619   3.461  15.431  0.1841 -0.0856  0.0541
23400W        W39661  15.719  14.066  15.663  0.0493 -0.1547 -0.3506
23401W        W39662  11.686   7.716   2.319 -0.0213 -0.1848  0.0234
23402W        W39663   6.842   0.404   0.816 -0.2965 -0.2396  0.2146
23403W        W39664  10.752   8.065   4.104 -0.2589 -0.0752  0.1029
23404W        W39665   3.332  16.090  11.870  0.3167  0.1472 -0.0517
23405W        W39666  15.559   6.013   4.766  0.0410 -0.1016 -0.1231
23406W        W39667   7.949   9.937  13.629  0.1281 -0.2469 -0.2793
23407W        W39668   3.368   7.748   2.129  0.2190  0.1025  0.0654
23408W        W39669  15.450   6.768  16.786  0.0612 -0.1348 -0.1620
23409W        W39670  17.200   0.309   4.985  0.0095  0.0286 -0.1042
23410W        W39671   1.534   5.873   4.226  0.0509  0.1276 -0.1700
23411W        W39672   5.002  10.450   4.045 -0.1057 -0.1661  0.2686
23412W        W39673  17.404   0.465  11.218  0.2338  0.0144 -0.0982
23413W        W39674   6.786  11.385   0.866  0.1084 -0.0567 -0.0511
23414W        W39675  13.305  11.543  14.418 -0.4648  0.0467  0.0153
23415W        W39676  14.812   9.400  14.883 -0.0355  0.2207 -0.2310
23416W        W39677   8.473  17.446   0.703  0.0440 -0.1766  0.0007
23417W        W39678   6.134  12.690  14.005 -0.0854  0.0481 -0.2101
23418W        W39679   3.118  10.906  15.275  0.0752 -0.2278  0.0579
23419W        W39680   4.420  15.938  15.028 -0.1513 -0.0773  0.0805
23420W        W39681   5.525   2.131  12.285  0.0671 -0.2330 -0.1357
23421W        W39682  13.410  11.270   5.959 -0.0060 -0.2106 -0.1141
23422W        W39683   1.572  15.645   5.877  0.2069  0.4200  0.2282
23423W        W39684   6.745   9.788   1.839 -0.0886 -0.0218  0.1330
23424W        W39685   2.386   7.918  13.212 -0.0858  0.1818 -0.0269
23425W        W39686   4.165   3.096   4.688  0.2968  0.0010 -0.1535
23426W        W39687  17.445  13.960  13.228  0.1047 -0.1879 -0.0230
23427W        W39688   0.837  17.229  12.127 -0.0162  0.0216  0.1748
23428W        W39689   7.002   2.056   1.911 -0.3093 -0.0684 -0.0256
23429W        W39690   3.955   0.360   0.835  0.3047 -0.0788 -0.0197
23430W        W39691   3.539  16.011   5.763 -0.0243 -0.2991 -0.1032
23431W        W39692   1.306   9.089  14.385  0.2667 -0.1625  0.0811
23432W        W39693   7.910   2.346  16.973  0.1559  0.2115 -0.0478
23433W        W39694   0.266  11.750   5.219  0.0539  0.2288  0.4494
23434W        W39695  10.640   1.311   3.814 -0.4609 -0.3842  0.0809
23435W        W39696   9.144   2.506  14.454 -0.0100 -0.1411  0.1236
23436W        W39697   4.291   2.116   5.849  0.1189  0.3336  0.0746
23437W        W39698  17.822  15.205  16.011 -0.1382  0.2629  0.0561
23438W        W39699   7.656  14.137  12.043 -0.0084  0.2033  0.1248
23439W        W39700  12.807  13.584  13.313 -0.0899 -0.0667 -0.1503
23440W        W39701  10.444   4.183  13.239  0.0166 -0.0925 -0.1441
23441W        W39702  13.868  17.745  11.703 -0.1299  0.3069 -0.0626
23442W        W39703  16.002  16.975  11.964  0.1078 -0.1470  0.0490
23443W        W39704  12.869  10.867  14.833 -0.1034  0.1923  0.3443
23444W        W39705   5.694   7.513   1.261 -0.0023 -0.1238  0.1839
23445W        W39706   1.191  14.760  15.721  0.0721  0.2863 -0.2361
23446W        W39707  13.480   7.745   0.435 -0.0622 -0.5248 -0.3211
23447W        W39708   8.491  14.124   4.091 -0.1751 -0.1283 -0.2248
23448W        W39709   3.694   2.707   4.811  0.0962 -0.3124 -0.1675
23449W        W39710  16.598   1.817  15.856 -0.2062 -0.5031 -0.2892
23450W        W39711   3.356  16.528   0.135 -0.3071 -0.0442  0.0089
23451W        W39712   2.689  16.246  13.766 -0.2639  0.0861  0.3372
23452W        W39713  12.597   2.525   3.320  0.3323 -0.1618 -0.1654
23453W        W39714  11.719  17.172   3.220  0.0175 -0.0300 -0.0600
23454W        W39715   8.901   6.328   1.627 -0.1699 -0.2151 -0.0473
23455W        W39716   6.554   1.320   0.785  0.3040  0.4867 -0.2327
23456W        W39717  17.338   4.745   6.255  0.1098 -0.1940 -0.4110
23457W        W39718  16.525   4.599  14.427  0.0469  0.1954  0.1212
23458W        W39719   7.015  13.961   2.756  0.1177  0.0106  0.2481
23459W        W39720   7.141   7.328   0.167 -0.0863 -0.0437 -0.0512
23460W        W39721   3.203   4.832   1.641 -0.2495  0.0795 -0.3930
23461W        W39722   7.885   4.624   1.358  0.2039  0.0045  0.0219
23462W        W39723  14.718   4.918   4.672  0.2406 -0.2183 -0.4534
23463W        W39724   7.186  17.154   1.935 -0.0070  0.0829 -0.0976
23464W        W39725  13.305   0.833   0.203  0.1524  0.1379 -0.0445
23465W        W39726   8.101   3.848  12.463 -0.2398  0.0767  0.1894
23466W        W39727   7.210   1.398  14.309  0.1096 -0.3241 -0.1532
23467W        W39728   8.782  10.227   2.433 -0.0143 -0.1181 -0.6196
23468W        W39729  11.803   3.456   4.052  0.0211 -0.0238  0.0057
23469W        W39730   4.438  12.492  13.332  0.3014  0.3338 -0.0126
23470W        W39731   4.564  10.027   6.047  0.2188  0.0679 -0.1261
23471W        W39732  12.262   2.050  15.170 -0.1986 -0.2080 -0.0783
23472W        W39733   0.604  13.321  15.349  0.2426 -0.1895 -0.3239
23473W        W39734  15.000   4.938  13.009  0.3023 -0.0595 -0.0217
23474W        W39735   8.444  10.967   4.709 -0.0532  0.1646  0.0760
23475W        W39736  17.627  14.271  11.820 -0.3876  0.2518  0.2470
23476W        W39737  14.241   8.071   0.166 -0.0993  0.0703 -0.0174
23477W        W39738   2.023  13.075  15.682 -0.0450  0.3821 -0.2092
23478W        W39739  12.534  13.302  16.781  0.0611  0.0325  0.1849
23479W        W39740   3.560   1.315   4.771 -0.5212  0.1911 -0.2302
23480W        W39741   1.999  13.586  13.067 -0.2270  0.2026 -0.2849
23481W        W39742  14.027   8.801  16.570 -0.0214 -0.1280 -0.2642
23482W        W39743  16.669   1.753   0.168 -0.2951 -0.5572 -0.1341
23483W        W39744  12.460  10.714   2.459  0.2649  0.2786  0.1165
23484W        W39745   7.547  10.174  13.426  0.0657 -0.1172 -0.0029
23485W        W39746   1.881   8.484  14.824  0.0377  0.0781  0.2915
23486W        W39747   0.344  11.938  11.447  0.2818 -0.1657 -0.3681
23487W        W39748   4.581  10.611   6.081 -0.2263 -0.1360 -0.2552
23488W        W39749  15.890  12.150   5.530  0.0251 -0.3602  0.2109
23489W        W39750   0.935   3.338   4.999 -0.2870 -0.1829 -0.1775
23490W        W39751  13.049   5.444  12.053  0.2215 -0.0017  0.0768
23491W        W39752   4.916  14.184  14.454  0.0283 -0.0332  0.3341
23492W        W39753  11.260  15.297  13.725 -0.1290  0.1327 -0.4288
23493W        W39754   6.701  15.708  10.549  0.4674 -0.2311  0.0233
23494W        W39755   7.639   5.772  13.573  0.0588  0.0766 -0.0854
23495W        W39756   6.476   4.703  13.925 -0.0198 -0.1416  0.2641
23496W        W39757  17.288   0.717   4.674  0.3566 -0.2608  0.2054
23497W        W39758  11.968   8.563   5.631  0.0277  0.0827  0.1141
23498W        W39759  13.316  10.270  13.921  0.1855 -0.2837 -0.0584
23499W        W39760  15.169   4.264   2.453 -0.2154 -0.0865 -0.1488
23500W        W39761  13.801   7.009   2.348 -0.1521  0.0593 -0.0341
23501W        W39762  13.632  10.281   4.811 -0.0210  0.0169  0.1666
23502W        W39763  12.432   9.371  11.891 -0.0431  0.0840 -0.2865
23503W        W39764   1.578   7.395   2.501 -0.1188  0.0933  0.0773
23504W        W39765   1.891   0.878  14.743 -0.0346 -0.0685 -0.1099
23505W        W39766   7.066   5.255   0.213 -0.1186 -0.3677  0.0760
23506W        W39767   5.310   2.497   2.896 -0.0039  0.0598 -0.1890
23507W        W39768   9.056   1.920   5.823 -0.1600  0.1450 -0.1148
23508W        W39769   0.735  11.764  16.128 -0.3095 -0.1561  0.2176
23509W        W39770   2.956   6.029   0.482  0.2646  0.0582 -0.3718
23510W        W39771  13.376   0.778  16.533 -0.0268  0.0129 -0.1185
23511W        W39772   6.349   0.302   4.103  0.2313 -0.0314  0.2565
23512W        W39773   2.305   3.957  16.773  0.0502 -0.1402  0.0790
23513W        W39774   3.272   7.285   5.532 -0.1317  0.0128 -0.0986
23514W        W39775  15.241   9.831  13.552  0.0718 -0.0875  0.2571
23515W        W39776   8.947   5.354   2.493  0.2695 -0.1978 -0.1158
23516W        W39777   9.613  11.538  14.474  0.3021  0.3761 -0.3977
23517W        W39778  10.611  11.219   0.206  0.0338  0.3178  0.0054
23518W        W39779   2.372   3.639  13.541 -0.2047 -0.0060  0.0151
23519W        W39780   4.591   0.114  15.530  0.3153 -0.1907  0.1495
23520W        W39781   1.469   5.756  13.989 -0.0717 -0.0877  0.0656
23521W        W39782   7.247   9.531   1.993  0.1389  0.2700 -0.2046
23522W        W39783  11.219   1.869  12.209  0.0364 -0.1590 -0.0612
23523W        W39784  12.539   4.462  13.003 -0.0592 -0.1831  0.0594
23524W        W39785   7.505  13.498  14.880 -0.3795  0.0414  0.2571
23525W        W39786   9.297  10.796   2.184  0.0450  0.4251  0.1382
23526W        W39787  14.800  17.840  12.783  0.1820  0.3008 -0.1975
23527W        W39788  13.606   3.374   3.716  0.1965  0.0476 -0.0037
23528W        W39789   8.427   4.404  15.567  0.0108 -0.0652  0.0219
23529W        W39790  15.013   4.975  14.501 -0.0232  0.1518  0.2436
23530W        W39791   3.811  14.956   2.986 -0.0509 -0.3327  0.2862
23531W        W39792   6.163   2.695   3.914  0.2167  0.1333  0.0074
23532W        W39793   3.717   6.670  13.252  0.0617  0.1353 -0.0230
23533W        W39794   0.341   5.772   5.361  0.1669  0.2466  0.2831
23534W        W39795   6.511  10.500   2.616  0.1103 -0.0380  0.0520
23535W        W39796   0.872   6.869  15.191 -0.0697  0.2155 -0.1100
23536W        W39797   4.164  10.562  14.407  0.0365 -0.0383  0.3458
23537W        W39798  17.443   3.000   2.590 -0.4997 -0.1519 -0.3218
23538W        W39799   5.495   9.726  16.727  0.2498 -0.1681 -0.0923
23539W        W39800  12.541   7.602   1.392 -0.2802  0.0867  0.2793
23540W        W39801   3.673  12.278  14.819  0.0690 -0.0091  0.0384
23541W        W39802  16.235   6.590  16.961 -0.3355 -0.1168  0.0640
23542W        W39803  16.491  13.621  14.312  0.0740  0.2780 -0.1632
23543W        W39804   9.243   8.625  12.099 -0.2383  0.1842  0.0097
23544W        W39805  12.964   7.406   2.592 -0.3405 -0.1427 -0.3104
23545W        W39806   7.246   5.075  14.199  0.0791  0.1174 -0.2303
23546W        W39807   6.479   9.909  15.281  0.2361 -0.2392  0.0227
23547W        W39808   8.190  11.239  16.905  0.2194  0.0051 -0.1214
23548W        W39809  16.182  15.234  14.369  0.0774  0.2806 -0.0369
23549W        W39810  14.513   0.097  13.940 -0.0171 -0.0442 -0.0068
23550W        W39811  14.667  12.389   4.400  0.0274 -0.1516 -0.1857
23551W        W39812   3.548  11.833  14.637  0.0499  0.4321  0.2491
23552W        W39813  11.422   8.584  14.526  0.3582  0.1974  0.4236
23553W        W39814  14.094  11.517   0.890 -0.1420 -0.2181 -0.1998
23554W        W39815   1.650  15.570  15.232 -0.1291  0.0614  0.0376
23555W        W39816  15.140   1.746   1.866 -0.0887 -0.1615  0.3479
23556W        W39817  12.298  11.109   5.267 -0.1310  0.0464  0.1979
23557W        W39818   6.440  11.021  15.861  0.0113  0.0458 -0.0637
23558W        W39819   2.910  11.153   4.464  0.0749  0.0674  0.4515
23559W        W39820  12.403  10.771   4.906 -0.1796  0.1913  0.0201
23560W        W39821  14.902  14.512   1.387 -0.0633  0.2560 -0.3617
23561W        W39822  11.634  17.733   1.103 -0.0746  0.0185  0.0369
23562W        W39823   4.840   9.760   5.620 -0.0278 -0.0206  0.0617
23563W        W39824  12.378   6.260  15.443  0.1427  0.1584 -0.0220
23564W        W39825   5.888  13.789  11.860  0.1378  0.0972  0.2435
23565W        W39826   8.944   2.749   3.832 -0.0867 -0.2042  0.0312
23566W        W39827  10.553   9.911  12.617 -0.2168 -0.0049  0.1466
23567W        W39828  12.427  12.814   2.620  0.0561 -0.0080 -0.1705
23568W        W39829   4.131  14.947   3.859 -0.4170  0.0878 -0.1561
23569W        W39830  11.488   8.450   1.338 -0.2925  0.3423 -0.2948
23570W        W39831  16.933  10.787  14.096 -0.1620  0.2596 -0.1871
23571W        W39832   3.152   9.475   3.466  0.2937 -0.2815  0.0320
23572W        W39833  15.460  10.888   1.028 -0.0587 -0.1416 -0.2267
23573W        W39834  13.997  13.023   2.632  0.1871  0.0585  0.2378
23574W        W39835   5.545  11.994   4.938 -0.0159 -0.1158  0.1513
23575W        W39836   9.214   1.769   2.959 -0.1915 -0.1057  0.0632
23576W        W39837   2.671   5.580   1.925 -0.0240  0.0479  0.2459
23577W        W39838   4.619   7.331  16.133  0.2016  0.1526  0.3746
23578W        W39839  12.577   4.458   5.771  0.1946 -0.0130 -0.1956
23579W        W39840   7.373  11.053  15.949 -0.1762 -0.0649  0.2980
23580W        W39841   5.325   8.733  13.624 -0.1039 -0.1684 -0.2664
23581W        W39842  14.041  14.464   1.249 -0.1177  0.2735 -0.2023
23582W        W39843   8.121   7.489  14.680 -0.0786  0.0646 -0.3576
23583W        W39844  17.442   8.440  13.060 -0.2521  0.1614  0.0584
23584W        W39845   2.460  16.425  13.337  0.4752 -0.0786  0.0613
23585W        W39846   1.457   5.761   2.341  0.1586 -0.2657 -0.2498
23586W        W39847   4.354  15.922   2.535 -0.1938 -0.0046  0.0207
23587W        W39848  11.426  13.799  16.478  0.3401 -0.1173  0.2609
23588W        W39849   1.439  12.118   3.238 -0.0923 -0.3241 -0.1686
23589W        W39850  13.421   7.084  12.462  0.2476  0.0649 -0.0414
23590W        W39851  17.340  16.873  14.170 -0.3071 -0.0986  0.1599
23591W        W39852   0.898   5.901  14.198  0.1649 -0.2994  0.1726
23592W        W39853  16.708   2.248  13.418 -0.1207  0.1249  0.0147
23593W        W39854   7.731   4.703   4.319  0.3059  0.0102 -0.0325
23594W        W39855   0.521  13.039  13.520  0.3110  0.2185 -0.2557
23595W        W39856  10.543   8.197  16.170  0.1110  0.0706  0.0428
23596W        W39857   8.740  12.906  13.797  0.0652 -0.1957  0.1668
23597W        W39858  12.623  13.556  11.956 -0.0235  0.0483  0.3768
23598W        W39859  10.821   5.063   3.323  0.3288  0.0953  0.0193
23599W        W39860   0.366  11.285  14.508  0.1398  0.3047  0.1422
23600W        W39861   0.685  11.233  16.572  0.0595  0.0754  0.0751
23601W        W39862   8.529   2.939   0.998 -0.2187 -0.0908  0.1225
23602W        W39863  10.008   9.482   1.900  0.1249 -0.0541  0.0615
23603W        W39864   0.056  10.084  15.555  0.0001 -0.0826  0.0406
23604W        W39865   1.829  13.386  14.615 -0.0134  0.3209 -0.2362
23605W        W39866  13.913   7.452   5.105 -0.0764 -0.1864 -0.0740
23606W        W39867   8.892   3.298  16.050 -0.0737 -0.4675  0.2329
23607W        W39868  17.724  13.764   2.940  0.1589  0.1342 -0.2928
23608W        W39869  16.444  11.028   3.081 -0.6139 -0.0716  0.1948
23609W        W39870  12.546   1.443   0.629  0.2519 -0.2568 -0.1795
23610W        W39871  14.509   6.141  12.612 -0.1920 -0.2663  0.4392
23611W        W39872   5.210  16.225   3.180 -0.0473 -0.2946 -0.1412
23612W        W39873   7.720  14.412  12.873 -0.0564  0.1933 -0.0195
23613W        W39874   4.372   2.831  13.724 -0.1325 -0.3535  0.2473
23614W        W39875   9.766   3.018   1.204 -0.0524  0.0928  0.2752
23615W        W39876   6.823   4.527  15.425  0.1005  0.1377  0.2796
23616W        W39877  16.716  17.178  15.951 -0.1455 -0.1724 -0.2321
23617W        W39878  10.151   6.693   2.351  0.0301 -0.0809 -0.1786
23618W        W39879  16.264   7.585  13.179  0.1246  0.2030  0.2279
23619W        W39880   6.730  17.126   5.425  0.1269  0.1883 -0.2115
23620W        W39881  16.419  16.610   2.909 -0.0383 -0.3562  0.0785
23621W        W39882  11.316   0.212   0.310  0.1583  0.0535  0.3039
23622W        W39883   5.858   7.226   2.417 -0.0884  0.2765 -0.0369
23623W        W39884   2.246   1.178  15.615  0.0216  0.0777 -0.1239
23624W        W39885  14.388   0.348   4.346  0.2937  0.1324  0.3491
23625W        W39886   3.108  12.111   4.505  0.0392  0.0549  0.1733
23626W        W39887   8.077   8.504  11.744  0.2784 -0.0865 -0.1024
23627W        W39888  11.376  10.768   2.063 -0.0155  0.0587 -0.3619
23628W        W39889   1.171   5.253  14.002  0.0269  0.0389 -0.0314
23629W        W39890   1.018  10.998   2.217  0.2137  0.1156 -0.1055
23630W        W39891  15.419  12.236  15.666  0.0903 -0.2865 -0.0902
23631W        W39892   6.852  14.301  13.116  0.1027  0.1557 -0.4431
23632W        W39893  17.223  16.764   3.192  0.0725  0.2571  0.3842
23633W        W39894   9.813   4.604  12.101  0.2033 -0.0264  0.0570
23634W        W39895   1.119  13.007  15.778  0.2454 -0.1378  0.0168
23635W        W39896   7.585   9.775   2.394 -0.0279  0.1369 -0.2608
23636W        W39897  12.384  13.849   0.999  0.0511 -0.1553  0.1353
23637W        W39898   9.639   6.068  16.112  0.0540 -0.2168 -0.2639
23638W        W39899  11.754  11.266  15.887 -0.0096 -0.1615 -0.0546
23639W        W39900  13.680  17.214   0.362 -0.3491  0.2017  0.0693
23640W        W39901   6.057   8.707  12.591  0.1609  0.2953  0.0296
23641W        W39902   8.946   5.436   1.448 -0.1105  0.1160  0.2506
23642W        W39903   3.975  15.654   1.595 -0.2420 -0.1469  0.2011
23643W        W39904  13.547   6.404   1.653  0.3926 -0.3552  0.1664
23644W        W39905   3.460  10.073   2.068  0.1593 -0.2280 -0.0195
23645W        W39906   4.584   9.403  12.614 -0.2921  0.0426 -0.2289
23646W        W39907  11.870   5.177   4.680 -0.0761 -0.4085 -0.2263
23647W        W39908  13.709   8.092   4.126  0.4174  0.0065 -0.0614
23648W        W39909   8.578  13.511   0.648  0.1927  0.2749 -0.0968
23649W        W39910  12.800  13.666  16.527 -0.1643  0.0179 -0.1309
23650W        W39911  15.802  16.522   1.361  0.0988  0.2152 -0.0818
23651W        W39912  16.656  13.227  15.182  0.4040 -0.2569  0.0816
23652W        W39913  14.907   5.500  16.643 -0.0122 -0.1037  0.1664
23653W        W39914   0.948   7.120  15.720  0.2501 -0.0650  0.1809
23654W        W39915   9.296   7.583  11.261  0.2115 -0.0438 -0.0828
23655W        W39916   3.049   9.050   4.963 -0.0778  0.1506 -0.0370
23656W        W39917  17.788   2.661  11.961 -0.0956 -0.1616  0.1853
23657W        W39918   3.879   1.267   2.363 -0.0171  0.3266 -0.1395
23658W        W39919   0.974   5.305   5.071 -0.1786 -0.1213  0.0005
23659W        W39920  13.079   9.594   4.209  0.0319 -0.1083  0.0350
23660W        W39921   1.000   7.765  14.484  0.0770 -0.1473  0.1566
23661W        W39922   6.570   9.646   3.250  0.1823 -0.0491  0.1317
23662W        W39923   2.507   6.829   2.356  0.2496 -0.0657 -0.2079
23663W        W39924   7.297  15.540  13.321  0.0327 -0.0148 -0.4025
23664W        W39925   6.418  11.773   0.740 -0.0746 -0.2259  0.1741
23665W        W39926   7.553  11.707   6.522 -0.1901 -0.0130  0.0969
23666W        W39927   6.373  15.715   5.400  0.4046  0.0051 -0.0611
23667W        W39928   2.184  16.215  14.893  0.3806 -0.0346  0.1880
23668W        W39929   0.589   7.339   3.078  0.0373 -0.0853  0.1077
23669W        W39930  14.294   9.947  10.180  0.0170  0.2530 -0.0161
23670W        W39931  17.050   5.476   2.499 -0.0652 -0.2444 -0.1612
23671W        W39932  14.324   3.801   0.058  0.4058 -0.0213 -0.0719
23672W        W39933   2.595  16.606   4.910  0.2259 -0.0394  0.0783
23673W        W39934  15.369   2.885   0.576  0.1982 -0.1424 -0.1859
23674W        W39935   2.651   8.763   4.057 -0.0688 -0.1647  0.0073
23675W        W39936  13.781   3.167  12.365  0.1626 -0.0621 -0.2134
23676W        W39937   4.092   7.134  13.676 -0.3288  0.1484  0.1013
23677W        W39938  13.823   2.095   5.649 -0.2226  0.0521 -0.0848
23678W        W39939   4.407   8.352  11.609 -0.1309  0.0911 -0.1688
23679W        W39940   7.289  12.044  11.881 -0.0879  0.0751 -0.1707
23680W        W39941   1.585   2.724   5.074 -0.0830 -0.2287  0.0341
23681W        W39942   1.876  13.924  16.815 -0.0843  0.0362  0.0082
23682W        W39943   5.454   1.620   1.951 -0.1641 -0.1173  0.0252
23683W        W39944   5.247   3.288  14.347 -0.2687 -0.0015 -0.1175
23684W        W39945  17.235   9.858  14.546 -0.1106  0.0417  0.0559
23685W        W39946  13.237  11.301   3.890  0.0009 -0.0223 -0.0180
23686W        W39947   0.388  10.654   3.992 -0.1472  0.1116  0.0020
23687W        W39948  17.656   1.317   3.939  0.2025  0.1392 -0.0555
23688W        W39949  16.297  15.125   5.907  0.0642  0.0403  0.2890
23689W        W39950   3.130  13.564  15.545  0.3994  0.3215  0.2477
23690W        W39951   1.292  10.879   4.185  0.0826  0.0948  0.0671
23691W        W39952  16.850   2.380  16.485 -0.0607  0.1109 -0.1070
23692W        W39953  16.806  10.411   0.843  0.1234  0.1376 -0.0216
23693W        W39954   3.690   0.018   5.690  0.1058  0.0591 -0.2192
23694W        W39955  13.721   8.796  14.574  0.2453 -0.2803 -0.0606
23695W        W39956   9.588   4.487  15.415  0.0992  0.1735  0.1818
23696W        W39957  16.695   5.197   0.745 -0.0838  0.0651  0.2001
23697W        W39958   2.781   0.627  12.290  0.0204  0.0692 -0.0169
23698W        W39959   9.103   0.781   1.104  0.0252  0.0296 -0.0530
23699W        W39960  14.350  11.699  16.474  0.1137 -0.1958  0.0523
23700W        W39961   5.829  17.384  16.337  0.0327  0.2120  0.0575
23701W        W39962   2.561  15.933  16.057 -0.1306 -0.3377  0.2021
23702W        W39963  15.509  16.807   6.648 -0.0972  0.1081 -0.2755
23703W        W39964  16.917   7.392  15.597  0.0625 -0.0873 -0.2338
23704W        W39965  12.462  15.270   2.276  0.2574 -0.0733  0.0632
23705W        W39966   3.436   5.165  16.040 -0.1955 -0.0736  0.0547
23706W        W39967  16.782   8.675   0.385  0.1963  0.1506 -0.0729
23707W        W39968   2.127   0.676  15.363  0.1330  0.0506  0.0240
23708W        W39969  16.305   0.390  12.528 -0.1899  0.4182 -0.0911
23709W        W39970   9.602  12.146  16.282 -0.0874  0.0298 -0.0809
23710W        W39971   1.672  14.855   0.836 -0.0706 -0.2171 -0.0193
23711W        W39972   7.808  10.004  14.154 -0.0298 -0.0635 -0.0061
23712W        W39973   8.713  16.352   5.505 -0.0881  0.1015 -0.1624
23713W        W39974   7.837   4.148   0.390  0.1214  0.1196  0.1529
23714W        W39975   5.038  16.932  14.343  0.0339  0.2632  0.0824
23715W        W39976   9.663  13.378   4.973 -0.0331 -0.1654 -0.1028
23716W        W39977  17.624  17.229   1.790  0.0240  0.0394  0.1486
23717W        W39978   7.431  11.770   1.815 -0.4434  0.0448 -0.0779
23718W        W39979   3.124   8.656   0.255 -0.0262  0.1469 -0.0644
23719W        W39980  12.576  14.894  16.157 -0.0471 -0.1100  0.2159
23720W        W39981  16.748   0.270   1.199  0.0159  0.1548 -0.0481
23721W        W39982   0.528  15.078   5.779  0.3693  0.0509 -0.1018
23722W        W39983   4.697   8.489   3.189 -0.2184  0.1644 -0.1184
23723W        W39984  14.433  11.063   5.458 -0.0746  0.1406  0.3021
23724W        W39985   2.975  14.935  15.538 -0.1077 -0.0511  0.0734
23725W        W39986   3.137  14.580   3.846 -0.0130  0.0417  0.2250
23726W        W39987   3.410  14.925   2.607 -0.0826 -0.0417  0.2093
23727W        W39988   3.338  10.421   4.103  0.1768  0.0434 -0.2125
23728W        W39989  14.252  10.683  16.661  0.0938  0.2919 -0.1603
23729W        W39990   5.353   4.283   2.914  0.1073 -0.1278  0.0381
23730W        W39991   5.153   0.583   1.703 -0.1123 -0.3860 -0.0653
23731W        W39992   5.784   8.430  13.505  0.0377 -0.2289 -0.0381
23732W        W39993  16.267   5.575  13.090 -0.2599 -0.0446  0.0703
23733W        W39994   7.258   5.769  11.732 -0.0870  0.1525 -0.2804
23734W        W39995   1.814   2.214   2.422 -0.3051 -0.0088 -0.1773
23735W        W39996  16.042  13.506   5.979  0.0368 -0.0344 -0.1961
23736W        W39997  14.838   5.622  11.916  0.0318 -0.0776 -0.2147
23737W        W39998  17.387   3.752   5.630  0.1453 -0.0643  0.1054
23738W        W39999   2.831   5.967   1.622  0.1151  0.2613 -0.1251
23739W        W40000   6.229   1.209  15.478 -0.0738  0.1789  0.0719
23740W        W40001  17.094   3.378   6.323 -0.2003  0.1717 -0.2559
23741W        W40002   7.756   2.798   5.102  0.1861 -0.0460  0.2301
23742W        W40003  17.347  16.135   3.025  0.0319  0.0005 -0.1693
23743W        W40004   8.150  10.332  15.794 -0.1734 -0.1955 -0.0125
23744W        W40005  16.515   2.399  15.747  0.1513 -0.1946  0.0055
23745W        W40006   7.455  10.987   2.658  0.0110  0.2076 -0.0651
23746W        W40007   0.511   4.303   2.029 -0.0017  0.0138  0.2421
23747W        W40008   3.049  17.715  11.926  0.1157  0.0158 -0.1067
23748W        W40009  11.685   1.699   1.349 -0.1148 -0.1484 -0.0657
23749W        W40010  10.906   4.080  12.775  0.1399 -0.1436  0.0689
23750W        W40011  13.871   5.400   0.379 -0.0208  0.1512 -0.0385
23751W        W40012  12.240  12.731  16.832 -0.0560 -0.4331  0.0793
23752W        W40013  15.827  11.151   4.562 -0.1347  0.2619  0.0967
23753W        W40014   8.550   5.688   5.692 -0.0006 -0.0285  0.1455
23754W        W40015   5.100   8.794   0.419  0.2442  0.1060  0.1479
23755W        W40016   5.452   9.927  15.380  0.0040  0.5607 -0.3127
23756W        W40017   8.153  14.926  13.223  0.0623  0.4252  0.1370
23757W        W40018   5.822   3.978  11.789  0.0038 -0.0225  0.1266
23758W        W40019  14.045   1.070   3.306 -0.1515 -0.0090  0.1013
23759W        W40020  14.104   8.734   4.505 -0.0241 -0.0411  0.0970
23760W        W40021  12.557  12.876   2.066  0.3101 -0.0471  0.4521
23761W        W40022   2.290  10.594   1.828 -0.2478 -0.2178  0.0385
23762W        W40023  10.279  10.736  13.275  0.1526  0.0679  0.4320
23763W        W40024  16.641  15.966  13.455 -0.4823  0.2041  0.2467
23764W        W40025   3.717   9.624   6.892 -0.1979 -0.1503 -0.6002
23765W        W40026  12.539   1.953  12.351  0.1521  0.1508 -0.4269
23766W        W40027   6.175   2.128   3.882 -0.0608  0.0343 -0.0564
23767W        W40028  15.893   0.254  12.311  0.0170  0.0673 -0.0694
23768W        W40029  12.718   9.301   4.778  0.0764  0.2293 -0.4563
23769W        W40030   4.520  13.517   4.160 -0.0177  0.1473  0.1010
23770W        W40031   8.269   2.267   4.084 -0.4359 -0.1922  0.0320
23771W        W40032   2.490  15.879  12.871 -0.1404 -0.1040  0.1005
23772W        W40033   0.177   9.175   2.736 -0.0313  0.0678 -0.0326
23773W        W40034   7.226  15.313  13.848 -0.4494  0.1309  0.3173
23774W        W40035  16.200   6.694   5.179 -0.2353  0.3589 -0.1267
23775W        W40036   8.836  10.821  12.435  0.0564 -0.1295  0.1405
23776W        W40037   5.900   7.270  16.734  0.0323  0.0396  0.1708
23777W        W40038   1.422  12.323   0.088  0.1834 -0.0318 -0.1183
23778W        W40039   6.499  17.083   2.196 -0.1551  0.1088  0.2336
23779W        W40040   3.108   1.395  14.176 -0.0741 -0.1089  0.0504
23780W        W40041   7.334   5.612   2.770  0.0579 -0.1109 -0.4700
23781W        W40042   4.471   0.979   2.039  0.1403  0.0005 -0.2024
23782W        W40043   6.989  13.471  14.422  0.1432 -0.1088  0.4574
23783W        W40044  17.214   2.217  12.521 -0.0059 -0.2759  0.0979
23784W        W40045   5.924   1.984  12.057  0.3639 -0.1011  0.3115
23785W        W40046  15.172  16.425   3.221 -0.0929 -0.4511 -0.0874
23786W        W40047  13.440   6.097  14.862 -0.2309  0.0100 -0.1324
23787W        W40048   6.607   5.516   2.374  0.1683 -0.1775  0.1140
23788W        W40049  15.893  16.584  13.455 -0.0563 -0.1014  0.1109
23789W        W40050  10.757  12.645   4.429 -0.1152  0.0925 -0.2319
23790W        W40051   7.043  17.576   3.224 -0.0460 -0.2726 -0.1350
23791W        W40052   1.040   2.793   2.535 -0.4131 -0.1005 -0.0102
23792W        W40053  10.049  16.603  13.642 -0.0245  0.2438  0.0950
23793W        W40054   8.984  14.789  15.798  0.1428 -0.1386 -0.2479
23794W        W40055   5.661  10.883  13.359 -0.2147  0.1840  0.0377
23795W        W40056   9.376   2.971  14.721  0.2633 -0.4654 -0.2764
23796W        W40057  11.464   5.726  16.794 -0.1238 -0.1041  0.2582
23797W        W40058   6.789   1.281   2.363 -0.1141 -0.1835 -0.2946
23798W        W40059   2.807   2.900  14.003  0.1838 -0.2269 -0.0871
23799W        W40060  12.363   9.062   1.925 -0.2865  0.0071 -0.1263
23800W        W40061  11.914  10.612   4.760 -0.2146  0.1572  0.0093
23801W        W40062  11.549  13.203   5.030 -0.2791  0.3960  0.3152
23802W        W40063   1.983  12.232  12.153 -0.0994  0.0051 -0.2942
23803W        W40064   0.750  13.100  11.597 -0.0426  0.2827 -0.2464
23804W        W40065  15.183   4.771   5.050 -0.0583  0.0884  0.1717
23805W        W40066   7.716   0.337   5.172  0.2729  0.1495 -0.2371
23806W        W40067   5.330   4.705   4.230  0.3719 -0.2356  0.4045
23807W        W40068  12.152  17.757   0.468  0.2196  0.2216  0.0737
23808W        W40069  17.399   7.095   6.090  0.3368  0.3974  0.2116
23809W        W40070  15.927  12.489   1.998 -0.3415  0.1780 -0.0064
23810W        W40071  11.210  16.073  12.651 -0.0485  0.1817  0.1796
23811W        W40072  13.597   5.655   4.892  0.1275 -0.1440  0.4201
23812W        W40073   7.432  11.967  16.093 -0.1636 -0.1463  0.0221
23813W        W40074   4.900   2.104   3.668 -0.0852  0.2674  0.1118
23814W        W40075   1.326   5.032   3.999 -0.1772 -0.2456  0.0332
23815W        W40076  16.014  16.236   5.432 -0.2490  0.1235  0.0997
23816W        W40077  17.449   2.447  14.623  0.2642  0.1335  0.1979
23817W        W40078  15.425  14.363   3.772  0.1664  0.0955  0.3324
23818W        W40079  11.972   8.917  11.340  0.2584  0.1124 -0.1670
23819W        W40080  11.997   2.599   2.313 -0.4980 -0.1520  0.2426
23820W        W40081   2.430  10.961  12.988 -0.3110  0.3578  0.1747
23821W        W40082  15.048  12.637   2.480  0.1028 -0.0105 -0.2174
23822W        W40083   8.396   3.389  14.413  0.1437 -0.1338  0.1684
23823W        W40084   7.593  16.172   0.552  0.2928  0.0717  0.0961
23824W        W40085   9.586  10.651   3.477 -0.1023  0.0408 -0.3109
23825W        W40086  17.313  12.318  13.218 -0.0131 -0.1332  0.0081
23826W        W40087   1.563   3.739  15.569  0.0553 -0.0160 -0.0728
23827W        W40088  12.221   6.753  11.132  0.0529  0.2941  0.1337
23828W        W40089  11.429   4.141  13.004  0.1527 -0.1744  0.0122
23829W        W40090   2.805   1.377   3.122  0.0491 -0.2162  0.0561
23830W        W40091   4.105   5.246   0.562  0.1647 -0.1435 -0.2289
23831W        W40092  12.544   7.265   6.036 -0.0218 -0.0037  0.2175
23832W        W40093   8.601  14.960   3.645  0.1730 -0.2466  0.0717
23833W        W40094   2.035   2.197  11.862 -0.1814 -0.0005 -0.1635
23834W        W40095  13.980   6.134   3.395  0.0163  0.0542  0.1270
23835W        W40096   0.082   3.639   0.698 -0.1179  0.1226 -0.2890
23836W        W40097  13.332  17.505  15.927 -0.0111  0.3641 -0.0079
23837W        W40098  10.241   7.923   2.718 -0.2525  0.3582 -0.1792
23838W        W40099   2.378   4.586   2.786 -0.1326 -0.1515 -0.0551
23839W        W40100  12.949  10.468   2.529  0.2071  0.2616 -0.1610
23840W        W40101   6.552  12.763  16.482  0.0129 -0.0369 -0.1904
23841W        W40102   9.695   8.947   1.098 -0.0782  0.1311  0.0273
23842W        W40103   0.470  10.382   3.585 -0.0017 -0.1532 -0.1659
23843W        W40104  13.466   4.189   0.283  0.0540 -0.1785 -0.2613
23844W        W40105  17.467   9.618   2.108 -0.0055  0.3326  0.0672
23845W        W40106   8.472  11.356  15.839 -0.0211  0.3080  0.0483
23846W        W40107  13.786  16.191   0.007  0.1056 -0.1351 -0.3185
23847W        W40108  10.850   7.785  16.797 -0.0649 -0.1124 -0.3112
23848W        W40109   3.239   5.702   3.746  0.1437  0.1981 -0.0255
23849W        W40110   9.255  15.241   5.742 -0.0982  0.3519  0.0134
23850W        W40111   5.124  11.412   0.408 -0.0523 -0.1221  0.2346
23851W        W40112  12.317   1.507   4.873  0.1061 -0.0996  0.1059
23852W        W40113  13.629  16.468   4.358  0.1334 -0.1312  0.3457
23853W        W40114   5.055   4.681  14.970  0.1520  0.0920 -0.1775
23854W        W40115  16.128   1.193  11.876 -0.0049 -0.1326 -0.3048
23855W        W40116   6.656  14.636   6.223  0.0542  0.0093 -0.1530
23856W        W40117   9.895  13.453   3.921  0.0351 -0.4645 -0.1455
23857W        W40118   8.421  12.339  12.364  0.2027  0.0114  0.0530
23858W        W40119   1.636  16.379  16.720 -0.0795  0.2136 -0.3069
23859W        W40120   6.025  14.473   2.069  0.0537 -0.3802  0.0193
23860W        W40121  11.356   5.597   4.046 -0.0301 -0.2510  0.0629
23861W        W40122   7.749  12.435   4.493 -0.1635 -0.0545  0.1503
23862W        W40123  12.652   7.595  14.919  0.1706 -0.2968  0.0359
23863W        W40124   0.368  16.139   3.349  0.0942  0.1792  0.2227
23864W        W40125  13.308   6.743   1.401  0.0785 -0.1578 -0.4194
23865W        W40126   6.759   6.289   4.525  0.0091  0.1479 -0.0734
23866W        W40127   8.237   4.393   5.422  0.0208 -0.2859 -0.0912
23867W        W40128   0.153  15.901  11.807  0.1374  0.0735 -0.2423
23868W        W40129  16.731  11.251   2.600  0.3102 -0.1961 -0.1855
23869W        W40130   4.254  17.061   4.461 -0.0364  0.2509  0.2458
23870W        W40131   4.457  14.650   5.760  0.4269 -0.2274  0.2040
23871W        W40132  15.667   3.567   1.223  0.2526 -0.0410 -0.2231
23872W        W40133   7.327   1.969  16.838 -0.0420  0.0541  0.1540
23873W        W40134   9.400  16.791  11.841  0.0474 -0.1859  0.2886
23874W        W40135   6.443   9.499   6.326  0.0408 -0.0336  0.3443
23875W        W40136  11.358   2.233   2.686  0.1858  0.0604 -0.1275
23876W        W40137   8.325  16.414   2.714  0.1021 -0.0424  0.1821
23877W        W40138   3.016  12.068  16.780 -0.0242 -0.2919 -0.1037
23878W        W40139   0.788   6.697  12.677  0.1071 -0.1802 -0.1904
23879W        W40140  12.564   5.179  13.051 -0.2552 -0.1505 -0.0553
23880W        W40141  15.686  15.978   2.270 -0.2589  0.0630 -0.0625
23881W        W40142   1.415   9.468   1.898  0.2725 -0.1362  0.3602
23882W        W40143  11.636   0.498  16.291 -0.1956 -0.0076  0.0934
23883W        W40144  12.769   0.239   0.022 -0.0292  0.0475  0.1711
23884W        W40145   9.621   9.206   5.261  0.1400 -0.0040 -0.1832
23885W        W40146  15.919  12.691   4.069 -0.0407  0.1096 -0.2068
23886W        W40147  13.662   7.605   3.237  0.0811 -0.1963 -0.0027
23887W        W40148   7.076   7.191   4.802 -0.0468  0.2456  0.0220
23888W        W40149   7.017   2.961   5.760  0.0944 -0.2421  0.0632
23889W        W40150   7.134  13.089   4.630 -0.1183 -0.0480  0.0383
23890W        W40151   1.668   1.463   2.626  0.0513 -0.0259 -0.0634
23891W        W40152   7.874   2.381  15.410  0.0617  0.1999 -0.1428
23892W        W40153  11.857  16.977   2.289  0.0480 -0.1387  0.1604
23893W        W40154  16.692   3.149   4.654  0.1014  0.2187 -0.1137
23894W        W40155   5.666   1.051   5.240  0.3742 -0.0442  0.1815
23895W        W40156  16.236  14.145  13.064  0.0458 -0.1269  0.0424
23896W        W40157  11.557  13.140   4.535  0.0189  0.1184  0.1495
23897W        W40158   6.879  13.053   5.426 -0.1767  0.3128 -0.2572
23898W        W40159  15.682  17.681  16.530  0.1202  0.1078  0.0245
23899W        W40160   9.144   4.563   4.136  0.1296  0.0072  0.0672
23900W        W40161  12.592   1.621   5.295 -0.2366  0.2801  0.2122
23901W        W40162  11.838   1.437   0.010 -0.1257  0.0463 -0.1137
23902W        W40163   3.927  10.408  13.653 -0.2582 -0.2076  0.3185
23903W        W40164   3.015   7.842  14.650 -0.1363  0.2020 -0.1339
23904W        W40165  10.420   7.465  14.509 -0.2355 -0.1533  0.2335
23905W        W40166  15.046   3.046   5.334 -0.3288 -0.1305  0.0157
23906W        W40167  14.345  16.297  14.757  0.0510  0.2358 -0.0658
23907W        W40168   7.506  11.945  12.537 -0.2401  0.0729  0.0950
23908W        W40169  16.029   8.133   3.258 -0.0221 -0.2272  0.2112
23909W        W40170   0.887   7.590   4.868 -0.0138  0.2630  0.1981
23910W        W40171   7.859   7.994   3.344  0.1339 -0.0276 -0.0025
23911W        W40172  13.148  14.157  12.403 -0.1535 -0.0947  0.0744
23912W        W40173   4.813   4.214  14.115 -0.0392 -0.1384  0.1998
23913W        W40174   0.603  11.745  13.824  0.3438  0.0691  0.0288
23914W        W40175   8.155   5.611   5.384 -0.2314  0.1298 -0.3808
23915W        W40176  13.860  15.558   2.460 -0.1108  0.1498  0.3187
23916W        W40177   0.468  15.625   5.564  0.2060 -0.2640  0.1105
23917W        W40178  12.475  14.659   5.113 -0.2588  0.1466  0.0330
23918W        W40179  13.855  17.281   5.865  0.1524  0.1120  0.0094
23919W        W40180   8.874   4.425   0.139  0.5892  0.0361 -0.2293
23920W        W40181  11.253  15.809  13.682 -0.1437 -0.4540 -0.1376
23921W        W40182   1.510   6.253   3.128 -0.0678 -0.1736 -0.2852
23922W        W40183  12.555  17.811   2.736  0.2098  0.2088  0.3424
23923W        W40184  15.138   6.259  14.786 -0.1116 -0.1332 -0.4303
23924W        W40185  15.931   3.606   3.438  0.2797 -0.0672 -0.4098
23925W        W40186  10.298  16.732  12.998  0.1366  0.4958  0.2756
23926W        W40187  13.779  16.961  16.276  0.2538 -0.0277  0.0236
23927W        W40188   2.799   4.809  13.464 -0.1102 -0.3403 -0.0696
23928W        W40189  10.472  10.734  12.761  0.0274 -0.1755 -0.0819
23929W        W40190  11.194  10.974   4.675 -0.0160 -0.0037 -0.2221
23930W        W40191   3.406   7.862  16.028 -0.0603 -0.1280  0.0315
23931W        W40192   6.363   8.273  15.273  0.2247 -0.2068  0.0970
23932W        W40193  11.705   9.351   1.184  0.4280 -0.1359  0.0583
23933W        W40194   9.467  14.145   5.378 -0.0373  0.2454 -0.2945
23934W        W40195   6.796  15.872  11.722 -0.0724 -0.1330 -0.0947
23935W        W40196  10.283   3.859  14.023 -0.0828  0.1319 -0.0791
23936W        W40197  13.443  15.982   5.514 -0.2392  0.2268 -0.1003
23937W        W40198   9.209   9.540  12.826  0.0404  0.0516  0.0117
23938W        W40199  15.963   9.909  14.718 -0.0284  0.2329 -0.0698
23939W        W40200  17.647  11.854   4.817  0.0817 -0.1930 -0.0205
23940W        W40201  11.209   5.546   2.867  0.2036 -0.0394 -0.4717
23941W        W40202   7.251  13.759   4.596  0.3083  0.0256 -0.1900
23942W        W40203   6.204   1.987   2.973  0.0637  0.2932 -0.3826
23943W        W40204   2.168   6.953   5.167 -0.1968 -0.0775 -0.0745
23944W        W40205   2.543   1.837   0.491 -0.1454  0.0072 -0.2413
23945W        W40206   7.022   6.218  12.859  0.1380 -0.4073 -0.1749
23946W        W40207   7.551  11.376   3.074 -0.0226 -0.1203  0.1805
23947W        W40208  12.616   0.469   2.809 -0.1061  0.0668 -0.0754
23948W        W40209   8.230   2.613  12.052 -0.0800  0.2397 -0.0547
23949W        W40210  11.918   3.395  15.026 -0.2170  0.0527 -0.0231
23950W        W40211  13.441   2.310   4.565 -0.1431  0.2471  0.1247
23951W        W40212   6.443  10.951   2.903 -0.1581  0.3687  0.0017
23952W        W40213  15.164   7.059  11.637 -0.0765  0.0619  0.0771
23953W        W40214   8.162   5.046   3.098 -0.1691 -0.0180 -0.0535
23954W        W40215   4.841  17.452   1.504  0.1123  0.2340  0.1300
23955W        W40216   6.256  16.579  13.142  0.3724  0.2716 -0.1922
23956W        W40217  13.343  15.343   3.384 -0.4398  0.0058  0.1437
23957W        W40218   9.149   6.526  14.633 -0.3489 -0.0051 -0.2846
23958W        W40219  13.588   5.947  14.412 -0.0252  0.0143  0.0405
23959W        W40220   8.064   9.931  15.496  0.1412 -0.1939 -0.2035
23960W        W40221   4.550  15.584   0.453  0.1979 -0.2034  0.2002
23961W        W40222  15.744   8.422   5.308 -0.1997  0.1623  0.0077
23962W        W40223  11.048  10.766  11.650 -0.2030 -0.1392  0.1374
23963W        W40224  12.485   7.598  12.276  0.1200  0.0488  0.0703
23964W        W40225   6.163   4.211  16.455 -0.1330 -0.1011 -0.1707
23965W        W40226  14.251  12.043  13.412  0.1156  0.1323 -0.0766
23966W        W40227   1.041  14.578   1.715  0.1424 -0.0156  0.0899
23967W        W40228   8.693   3.420  16.861  0.0938  0.0340 -0.1193
23968W        W40229   7.276   2.875   4.822  0.1879 -0.1169 -0.2061
23969W        W40230  11.982  12.475  12.428 -0.1916 -0.4566 -0.0920
23970W        W40231  10.434  16.219   4.947 -0.1949  0.0099 -0.0485
23971W        W40232  16.682   4.526   5.527 -0.1560 -0.2211 -0.0775
23972W        W40233  10.707   3.550  13.122 -0.1882  0.2740  0.0861
23973W        W40234  12.426   9.881   0.233  0.4372  0.1308  0.5019
23974W        W40235  12.664  16.796  16.807  0.1893  0.0201 -0.0526
23975W        W40236  17.124  10.751   2.027 -0.1739 -0.1962 -0.0389
23976W        W40237  16.150   7.074  13.293  0.3297 -0.1661  0.3928
23977W        W40238   5.821   6.123  11.715 -0.0404 -0.1648 -0.3307
23978W        W40239  16.194   8.134  12.006 -0.0986 -0.1170 -0.0740
23979W        W40240  14.267  16.751   2.627  0.3771 -0.0090  0.2548
23980W        W40241  15.580   5.722  12.033 -0.2267  0.0286 -0.0960
23981W        W40242   8.360  15.854   5.464 -0.0625 -0.2084 -0.0336
23982W        W40243  15.123  17.080   5.503  0.2669 -0.2542 -0.1902
23983W        W40244  17.238  11.339  12.471 -0.1755  0.1349 -0.3931
23984W        W40245  12.251   1.970   0.232 -0.1918 -0.1434 -0.0889
23985W        W40246  16.884  10.025  15.513  0.2129  0.0683 -0.0435
23986W        W40247  12.481   8.892   0.486 -0.0265 -0.0638 -0.0091
23987W        W40248   3.544  13.352   2.671 -0.2517  0.2016 -0.0840
23988W        W40249   7.407   5.542  13.984  0.1447 -0.2554 -0.0331
23989W        W40250   1.929   7.741   3.209 -0.0697 -0.1255  0.0433
23990W        W40251   4.314  15.601  12.609  0.1855 -0.0926 -0.0202
23991W        W40252  15.789   9.075  11.973 -0.1070 -0.1869 -0.0626
23992W        W40253   6.350  15.765   4.032 -0.0042  0.0063 -0.1711
23993W        W40254   1.628  17.698  11.729 -0.2824  0.0593  0.1631
23994W        W40255   6.865  12.708   2.708  0.0600 -0.2381 -0.1890
23995W        W40256   2.548  13.399   3.680 -0.6378 -0.1364 -0.3699
23996W        W40257   3.754  13.362  12.047  0.1865  0.0537  0.0502
23997W        W40258  16.505  10.587  12.172  0.1370 -0.1010  0.2053
23998W        W40259  14.922   5.351   0.163  0.2714  0.2488  0.0376
23999W        W40260  16.281  13.103  13.318  0.0093 -0.1492  0.1363
24000W        W40261   0.851  16.380   3.537 -0.1932 -0.0488  0.0744
24001W        W40262  17.693   6.126   1.687  0.0816 -0.2671  0.0348
24002W        W40263  10.705  17.749  15.117 -0.1069  0.1814  0.0633
24003W        W40264   5.038  10.688   2.815 -0.1503  0.1147 -0.0151
24004W        W40265   1.327  14.106  15.346  0.0030  0.0857 -0.1027
24005W        W40266  16.371   9.761  11.872 -0.1362 -0.1164  0.2919
24006W        W40267   5.240   0.775   2.605 -0.2902  0.2168  0.1985
24007W        W40268  11.182  14.182   3.175  0.1133 -0.1334  0.4268
24008W        W40269  16.261  13.086  11.834  0.2970 -0.3496 -0.1226
24009W        W40270  11.470   9.392   1.627  0.1031 -0.0446 -0.1527
24010W        W40271   4.535   9.432  13.629 -0.0402  0.0234 -0.0836
24011W        W40272   4.014   6.256   4.452 -0.1458  0.0581  0.1777
24012W        W40273   2.275   3.901  12.566 -0.1119  0.2327  0.2251
24013W        W40274  15.057  10.696  12.740 -0.2233  0.3087 -0.2920
24014W        W40275  12.174   3.812   4.082 -0.1783 -0.1676  0.1804
24015W        W40276   4.407  16.385  14.045 -0.0654 -0.0385 -0.1893
24016W        W40277  14.366   9.280  11.538  0.0005  0.2475  0.1589
24017W        W40278  10.232  14.366  13.401 -0.0617 -0.0751  0.0804
24018W        W40279   6.695  11.429   2.774  0.0151 -0.1392  0.2796
24019W        W40280  11.802   6.203  16.800  0.2353  0.0226  0.0017
24020W        W40281  13.998   0.384   6.131  0.1425  0.1868  0.1287
24021W        W40282  13.733   3.576   5.084  0.3114  0.3867  0.0367
24022W        W40283   5.999   7.481  13.332 -0.1045 -0.5044 -0.1501
24023W        W40284   1.828  15.067  14.444 -0.1158  0.0247  0.0058
24024W        W40285  13.444  12.717  12.798 -0.0625  0.1473  0.0737
24025W        W40286  14.390   8.744  14.018 -0.0966 -0.1239  0.2100
24026W        W40287   6.643   9.463  16.552 -0.0670 -0.1149 -0.1955
24027W        W40288  14.165  16.477   0.844 -0.1596 -0.4713  0.2675
24028W        W40289   1.569   1.386  12.979 -0.3071 -0.1957 -0.1498
24029W        W40290   6.582   4.885   3.851  0.0007 -0.1397 -0.0555
24030W        W40291   0.718   2.109   0.277  0.2418  0.0672 -0.1258
24031W        W40292   9.673  13.807   5.796  0.2673 -0.0595 -0.1848
24032W        W40293   6.666   4.227   2.959  0.1312  0.1610 -0.1717
24033W        W40294   9.197  16.435  15.839  0.0023  0.0165 -0.1226
24034W        W40295  16.590  11.973  13.778  0.0580  0.0665 -0.1124
24035W        W40296  14.670   8.674  16.636  0.0526  0.0392  0.1068
24036W        W40297  16.560  13.039  10.992  0.1907 -0.3068  0.0019
24037W        W40298   2.364   7.181   3.074 -0.2251 -0.1072  0.1342
24038W        W40299  15.503   5.198  14.941 -0.0707  0.0857 -0.3908
24039W        W40300  13.801   5.082  13.470 -0.4214  0.0719 -0.3021
24040W        W40301   5.015  16.448   0.006  0.1268  0.1754 -0.0951
24041W        W40302   5.009   1.172   3.863  0.0626 -0.1154  0.0099
24042W        W40303   0.001  11.686  13.158  0.0400 -0.2742 -0.1063
24043W        W40304  17.533   1.698  13.103  0.0542 -0.0559  0.1234
24044W        W40305  11.306   9.096  14.665  0.0445 -0.2495  0.1136
24045W        W40306  11.982   1.336   1.630  0.0560  0.0704 -0.0110
24046W        W40307  13.151  10.300   2.979  0.0030 -0.0850  0.0030
24047W        W40308   3.444   3.577   1.688 -0.1897 -0.2975  0.1032
24048W        W40309   7.317   1.421   1.677 -0.0483  0.0845  0.3867
24049W        W40310  10.264  10.573   1.292  0.3750 -0.3546 -0.0408
24050W        W40311  12.640  14.102  14.916  0.0412 -0.3112  0.0691
24051W        W40312  16.060  15.730  11.819 -0.1767  0.0656 -0.1263
24052W        W40313   1.506   0.053  12.232  0.2754  0.2669  0.0976
24053W        W40314  12.854   4.252  15.557  0.2110  0.2585 -0.0745
24054W        W40315  16.382   3.083   1.392 -0.2077  0.2109  0.0570
24055W        W40316   4.378  16.639   1.821  0.0558  0.0166  0.3059
24056W        W40317   6.852  15.666   3.441  0.1046  0.1720  0.1207
24057W        W40318  13.773   2.940   3.951  0.1370 -0.0429  0.0219
24058W        W40319   1.208   3.717   5.770  0.2814 -0.0582 -0.0269
24059W        W40320  15.177  15.106   3.035 -0.0686  0.0819 -0.1001
24060W        W40321  14.150   9.029   1.998  0.0833 -0.1859  0.1035
24061W        W40322   8.417   4.184   1.280  0.1653 -0.0541 -0.0422
24062W        W40323  15.604   9.005   0.757  0.1335 -0.1668  0.1953
24063W        W40324   7.812  14.415  13.809 -0.0345  0.2127 -0.0734
24064W        W40325  12.201   9.438   2.238 -0.0616 -0.0691 -0.1528
24065W        W40326   2.823   1.726   4.655  0.1828  0.0910 -0.0033
24066W        W40327   7.070   0.152  16.509 -0.1219 -0.2533  0.2066
24067W        W40328   9.800   6.218   5.911 -0.0415 -0.0463  0.0364
24068W        W40329   3.365   3.515  12.284 -0.1454  0.0278 -0.1105
24069W        W40330  16.405   2.463  16.676  0.0580 -0.4140 -0.0657
24070W        W40331   7.312   0.677   1.102 -0.2242  0.0972 -0.2413
24071W        W40332   4.191  15.596  12.052 -0.0094 -0.0793  0.1755
24072W        W40333   3.761  13.163   2.222  0.1657 -0.1644 -0.0864
24073W        W40334   0.280  13.733   2.110  0.2096 -0.0213  0.1524
24074W        W40335  13.242   8.466   3.705 -0.0050 -0.0002  0.1314
24075W        W40336   1.368  13.853   2.403 -0.0506  0.0615 -0.0282
24076W        W40337  12.531   3.900   2.608 -0.0617  0.0256  0.0161
24077W        W40338   1.165   5.920   3.325 -0.0078  0.3919  0.0570
24078W        W40339   8.030  16.223  12.581  0.2699  0.0428  0.1336
24079W        W40340   8.179  13.861  10.759  0.2681 -0.0460 -0.0007
24080W        W40341   7.013  14.558   5.859  0.0430  0.1381  0.0979
24081W        W40342  16.402  13.085   5.962  0.3193 -0.0600  0.0018
24082W        W40343   7.348   3.067   0.017 -0.1246 -0.0488 -0.1451
24083W        W40344  12.317  14.553  14.897 -0.1898  0.1569  0.0077
24084W        W40345   1.142  17.613  14.308  0.0037 -0.2559  0.0587
24085W        W40346   4.542   1.528  13.040 -0.1096  0.0329 -0.0403
24086W        W40347  11.237   0.009   3.859 -0.2067 -0.2321 -0.0966
24087W        W40348   4.605   4.285   3.083  0.1963  0.1501 -0.0803
24088W        W40349   5.791  16.570   1.578 -0.3906  0.0767 -0.1718
24089W        W40350   3.303   0.416  14.730  0.0957 -0.0632  0.0934
24090W        W40351   5.148   1.091   0.460 -0.2298  0.2259  0.0178
24091W        W40352   8.850   0.432  12.444 -0.0669  0.1685 -0.1489
24092W        W40353   3.693  11.507   0.633 -0.1682 -0.2446  0.0276
24093W        W40354   6.543   2.834  12.100 -0.3335 -0.1724 -0.0030
24094W        W40355   7.131   9.812   3.316  0.3418  0.0128 -0.1486
24095W        W40356   5.156  13.635   3.003 -0.1656  0.0552  0.1336
24096W        W40357   5.641   3.564   1.551 -0.1389 -0.1509 -0.0970
24097W        W40358   7.799  14.404  15.171 -0.3163 -0.0369 -0.0269
24098W        W40359   5.796   3.117   5.095  0.1000  0.1752  0.1013
24099W        W40360  16.143   5.281   0.060  0.2192 -0.0233  0.1545
24100W        W40361  11.210  11.801   2.347 -0.1244  0.2007  0.0329
24101W        W40362  17.249  16.905  15.869  0.4000 -0.0178  0.2691
24102W        W40363   2.823   1.118  16.339 -0.1611  0.2393  0.0523
24103W        W40364   2.337   6.540  11.977 -0.1073 -0.2023  0.1200
24104W        W40365   3.928   9.930   3.332  0.0509  0.1377  0.0855
24105W        W40366   2.657  13.733   0.706  0.2045 -0.2386  0.0789
24106W        W40367   7.943  16.407  14.634  0.0928  0.0620 -0.1791
24107W        W40368   2.503   5.369  14.643  0.1229 -0.0577  0.2897
24108W        W40369  15.287   5.059   5.441 -0.0175  0.2541  0.2751
24109W        W40370   5.588   5.667  11.977 -0.3578  0.0336 -0.4793
24110W        W40371  17.452   3.007   4.557 -0.1135 -0.3330  0.1784
24111W        W40372   3.382  17.676   1.103  0.1609 -0.0338  0.3546
24112W        W40373  16.072   8.873   2.780 -0.1889 -0.0111  0.2751
24113W        W40374   2.571   3.398  14.651 -0.0650  0.0586 -0.1483
24114W        W40375  15.568  15.302   5.378 -0.1880 -0.1467  0.2845
24115W        W40376   0.968   9.208  15.642 -0.1583  0.2845 -0.1529
24116W        W40377   9.132   2.560  11.636 -0.3540  0.0833  0.0102
24117W        W40378   4.229   0.890  12.913 -0.1881  0.1289 -0.2371
24118W        W40379   0.558   6.370  13.012  0.1271 -0.2129 -0.0787
24119W        W40380   3.860   7.948   2.168  0.0524  0.0547  0.0454
24120W        W40381   6.935  13.049  12.002  0.1969  0.0274 -0.2004
24121W        W40382  11.896  13.063   5.926 -0.1731  0.0989 -0.0240
24122W        W40383   9.760  15.287   3.897  0.0360  0.0539 -0.1119
24123W        W40384  16.768   8.747  13.563 -0.0371  0.0763  0.1252
24124W        W40385   1.085  15.356   2.356 -0.0101 -0.0081  0.0925
24125W        W40386   7.606   0.508   4.449 -0.2624 -0.0518 -0.0214
24126W        W40387   2.390   7.322   2.447  0.0253 -0.0921  0.0274
24127W        W40388  17.235   9.669  15.384 -0.0223 -0.2529  0.2747
24128W        W40389  17.410  16.925   0.905  0.1221 -0.3023  0.0755
24129W        W40390  16.220   7.204   5.164 -0.2182  0.0825 -0.0060
24130W        W40391   9.701   1.072  12.723 -0.1871 -0.0304  0.0984
24131W        W40392   9.386   9.079  15.884  0.0362 -0.1385  0.1156
24132W        W40393  13.604   7.239  13.042  0.1420 -0.1059  0.0039
24133W        W40394  10.893   0.902  11.688  0.2128 -0.2149 -0.0216
24134W        W40395   7.882  15.358   2.527  0.0903 -0.2410  0.0012
24135W        W40396  15.353  17.002   3.259  0.0453  0.0505  0.0395
24136W        W40397  15.272   1.157   0.221  0.1441  0.1756  0.1338
24137W        W40398   8.555  14.305  14.175  0.1231  0.3629 -0.1133
24138W        W40399  15.899  11.161   0.914  0.1896 -0.2639  0.2910
24139W        W40400   6.799   4.304  12.333  0.2123 -0.0643 -0.1285
24140W        W40401   1.517  13.502   4.591 -0.0730  0.1846  0.1057
24141W        W40402  11.151   6.419  13.211 -0.1779 -0.1969 -0.1476
24142W        W40403  15.799   5.409   0.660 -0.3276 -0.0420  0.4321
24143W        W40404  16.701   2.694   1.328 -0.1732  0.2838  0.0854
24144W        W40405  15.920  11.073   1.435  0.1834 -0.0224  0.1419
24145W        W40406  17.829  13.393   5.278  0.0736 -0.0715 -0.0786
24146W        W40407  11.928  16.642   3.131 -0.1256  0.2724  0.1614
24147W        W40408  12.276   9.620  10.180 -0.1135 -0.0783 -0.2303
24148W        W40409   5.655  15.360  16.802 -0.1583  0.1130  0.1689
24149W        W40410   8.880  16.369   4.052  0.0031  0.0825  0.0407
24150W        W40411  14.555  16.874   1.654 -0.1828  0.2381 -0.1314
24151W        W40412   4.291  13.116  12.789  0.0232  0.2204 -0.0563
24152W        W40413   2.285   7.161   4.369 -0.1760 -0.0927  0.1189
24153W        W40414   5.931  17.725   3.878 -0.0778 -0.0787 -0.1242
24154W        W40415   3.146  12.652   3.238  0.2018  0.3363 -0.1210
24155W        W40416  14.589   4.794   1.412  0.1664  0.1170  0.0371
24156W        W40417   7.731   7.686   5.479  0.1349 -0.0906  0.0555
24157W        W40418  13.318   6.799   0.892  0.0126 -0.3746 -0.1271
24158W        W40419   0.395  12.233   0.835  0.0557 -0.1982  0.1376
24159W        W40420   2.837   9.687  15.972 -0.0312  0.1471 -0.2644
24160W        W40421  13.942   7.242   3.745 -0.1815  0.0033  0.0961
24161W        W40422  11.392   4.534   5.174 -0.2422  0.1451  0.1447
24162W        W40423  17.404  12.330   1.174  0.4705 -0.2483 -0.0607
24163W        W40424  15.566   9.589  14.368 -0.0105 -0.0016  0.0456
24164W        W40425  14.907   5.525   4.577  0.4285 -0.3141 -0.1270
24165W        W40426  15.028   9.854  11.817 -0.0362  0.1733  0.0626
24166W        W40427  15.728  16.001  15.138  0.1650  0.1365 -0.2045
24167W        W40428   0.535   1.718   3.389  0.0353 -0.2275 -0.3410
24168W        W40429   5.295  14.834   3.495 -0.1999 -0.0177 -0.0885
24169W        W40430   1.274  14.259  12.453  0.0065  0.0523  0.2944
24170W        W40431   5.148   0.718   3.963 -0.3390  0.0105  0.1334
24171W        W40432   9.168   5.849  13.758 -0.3180 -0.2628  0.1951
24172W        W40433   4.185  14.477  12.477 -0.0329  0.1842  0.0595
24173W        W40434  15.767   2.940  15.629 -0.0123 -0.1394  0.0146
24174W        W40435   9.971  16.068   5.724  0.0826  0.0721 -0.2926
24175W        W40436  12.826   2.287  12.551  0.0568  0.3187 -0.1648
24176W        W40437  14.023   5.760   5.896  0.0124  0.0059  0.0639
24177W        W40438  11.354  11.435   2.751 -0.1346  0.2474  0.0675
24178W        W40439  14.023   9.616  12.400 -0.0621 -0.1994  0.0670
24179W        W40440  11.088   5.324  14.701 -0.2712 -0.0705 -0.0654
24180W        W40441   4.189  14.517   3.001  0.2196 -0.0256  0.0842
24181W        W40442  13.984   1.692  13.041 -0.1936  0.0275 -0.0304
24182W        W40443   0.540  13.881  14.485 -0.1890  0.0636 -0.1411
24183W        W40444   9.901   1.501  12.951  0.1991 -0.0302 -0.0298
24184W        W40445   0.148   4.531   2.360 -0.0615 -0.0784  0.0808
24185W        W40446  13.320   0.370   3.253  0.1073 -0.0732 -0.1078
24186W        W40447   3.997   0.554  14.916  0.0244  0.1500 -0.0593
24187W        W40448  13.671  13.114   3.959 -0.0716  0.1414 -0.3041
24188W        W40449  10.821   4.437  12.456 -0.2307  0.2936 -0.0599
24189W        W40450  13.161  11.463   3.381 -0.0127 -0.3419  0.0940
24190W        W40451  13.422   6.592  11.814 -0.2557  0.1816 -0.2988
24191W        W40452   0.639   1.076  16.684 -0.2588  0.0930 -0.2050
24192W        W40453   5.953  14.988  16.685  0.0348  0.1427  0.0055
24193W        W40454   7.854   4.251  12.610 -0.1656 -0.2049  0.2671
24194W        W40455  14.674   1.101  16.559 -0.0034 -0.1762  0.2278
24195W        W40456  17.285   3.275   5.816  0.1275  0.3145 -0.0508
24196W        W40457  16.028   9.300   1.564  0.0146 -0.0240  0.1018
24197W        W40458   9.840  17.430   1.793  0.1320 -0.1398  0.1111
24198W        W40459  16.989   2.755  15.701 -0.1586 -0.0457 -0.1594
24199W        W40460  12.866  13.074   0.665  0.1138 -0.0140  0.0514
24200W        W40461  10.934   5.961   5.258 -0.1818 -0.1394  0.1366
24201W        W40462   6.393  10.697   3.453 -0.1917  0.0819 -0.0308
24202W        W40463  15.588   3.832  15.872  0.0166 -0.0743 -0.2364
24203W        W40464   3.533   4.010   1.922 -0.0859  0.0959  0.1106
24204W        W40465  15.413  12.939  14.416  0.1010 -0.0689  0.0951
24205W        W40466  15.787   5.724   5.551  0.1575  0.0115 -0.0118
24206W        W40467   9.893   8.932   2.652  0.1237 -0.0678  0.0665
24207W        W40468   5.266   0.844   5.562  0.0886 -0.0395  0.0279
24208W        W40469  10.548  17.626   5.428  0.1397  0.0695 -0.0033
24209W        W40470  14.120   0.169   1.905  0.0522 -0.0564 -0.0346
24210W        W40471  10.746  13.134   4.481 -0.0917 -0.0231  0.2465
24211W        W40472   2.669   5.497  16.966 -0.1519 -0.0839  0.0106
24212W        W40473   7.542  14.308  13.402 -0.0813  0.3888  0.2072
24213W        W40474   9.312   9.019   2.645 -0.0452 -0.3390 -0.1643
24214W        W40475  13.685   7.349   0.397  0.2611 -0.1709 -0.2415
24215W        W40476   6.283  11.772  16.386 -0.0942 -0.0940  0.0695
24216W        W40477  17.726  13.685   6.244  0.2762  0.0054  0.0317
24217W        W40478   6.198   3.882   0.853 -0.0690  0.2848  0.0001
24218W        W40479   1.656  16.456   3.595 -0.2068  0.0533 -0.1958
24219W        W40480   5.400  17.704  14.873 -0.4344 -0.1497 -0.0420
24220W        W40481  15.568   6.246   0.795  0.0350  0.1291 -0.2435
24221W        W40482   5.231   4.336   5.090  0.1331 -0.1484 -0.1469
24222W        W40483   0.503   3.731  16.395 -0.1140 -0.1228 -0.1045
24223W        W40484   2.533   5.240  16.027 -0.3465  0.2610 -0.0313
24224W        W40485   1.905   3.769  13.271 -0.2770 -0.3079 -0.0120
24225W        W40486   7.101  16.600  11.233  0.1641 -0.1399  0.1251
24226W        W40487  10.804   8.864   5.969 -0.2224 -0.0591 -0.0976
24227W        W40488  12.238  13.862   4.880 -0.1337  0.1133 -0.1763
24228W        W40489   4.034  10.938  13.585 -0.0128 -0.0729 -0.0096
24229W        W40490   1.068  11.715   4.600  0.1155 -0.1009  0.0983
24230W        W40491   1.743   7.503   3.746 -0.1326 -0.0932  0.0718
24231W        W40492  14.639   1.665   1.266 -0.1552  0.2542 -0.3624
24232W        W40493  13.844  17.658  12.651  0.3461 -0.2264  0.2601
24233W        W40494  12.713   1.992  16.480 -0.0462 -0.1287 -0.0811
24234W        W40495   9.766   9.255   4.012 -0.0389 -0.4206  0.2852
24235W        W40496   2.944  10.875  12.151  0.2480  0.1475  0.2774
24236W        W40497  14.793  13.491   6.065  0.2251 -0.2069  0.1434
24237W        W40498   6.729  15.323   1.134 -0.2421  0.0407  0.1206
24238W        W40499   1.863   2.352   5.247  0.1723 -0.1522 -0.1382
24239W        W40500  12.262   8.666  16.803  0.0659  0.2048 -0.0651
24240W        W40501  16.935  14.927  12.799  0.3164  0.0268  0.4002
24241W        W40502  16.010   5.435   5.206  0.0982  0.0884 -0.1379
24242W        W40503   2.297  17.584  13.485 -0.0433 -0.0640 -0.0530
24243W        W40504  12.529  16.083  13.815  0.0090 -0.0779 -0.0905
24244W        W40505  13.938   3.596  12.106  0.2006  0.2123 -0.1953
24245W        W40506   4.375  17.383   1.308  0.1902 -0.1581  0.3726
24246W        W40507  17.610   4.764   2.153  0.0208 -0.0541 -0.0942
24247W        W40508   8.127   5.657  14.530 -0.0665  0.2730  0.3361
24248W        W40509  14.005  13.604   1.832  0.0422 -0.2107 -0.0384
24249W        W40510   9.111   0.698   5.350  0.0273  0.2087 -0.0095
24250W        W40511  10.932   4.283  11.951  0.4239  0.3318 -0.1022
24251W        W40512  13.480   2.176  13.899 -0.1439 -0.1200  0.0667
24252W        W40513  11.032   3.613  14.610  0.1764  0.1238  0.0258
24253W        W40514  16.796  10.933   4.040  0.0401 -0.3122  0.1634
24254W        W40515   9.811   1.020   4.168 -0.0392  0.0065  0.2002
24255W        W40516  13.866  11.634  14.203  0.3086  0.1202 -0.3556
24256W        W40517   2.042   4.032   3.427  0.0367 -0.0775 -0.3774
24257W        W40518  10.979   7.144  15.929 -0.0348  0.1574  0.1385
24258W        W40519  14.900   2.376  13.334  0.0740  0.2371  0.0442
24259W        W40520   2.667   4.359  14.344  0.0429  0.0254 -0.2366
24260W        W40521  12.330  10.822  13.306 -0.1070 -0.1109 -0.0961
24261W        W40522  14.201   8.379  13.685  0.0391  0.2231 -0.0815
24262W        W40523  17.786  13.785  14.007  0.0436  0.0954 -0.1178
24263W        W40524   4.183   5.662   5.742 -0.1603 -0.2436  0.2670
24264W        W40525   0.743   8.177  16.451 -0.2307  0.1454 -0.1659
24265W        W40526   3.882   4.057   4.251  0.0054 -0.2788 -0.1156
24266W        W40527  11.054   0.515   2.386  0.0155 -0.2175  0.1973
24267W        W40528   3.803   3.435   3.054  0.2127 -0.2749 -0.0021
24268W        W40529   0.130  14.104   4.673 -0.0742  0.0196 -0.0903
24269W        W40530  13.960  14.284   4.485  0.2174  0.1490  0.0064
24270W        W40531   4.913  10.169   2.362  0.0995  0.2155  0.0227
24271W        W40532  16.944   0.984  14.957 -0.0744  0.1142  0.0193
24272W        W40533  11.331   6.387  12.613 -0.0082 -0.2504  0.0760
24273W        W40534   5.279  15.344  11.611 -0.1227 -0.1383  0.0720
24274W        W40535   4.143   3.776   2.523  0.0166 -0.2583 -0.2205
24275W        W40536   6.434  14.126   3.122  0.3850 -0.0440  0.2093
24276W        W40537   9.489  14.605  12.985  0.3327  0.2060  0.1533
24277W        W40538  14.104  15.899   2.756  0.0641 -0.0728 -0.0790
24278W        W40539  13.237   9.194   1.621  0.0250  0.2815  0.1298
24279W        W40540   9.645  10.224   3.794 -0.0071 -0.0777  0.3872
24280W        W40541   6.659  15.436  13.139  0.0576 -0.1845 -0.0327
24281W        W40542   3.385  16.989   2.315 -0.0952 -0.1208  0.1376
24282W        W40543  15.750   6.818   0.730  0.1759 -0.2271  0.0279
24283W        W40544   8.752  10.004  10.594  0.0539 -0.4620 -0.1009
24284W        W40545   1.458  15.728  11.969  0.2941  0.4443  0.4339
24285W        W40546   1.822  17.223  14.955  0.0544  0.0725 -0.1370
24286W        W40547   5.926   6.931   5.841 -0.0246  0.0407 -0.1857
24287W        W40548   3.793   0.264  15.572 -0.0990  0.2066  0.1552
24288W        W40549  14.343  11.263   0.060 -0.0256 -0.0395  0.1520
24289W        W40550   2.848  13.729   3.406 -0.2935  0.1165  0.2440
24290W        W40551   6.165   7.800  16.506  0.1316  0.4174 -0.1166
24291W        W40552   6.573   3.270   1.923 -0.1165 -0.0572  0.1431
24292W        W40553   5.233  16.058   0.404  0.1784  0.1953  0.0877
24293W        W40554  11.535  17.799  12.346  0.0694  0.3001  0.2127
24294W        W40555  13.061   1.489   0.753  0.0398  0.2051 -0.1015
24295W        W40556   0.121   2.049   0.431  0.0029  0.0759  0.3080
24296W        W40557   0.040   8.033  15.330  0.0686  0.0994  0.3759
24297W        W40558  14.713   6.967  16.350  0.1924 -0.2297 -0.1302
24298W        W40559  16.196  17.284  13.948 -0.1934 -0.1778  0.0536
24299W        W40560  12.736  14.292   4.104  0.2222 -0.3852 -0.2359
24300W        W40561  12.275  10.598  15.530 -0.2410 -0.2317 -0.1901
24301W        W40562   9.977   8.472   3.430 -0.2162 -0.3702 -0.1869
24302W        W40563   4.969   0.610   5.245 -0.1367 -0.0348  0.0041
24303W        W40564   2.649  17.626  12.636 -0.0718  0.1480  0.0579
24304W        W40565  16.765  16.977   2.795  0.1867  0.1782 -0.3203
24305W        W40566  11.859  17.622   1.984 -0.0571 -0.0344 -0.0676
24306W        W40567   2.637   2.285   1.156 -0.0362  0.1318  0.1627
24307W        W40568   6.390  14.574  15.185  0.2662  0.3703  0.1884
24308W        W40569   3.550   2.541   1.092  0.1010  0.1331 -0.1191
24309W        W40570   4.886   1.399   0.155 -0.2049  0.0926  0.2782
24310W        W40571   4.016  13.380   3.446  0.3234  0.0403 -0.1006
24311W        W40572  15.424   0.181  13.650 -0.1103 -0.2851 -0.4770
24312W        W40573  10.279   4.881  12.136 -0.1092  0.0926 -0.0310
24313W        W40574  10.771  13.269  13.344 -0.1578 -0.1580  0.1494
24314W        W40575   3.645  17.371   3.633  0.1699  0.2708  0.1851
24315W        W40576  16.702  11.993   1.779  0.1111  0.1075  0.0069
24316W        W40577  15.596   2.566  16.024  0.0321  0.2955 -0.1876
24317W        W40578   0.712  12.786   0.135  0.1253 -0.0420 -0.0951
24318W        W40579   5.644   0.175  12.460  0.0485 -0.0075  0.1117
24319W        W40580  15.632  13.287   3.160 -0.2477  0.0994 -0.1903
24320W        W40581   3.729   7.875  16.454  0.0355 -0.1147  0.2123
24321W        W40582   0.085   6.877  14.054  0.0821  0.2704 -0.0299
24322W        W40583  13.914   2.376   4.625 -0.1700 -0.0783  0.3067
24323W        W40584  11.073  13.392  13.725 -0.0818  0.1292  0.2452
24324W        W40585   8.508   8.489   3.452  0.0810  0.1329  0.0670
24325W        W40586   0.255  16.196  15.826  0.0857 -0.0181  0.0548
24326W        W40587   2.271  13.021   0.469  0.2057 -0.0554 -0.2468
24327W        W40588   8.562  16.672   1.135 -0.3674 -0.0161  0.0861
24328W        W40589   4.812   9.840  16.182  0.1448 -0.2272 -0.3084
24329W        W40590   8.154   0.844   3.445  0.2899 -0.0416 -0.0363
24330W        W40591   8.505  11.464   6.600 -0.2555 -0.1088 -0.1982
24331W        W40592   8.276   7.484   2.111  0.3700  0.2172 -0.0696
24332W        W40593   4.467  16.433  15.161 -0.2216  0.0188  0.1831
24333W        W40594   5.086  14.819  15.133 -0.1421 -0.0713  0.0208
24334W        W40595  17.036   3.562   1.927 -0.1985  0.0268 -0.0998
24335W        W40596   6.825   2.375  12.115  0.0022 -0.2484  0.0828
24336W        W40597   9.761  10.265  16.540  0.2477  0.3017 -0.1630
24337W        W40598  17.803  13.319   5.898  0.1353 -0.0990  0.1063
24338W        W40599   5.583  16.390   3.583 -0.0851  0.0849  0.1022
24339W        W40600  10.633   8.026  12.390  0.0948 -0.0085  0.1245
24340W        W40601   8.952   4.631   2.743 -0.0955  0.1055 -0.0609
24341W        W40602   7.111   9.664  13.617 -0.3093 -0.0356  0.2046
24342W        W40603   1.222  15.672  16.950  0.2252  0.2091  0.1994
24343W        W40604  10.559   8.981   3.644  0.2766  0.2932  0.0360
24344W        W40605   9.498   9.844  15.241 -0.0808 -0.0928  0.0775
24345W        W40606  14.648   5.348   1.356  0.3745  0.3248 -0.1442
24346W        W40607   6.938  10.052   1.400  0.2692 -0.2267 -0.0957
24347W        W40608  15.472  11.394   0.970 -0.3262  0.3172  0.2111
24348W        W40609  15.616  16.244   4.358 -0.3824  0.3001 -0.2649
24349W        W40610   2.104  10.958   2.099  0.0254 -0.3133 -0.2401
24350W        W40611   4.022  11.612   4.619 -0.0011 -0.0340  0.0343
24351W        W40612   3.537   1.342   6.510 -0.1248 -0.0168 -0.2820
24352W        W40613   7.726   9.854  12.201  0.1497  0.0840  0.0810
24353W        W40614   9.387   1.857  16.275  0.1840 -0.2713 -0.1359
24354W        W40615   3.888  12.904   0.473 -0.0350  0.0962 -0.0004
24355W        W40616  16.504  14.138  15.462 -0.2983 -0.1867 -0.1348
24356W        W40617   3.029  11.320  13.012 -0.0518 -0.1363 -0.1924
24357W        W40618   6.084   8.732   1.309 -0.0423 -0.1707  0.2267
24358W        W40619  15.903   8.267   0.573  0.2403 -0.0347  0.2068
24359W        W40620  16.828  10.866  13.175  0.4616  0.0681  0.1859
24360W        W40621   5.610   2.273   5.087 -0.0492  0.2241 -0.0830
24361W        W40622   2.980  12.347  11.945 -0.3851  0.1802  0.3543
24362W        W40623   5.249   9.760  12.528  0.2522 -0.0930 -0.2425
24363W        W40624   8.153  14.531  16.889 -0.2343 -0.0584 -0.1351
24364W        W40625   4.446   8.070   4.060  0.0672  0.0097  0.0150
24365W        W40626  16.555  12.679  14.389  0.0747 -0.0151 -0.2521
24366W        W40627  13.686   6.858   0.523  0.0837 -0.0615  0.0684
24367W        W40628  16.049  15.271   2.379  0.1852 -0.3263 -0.2952
24368W        W40629  10.937  12.160  15.911 -0.1626 -0.2654  0.1507
24369W        W40630  12.597   3.998  13.269  0.1333 -0.0324 -0.1486
24370W        W40631   2.931   5.555  12.423  0.4750 -0.1101 -0.4551
24371W        W40632   5.280   3.839   5.071 -0.0862  0.0930  0.3403
24372W        W40633   3.382  13.501  13.830  0.0874 -0.0447 -0.0654
24373W        W40634   9.491   0.643  16.486 -0.1315 -0.0533 -0.3137
24374W        W40635   4.242   1.908  11.285  0.2385  0.0711 -0.3689
24375W        W40636   2.177   8.285   1.826 -0.0119  0.1962 -0.2080
24376W        W40637  16.118   3.174   2.234  0.0954 -0.0766  0.0806
24377W        W40638   7.484   4.608   3.258 -0.2879  0.0266  0.0312
24378W        W40639  17.845   5.151  13.016 -0.0971  0.1386  0.2667
24379W        W40640   0.677   8.602   0.300  0.5352 -0.1091 -0.0403
24380W        W40641   8.666  15.470   3.279 -0.1219 -0.2037  0.0074
24381W        W40642  13.130   4.342  12.052 -0.3978 -0.2074 -0.1717
24382W        W40643   9.942   6.233   3.625  0.0455 -0.0527 -0.3200
24383W        W40644  13.060   1.477   5.054  0.4229  0.1690 -0.0092
24384W        W40645  10.335   7.314  11.636  0.0970 -0.0235  0.1370
24385W        W40646   1.045  13.669   4.719 -0.0732 -0.1588 -0.1025
24386W        W40647   5.318  13.647   3.508 -0.0396 -0.0257 -0.0291
24387W        W40648   9.962   0.791  13.641 -0.0831  0.0557  0.1408
24388W        W40649   4.381  13.731  16.508 -0.0643  0.0503 -0.0416
24389W        W40650   9.450  17.707   1.936 -0.4362  0.0090 -0.2802
24390W        W40651  10.773  13.943   5.027  0.0688 -0.0277  0.3889
24391W        W40652  17.823  12.835  16.616 -0.0084 -0.0784  0.1542
24392W        W40653   4.064  13.689   3.077 -0.0758 -0.1457 -0.1504
24393W        W40654  12.929  11.831  14.343  0.1180 -0.0914 -0.0444
24394W        W40655   5.074   7.609   2.917  0.1433 -0.0348  0.2843
24395W        W40656  10.037  11.233  16.055 -0.0696  0.0522 -0.0816
24396W        W40657   5.054   7.248  14.641  0.1712 -0.2024  0.1259
24397W        W40658   9.622  17.711  16.126 -0.0322 -0.0719  0.2704
24398W        W40659   8.184   8.872   1.020 -0.1988 -0.0511 -0.0114
24399W        W40660   4.432  13.157   3.743 -0.0077  0.0814  0.4233
24400W        W40661  11.416   9.546  11.784  0.0285  0.1388 -0.1109
24401W        W40662   6.983   6.201  13.352 -0.0341  0.0489 -0.1549
24402W        W40663  14.904   8.059  13.686 -0.0594  0.2141 -0.0318
24403W        W40664   7.826   1.423   1.562  0.1375 -0.3136  0.1229
24404W        W40665   8.644   3.987  12.563  0.0466 -0.0218 -0.0066
24405W        W40666   5.450  10.769   4.898  0.1228 -0.1165 -0.1038
24406W        W40667   0.113   8.690  12.206 -0.1979  0.2782 -0.0357
24407W        W40668   7.892   2.132   5.483 -0.1964 -0.0709 -0.0162
24408W        W40669   3.723  15.786  11.849 -0.1696  0.3841  0.1230
24409W        W40670   5.223  11.236  12.773  0.0401 -0.0759  0.2102
24410W        W40671   4.400   3.651  15.279 -0.2761 -0.0845  0.1110
24411W        W40672  17.637  11.599   3.093  0.2047 -0.1063  0.0549
24412W        W40673   3.854  15.473  12.409 -0.1071 -0.0889  0.0683
24413W        W40674   0.956  12.930   1.149  0.1386  0.2457  0.0194
24414W        W40675   6.851   0.345   3.996  0.1278 -0.3540  0.0810
24415W        W40676  16.552  14.410   4.175  0.1526  0.0145 -0.2488
24416W        W40677  10.139  10.439  11.528 -0.0541 -0.1069 -0.2254
24417W        W40678   9.509   1.270  13.140  0.1081 -0.3157 -0.1745
24418W        W40679   2.550   4.977   5.602 -0.2937 -0.2274  0.0047
24419W        W40680  11.131  14.032   0.684  0.0551 -0.1788 -0.0834
24420W        W40681   5.174   3.172  13.388 -0.1483  0.0313 -0.4834
24421W        W40682  13.949   7.131  11.672 -0.1611 -0.1490 -0.1100
24422W        W40683   4.711   7.262  12.500 -0.0843 -0.3071  0.1234
24423W        W40684   8.906  11.603  15.584 -0.3613 -0.2807 -0.4436
24424W        W40685   9.120  13.735   4.035 -0.0662  0.2428  0.3083
24425W        W40686   1.018  15.421   1.801 -0.2580 -0.0660 -0.0374
24426W        W40687  14.947   6.569   5.356  0.0699 -0.2864  0.0182
24427W        W40688   1.795  16.355  13.979  0.1403 -0.0092  0.1181
24428W        W40689  12.253  15.867   1.579 -0.0177  0.1139  0.0434
24429W        W40690  16.310  10.267  11.429 -0.0514  0.1989  0.1374
24430W        W40691  13.782   8.176   0.352  0.2079 -0.0637  0.3853
24431W        W40692  15.897  16.690  12.385  0.0617 -0.1392  0.0046
24432W        W40693  15.055  12.267   4.074  0.2212  0.0133 -0.0431
24433W        W40694  15.940   8.549  12.070  0.0361  0.0763 -0.2263
24434W        W40695   5.591   5.659   1.506  0.2295  0.3071 -0.2268
24435W        W40696   7.519  14.011  15.377 -0.2353  0.3406  0.0526
24436W        W40697   5.305  16.769   0.261  0.1494  0.1318 -0.0001
24437W        W40698   6.415   3.384   0.852 -0.1541  0.3016  0.1025
24438W        W40699  15.333  10.392   1.207  0.1570  0.1515  0.0672
24439W        W40700  12.295   7.657  16.707  0.3837  0.0794  0.0465
24440W        W40701  15.221   2.025  14.774  0.1737 -0.2588  0.2342
24441W        W40702   7.381   4.601   5.731 -0.2001  0.2474 -0.1729
24442W        W40703  15.699   2.214   3.148 -0.1462 -0.6686  0.1042
24443W        W40704   0.366   6.932  13.041  0.3515 -0.0077 -0.2510
24444W        W40705   9.260   4.454  15.847 -0.0924 -0.0064 -0.3004
24445W        W40706   6.703  13.919  12.098  0.2218  0.1848  0.0608
24446W        W40707   5.697   9.491  16.191  0.2123 -0.0447  0.2192
24447W        W40708   4.348   1.162  13.927  0.3716  0.1386  0.2852
24448W        W40709   0.001   9.837   6.221 -0.1538 -0.0132 -0.0237
24449W        W40710   1.224   8.721  12.477 -0.0419  0.1120 -0.2071
24450W        W40711   5.392   4.517   1.155 -0.0398  0.0507 -0.1160
24451W        W40712  14.935   7.333  12.906  0.0257  0.1458  0.2273
24452W        W40713  11.436   9.413  14.139 -0.0161  0.0188 -0.0453
24453W        W40714  17.318   3.653  16.674 -0.3985 -0.3300  0.0213
24454W        W40715   7.130   3.839   4.145  0.0767  0.0910  0.0127
24455W        W40716  15.170   8.039   4.187 -0.0861 -0.4301 -0.0078
24456W        W40717  11.117   0.460  16.412 -0.0261  0.1283 -0.1608
24457W        W40718   5.772  11.664  14.327  0.0011 -0.0670 -0.0445
24458W        W40719   3.717  17.606  15.269  0.2291  0.0710 -0.4049
24459W        W40720   0.663   7.430   5.322 -0.3020  0.0178 -0.0246
24460W        W40721   9.306  12.081  14.447 -0.0770 -0.0317 -0.2226
24461W        W40722   8.851  15.667  15.249 -0.0353  0.0396 -0.0502
24462W        W40723  17.138  13.774   4.447  0.1795 -0.1486 -0.0813
24463W        W40724   7.616  14.047  14.866 -0.0736 -0.1712  0.1029
24464W        W40725  11.503  16.427  12.381  0.0746 -0.1166  0.0445
24465W        W40726  11.533  17.808   4.466 -0.0945  0.1644 -0.1805
24466W        W40727  13.298   3.834   5.043  0.0742 -0.0842  0.0423
24467W        W40728  12.910  15.282   1.162  0.2633  0.1076 -0.0513
24468W        W40729   7.733  11.031   1.932 -0.0963  0.2267  0.1151
24469W        W40730   5.205   3.930  15.161 -0.1536 -0.2796  0.1022
24470W        W40731   4.418  12.363   1.988  0.1885 -0.3289 -0.0070
24471W        W40732   6.440  12.062  15.440 -0.1918  0.0327 -0.3208
24472W        W40733   2.758   1.021  15.861 -0.0484 -0.3101 -0.1990
24473W        W40734   0.643   9.095   1.264 -0.0706 -0.1745  0.2281
24474W        W40735  15.672   7.381   3.924 -0.0346  0.1714 -0.2205
24475W        W40736  16.188   8.708  12.832  0.0275 -0.2119  0.0500
24476W        W40737  12.349  17.294   0.605  0.3891 -0.1465  0.0961
24477W        W40738   5.970   0.318   3.739 -0.1144 -0.3316 -0.1288
24478W        W40739   4.899   3.847   2.245 -0.0935  0.3628 -0.1652
24479W        W40740   0.745   5.638   2.361 -0.0050 -0.2022 -0.2763
24480W        W40741   8.752  11.613  12.342 -0.1832  0.1268 -0.1109
24481W        W40742  14.347  16.985   5.450  0.0660 -0.2082  0.1096
24482W        W40743  16.041   7.863   5.268 -0.0585 -0.2398  0.0494
24483W        W40744   3.888  10.734  12.555 -0.2606  0.1268  0.0018
24484W        W40745   7.687   1.093   2.766  0.0982 -0.0622  0.0433
24485W        W40746  13.618  11.449  13.153  0.0464  0.0093  0.0050
24486W        W40747   7.852   1.436   1.055 -0.0675  0.0271 -0.0911
24487W        W40748   2.525   9.901  16.334  0.1411 -0.0774  0.0645
24488W        W40749   8.251   0.312  14.809  0.3089 -0.0682 -0.1304
24489W        W40750   6.203  10.964   5.266  0.2465  0.0773  0.0024
24490W        W40751   3.624   4.951  14.551 -0.0919  0.2213  0.1853
24491W        W40752   2.327  13.471  16.659 -0.0420  0.0996  0.2842
24492W        W40753   3.095  15.456   5.293  0.1003  0.0301 -0.2554
24493W        W40754  17.031  13.128   5.288  0.0368 -0.0318  0.0620
24494W        W40755  10.062   9.114   0.779 -0.0215  0.0230 -0.0658
24495W        W40756   9.288  14.279   3.306  0.1019  0.2809 -0.1162
24496W        W40757   6.420  13.906   1.375  0.0719  0.0741 -0.0017
24497W        W40758  14.498   0.550  15.957  0.0879  0.0033 -0.4140
24498W        W40759   6.002   3.652   2.197 -0.1762  0.3817 -0.4000
24499W        W40760  17.611   1.930  12.517  0.3067 -0.0027 -0.0110
24500W        W40761   9.122   7.938   0.889  0.1244  0.4175  0.1835
24501W        W40762  12.003   8.952  13.742 -0.0248  0.1002 -0.3379
24502W        W40763   6.598   0.182  15.606  0.0974 -0.2052  0.1815
24503W        W40764   7.958  11.177   4.620 -0.0753  0.1387 -0.0482
24504W        W40765  17.074  11.253  13.946 -0.0462 -0.3438  0.2416
24505W        W40766   5.481   7.782   4.764  0.0005  0.1451 -0.0017
24506W        W40767  16.738   3.042  15.979  0.1415 -0.2490  0.2115
24507W        W40768  10.704  17.145   5.542 -0.0420 -0.2897  0.0209
24508W        W40769  11.435   8.638  11.425 -0.2404 -0.2457 -0.2612
24509W        W40770   8.442   9.975  12.809 -0.1228  0.4625 -0.0269
24510W        W40771   3.676  12.322  13.800 -0.0375  0.0483 -0.0919
24511W        W40772   8.781   2.624   2.424 -0.0084  0.0972  0.2882
24512W        W40773  17.732   9.614   5.605 -0.0170  0.1082 -0.0432
24513W        W40774  14.302   9.070  13.024 -0.0978  0.1264 -0.0114
24514W        W40775  14.218   6.141  14.409  0.0252  0.2546 -0.0403
24515W        W40776  13.143   2.872   6.100  0.0927 -0.1707 -0.0622
24516W        W40777   0.789   4.104   3.564  0.0729 -0.1342  0.0510
24517W        W40778   4.971  14.535  16.047  0.1205  0.2528 -0.0606
24518W        W40779  17.578  15.357   2.283 -0.0321 -0.1573 -0.0529
24519W        W40780  10.803   7.648  13.915  0.2872 -0.2008  0.1008
24520W        W40781  16.912  10.113  14.183 -0.2277  0.1255  0.2528
24521W        W40782  10.254   0.658  16.931 -0.2681  0.2583 -0.0672
24522W        W40783  16.665   4.911   5.144 -0.0525 -0.5290 -0.1295
24523W        W40784   7.230  17.649  14.371 -0.3197  0.3267 -0.3537
24524W        W40785  13.524   3.940  14.705  0.0978 -0.2508 -0.2793
24525W        W40786   3.628  13.198   1.395 -0.0909  0.2955 -0.2573
24526W        W40787  16.721   8.252  15.121 -0.2914 -0.0840 -0.0607
24527W        W40788   2.924   7.899   1.407  0.2823  0.0479 -0.2030
24528W        W40789  17.413   3.846   1.729 -0.0673  0.2005  0.2739
24529W        W40790  16.340  11.883   0.842  0.2582  0.0844  0.1813
24530W        W40791   4.011  16.346  13.204 -0.2151  0.2152  0.0527
24531W        W40792  17.249   0.649  16.123 -0.1008 -0.2609 -0.1401
24532W        W40793   1.513   7.697   5.420 -0.1749 -0.1755 -0.2341
24533W        W40794   7.416  15.084  16.792  0.1783 -0.2517  0.0437
24534W        W40795   6.290  15.455   1.325  0.4189  0.3639  0.1529
24535W        W40796   6.244   0.355   2.870  0.3190 -0.3378  0.2358
24536W        W40797   2.433   4.344   5.758  0.2241 -0.4277  0.1304
24537W        W40798   3.312   2.438  16.274  0.2636 -0.5399  0.0437
24538W        W40799  10.204  16.590   4.648 -0.2571  0.1141  0.2680
24539W        W40800   1.013  14.215   0.287 -0.4401 -0.0874  0.3286
24540W        W40801  10.629   1.319   1.884 -0.0995  0.0838 -0.1767
24541W        W40802  11.966   5.356   1.154  0.1052  0.0029  0.1493
24542W        W40803   5.632  15.170   0.272  0.3139  0.0655 -0.2530
24543W        W40804   9.890  10.298  14.920 -0.1504 -0.1980  0.1403
24544W        W40805   8.255  11.872   4.276  0.0259  0.1159 -0.0966
24545W        W40806  10.922  16.396   5.158 -0.2219 -0.1279  0.0566
24546W        W40807   4.778   8.283  12.034 -0.1910  0.2092  0.1814
24547W        W40808  17.679   4.936  13.378  0.3907 -0.2137 -0.3246
24548W        W40809   9.707   8.596  13.814 -0.0823 -0.2478  0.2452
24549W        W40810  16.563  13.980  13.403  0.0400  0.2073  0.3754
24550W        W40811   6.888   3.897   4.740  0.2587 -0.0208  0.1985
24551W        W40812   1.114   9.724  12.892  0.1629 -0.2615  0.3216
24552W        W40813   4.967  16.636   5.142  0.2037  0.1127 -0.1719
24553W        W40814   1.753  15.944  12.870 -0.0437  0.1949  0.1146
24554W        W40815  11.858   3.951   1.221 -0.1597  0.1026 -0.0641
24555W        W40816  17.691  16.001  15.752 -0.0072  0.0234  0.0499
24556W        W40817   8.356   5.159  16.649 -0.1172  0.1611 -0.0168
24557W        W40818  15.097  11.439   0.648 -0.1102  0.2196 -0.0210
24558W        W40819   2.015   1.105  15.136 -0.0050 -0.0373 -0.2030
24559W        W40820   5.508   7.351  13.377 -0.1112 -0.1365  0.2692
24560W        W40821   9.943  12.418   2.075 -0.0036 -0.1859 -0.0271
24561W        W40822   7.969  15.678   3.249  0.1084 -0.0302 -0.0667
24562W        W40823  13.992   8.384  12.018 -0.0274 -0.0325 -0.0873
24563W        W40824  16.126   2.715  13.626  0.1515  0.0661 -0.2162
24564W        W40825  15.298  13.181   1.918 -0.1063 -0.1233 -0.4236
24565W        W40826  13.909  10.330   6.196  0.3210 -0.4096 -0.0299
24566W        W40827   0.923   8.444   4.174  0.1640 -0.1756  0.2435
24567W        W40828   2.514  13.563  11.718  0.3679  0.1078  0.1970
24568W        W40829   5.740   7.763  16.856  0.1710 -0.1312 -0.1969
24569W        W40830  14.475  13.481   4.903 -0.1978  0.0656 -0.0212
24570W        W40831  10.880  13.186   5.662 -0.1756 -0.1443 -0.2348
24571W        W40832   7.995  14.513  16.410 -0.1866  0.3700  0.0515
24572W        W40833  16.243  17.796  12.233 -0.3996  0.0110  0.2968
24573W        W40834  11.343  13.295   5.993  0.0733 -0.3953 -0.0241
24574W        W40835   5.124   1.529   1.530 -0.1191 -0.0259 -0.0493
24575W        W40836   9.293  13.787   3.489 -0.1022  0.0380  0.0361
24576W        W40837   4.767  13.171  12.859 -0.0297  0.0533  0.0257
24577W        W40838   2.802   6.733  13.221  0.1423 -0.1837 -0.0672
24578W        W40839  16.011   0.519  16.747  0.0172 -0.1783 -0.1127
24579W        W40840   8.813   7.705   0.497  0.0308 -0.2253 -0.0681
24580W        W40841  10.891   2.013  12.589 -0.1884 -0.4573  0.1915
24581W        W40842   5.785   4.335  12.869  0.1920 -0.0561 -0.0320
24582W        W40843   0.443   2.510  11.919  0.1187 -0.0856 -0.0285
24583W        W40844  15.516  13.522   2.265 -0.2072  0.1543  0.0485
24584W        W40845  13.309  14.487  11.500 -0.2179  0.4637 -0.2538
24585W        W40846  14.053  11.900   0.462 -0.1251 -0.0326  0.0294
24586W        W40847  12.720   8.462   0.192 -0.5285  0.0693  0.0916
24587W        W40848  13.465   9.565   3.306  0.2031 -0.1770  0.2067
24588W        W40849   7.662  17.153   5.078  0.4339  0.2894  0.3309
24589W        W40850  16.787   5.609   2.040 -0.0143  0.2716  0.0302
24590W        W40851  14.454  12.630  16.200 -0.0458  0.0911  0.0181
24591W        W40852  13.855   2.496  13.620  0.2139  0.1131 -0.0526
24592W        W40853  14.568   3.295  14.340 -0.0319  0.1413 -0.2338
24593W        W40854  16.673   6.984  13.195 -0.0061 -0.4422 -0.0393
24594W        W40855   0.191  16.380  16.643  0.0844 -0.2311 -0.1159
24595W        W40856  11.974   6.438  11.571 -0.0787 -0.1565  0.0525
24596W        W40857  15.212   7.058   0.200 -0.0495 -0.0586 -0.1488
24597W        W40858   1.665  17.281  15.400  0.0344 -0.3708 -0.0631
24598W        W40859   1.844   3.555  15.096  0.2869  0.2899  0.1134
24599W        W40860   3.376  15.388   4.525  0.3466 -0.0250  0.0137
24600W        W40861  12.084   7.038  15.771 -0.0837  0.1204  0.0967
24601W        W40862   1.654   4.738  12.107 -0.1925 -0.1519 -0.1844
24602W        W40863  15.367  10.116   2.513  0.1618  0.5670  0.0058
24603W        W40864  10.998   1.165  15.180 -0.2207  0.2521 -0.0806
24604W        W40865  17.669   7.604   3.773  0.2320 -0.0605  0.1475
24605W        W40866   5.472   5.398   1.020 -0.2302  0.0204 -0.1450
24606W        W40867   9.543   3.120  16.578  0.1840 -0.1515  0.0701
24607W        W40868  14.902   9.773   3.621  0.0351  0.2239  0.2581
24608W        W40869   3.729   7.340  14.070  0.3490 -0.2098  0.0891
24609W        W40870  17.311   2.640  11.765 -0.1773 -0.2598 -0.2375
24610W        W40871   9.271  10.295   2.230  0.1012 -0.3279 -0.1660
24611W        W40872   6.402   9.127   5.354 -0.0436 -0.0672 -0.0652
24612W        W40873  12.754  14.553   3.682  0.0881  0.0106  0.4240
24613W        W40874  15.448  16.081   4.795  0.1476 -0.1855  0.2310
24614W        W40875   6.949   0.508   3.433 -0.0939 -0.0360  0.0666
24615W        W40876  12.899  17.180   4.367  0.1253  0.1960  0.1757
24616W        W40877   1.208  17.069   4.710  0.2269  0.0471  0.0251
24617W        W40878   2.690   9.436  15.201  0.0642 -0.1096 -0.2245
24618W        W40879   0.523   8.966  13.949 -0.0491 -0.1343  0.1110
24619W        W40880  16.470  14.937  12.591  0.2087 -0.0258 -0.2492
24620W        W40881  12.108  13.866   6.316 -0.0055 -0.0920 -0.1804
24621W        W40882   0.185   0.860  15.447 -0.0712 -0.2711 -0.0122
24622W        W40883  16.951   7.828  16.227 -0.2538 -0.0936  0.0344
24623W        W40884   9.907  11.641  11.662 -0.1551  0.1209  0.2322
24624W        W40885   4.242   0.508   1.825 -0.2919 -0.0089 -0.0879
24625W        W40886  15.790  16.147  12.569 -0.1443  0.0480 -0.2444
24626W        W40887   3.319  10.068   5.969 -0.0998  0.0216 -0.0052
24627W        W40888  14.560  16.063  14.343 -0.0134  0.0033  0.4670
24628W        W40889  16.648   5.370   3.440 -0.2029  0.0044  0.1667
24629W        W40890  16.606   7.915   4.015  0.1873 -0.1525 -0.1274
24630W        W40891  14.510   4.888   2.877  0.5043  0.2428  0.1339
24631W        W40892  14.187   4.216   3.428  0.1515 -0.4765  0.0971
24632W        W40893   7.807   1.497   2.398  0.0128 -0.3128 -0.0455
24633W        W40894  11.658   3.803   3.688 -0.0898 -0.1120 -0.1790
24634W        W40895  17.469   3.372  11.634 -0.0671 -0.1569 -0.0972
24635W        W40896   1.187   4.072  11.484  0.0914 -0.2747  0.1348
24636W        W40897   4.393   7.008   0.725 -0.0626  0.0650 -0.1433
24637W        W40898   5.898  13.074  14.364 -0.0414 -0.2032  0.3467
24638W        W40899   2.168   6.111  16.232  0.1532  0.1872 -0.0415
24639W        W40900   6.580   9.514  14.360  0.1851 -0.0526  0.0432
24640W        W40901  17.360  10.433  16.741 -0.0104  0.1700  0.1454
24641W        W40902  14.736   6.304  15.114  0.1005  0.1161  0.3203
24642W        W40903  11.744  10.454  11.773 -0.2294  0.1243 -0.0578
24643W        W40904   2.202   6.349   1.000  0.0759  0.0410 -0.2039
24644W        W40905   2.582   4.736  15.324 -0.1191  0.1617 -0.1156
24645W        W40906  17.617  10.907  13.194 -0.1184 -0.1163  0.2158
24646W        W40907   1.348  14.147   0.726  0.0067  0.2777 -0.1318
24647W        W40908  14.894   6.497  12.669 -0.1557 -0.1090  0.2194
24648W        W40909   6.015   5.560  12.439  0.2889  0.3347  0.3287
24649W        W40910   8.313  17.570  11.975  0.4236  0.1036 -0.3154
24650W        W40911  14.165  17.225  13.486 -0.1150  0.0578 -0.1677
24651W        W40912  11.094   9.019  11.521 -0.4567 -0.0121  0.2141
24652W        W40913  11.474  14.749  15.258  0.1870 -0.1458  0.3599
24653W        W40914   4.683   0.231   5.499 -0.0442 -0.1247  0.4312
24654W        W40915  15.369  17.363  10.900  0.1182 -0.1038 -0.0199
24655W        W40916  14.625   9.176   5.108  0.0973  0.0368 -0.2020
24656W        W40917   2.151  12.402  16.412  0.2031 -0.2764  0.3830
24657W        W40918  14.397   5.822  13.448 -0.1592  0.2100  0.2663
24658W        W40919   8.255   8.716  13.805 -0.2868  0.0299 -0.1573
24659W        W40920  10.857  12.487  16.633 -0.2183 -0.4146 -0.1890
24660W        W40921   8.872  10.539  13.264 -0.3001 -0.0867 -0.1444
24661W        W40922   7.940   5.504   3.460 -0.0792  0.2360 -0.0445
24662W        W40923   5.329  14.590   1.377  0.1976  0.1774  0.0642
24663W        W40924   1.583   7.156  14.130  0.1879  0.1763  0.0188
24664W        W40925  11.634  11.501  12.709 -0.1206 -0.0687  0.0864
24665W        W40926  13.427   2.007  12.404  0.2209 -0.0078 -0.0633
24666W        W40927   0.353  14.928   3.207 -0.1351 -0.1441 -0.2873
24667W        W40928  12.546  17.094  12.025 -0.2968 -0.1244 -0.3172
24668W        W40929   4.902   2.579   2.092 -0.1850  0.0503  0.4236
24669W        W40930   3.165   0.581   4.545  0.0165 -0.0034 -0.0127
24670W        W40931   7.717  15.318   3.021 -0.0339  0.0440  0.1422
24671W        W40932   2.199   8.335  16.953  0.0267  0.3319 -0.0693
24672W        W40933   6.053   7.671   0.453  0.1436  0.0117  0.2078
24673W        W40934   3.718  15.959   6.222 -0.3086  0.1304  0.2765
24674W        W40935   8.329   3.052   4.109  0.1278 -0.2140  0.1452
24675W        W40936   6.705  14.362   1.557  0.2406  0.0678 -0.2731
24676W        W40937   3.720  10.647   4.726  0.2745  0.1405  0.2816
24677W        W40938   5.836   6.176  16.504  0.0245  0.3156  0.2202
24678W        W40939   7.229  17.002   5.310 -0.0029 -0.0699  0.1825
24679W        W40940   8.461   3.743   1.113 -0.0240 -0.0342 -0.1831
24680W        W40941   4.560   5.515   1.485  0.0676  0.1131  0.0898
24681W        W40942   1.736  14.301  16.572  0.2405 -0.0355  0.2476
24682W        W40943   0.316  16.497  15.153  0.0905 -0.1989  0.2010
24683W        W40944   3.142  13.926  13.880 -0.1100 -0.1607 -0.0959
24684W        W40945   8.969  10.127   1.399  0.1810 -0.2368  0.0192
24685W        W40946   3.351   7.018   6.547 -0.4373  0.0655  0.1589
24686W        W40947  16.317  13.990  13.927 -0.2002 -0.2388 -0.0110
24687W        W40948   8.964  14.979   4.018 -0.1390  0.2409 -0.0572
24688W        W40949  16.259   4.341  13.945 -0.2573  0.0232  0.2762
24689W        W40950   7.722   5.732   3.841  0.0870  0.1735 -0.1642
24690W        W40951   5.259  10.363  11.835  0.1544  0.0445 -0.1775
24691W        W40952   1.955  10.207  16.293  0.1002 -0.1352 -0.2667
24692W        W40953  15.680   6.346  13.542 -0.1860 -0.0265  0.0496
24693W        W40954   3.517   1.295   2.918 -0.0038  0.1164  0.3226
24694W        W40955   9.928   8.270  11.500 -0.2062 -0.0325  0.0883
24695W        W40956   1.561  12.594   4.374  0.0851  0.2625 -0.3823
24696W        W40957   6.205  14.573  14.295 -0.2118 -0.2066 -0.1492
24697W        W40958   6.557   6.932  13.978 -0.1057  0.1346  0.0441
24698W        W40959   2.887  13.962   2.874  0.2678 -0.0858 -0.3707
24699W        W40960  11.379   4.254   3.780  0.1782  0.1148  0.0113
24700W        W40961   6.165  11.326  11.529 -0.0244  0.1536 -0.0424
24701W        W40962  10.611   2.698  13.246  0.0476 -0.0562  0.0041
24702W        W40963   8.009  13.658  12.013 -0.3771  0.2143  0.2378
24703W        W40964  16.289   4.527   4.916  0.3246 -0.0412  0.2546
24704W        W40965   7.484  13.764   0.629  0.2283  0.2508  0.1442
24705W        W40966   0.466  15.325  14.383 -0.1006 -0.1387  0.0743
24706W        W40967   8.937   1.378  15.664  0.1331 -0.0794  0.1872
24707W        W40968  10.522  17.197   0.598  0.0347 -0.1103  0.2286
24708W        W40969   7.836  16.685  15.000 -0.0060  0.0182  0.0798
24709W        W40970  11.306   4.147  13.986 -0.2959  0.0912  0.1367
24710W        W40971  16.843   2.012   1.831 -0.1553  0.0626  0.1912
24711W        W40972  15.052  17.029   4.552 -0.3060  0.0213 -0.0149
24712W        W40973  11.656   7.515   1.865 -0.2465  0.0277 -0.0511
24713W        W40974  12.794  13.106   2.677  0.3730  0.0029 -0.2857
24714W        W40975   0.202  11.740  15.987  0.0420 -0.1892 -0.0752
24715W        W40976   0.653   8.291   5.801  0.1646 -0.1049  0.1185
24716W        W40977   2.162   3.830  11.473  0.0006  0.0390  0.1633
24717W        W40978   7.049   7.274   2.011 -0.1114  0.2588  0.0849
24718W        W40979   4.314   0.397   3.344 -0.2601 -0.1117 -0.0200
24719W        W40980  15.995   9.661  15.607 -0.0486  0.1463  0.1674
24720W        W40981   6.713  17.732   0.538 -0.2337  0.1593  0.3780
24721W        W40982  12.629   6.533   0.624  0.0153  0.0410 -0.1786
24722W        W40983   7.569  10.367   0.859 -0.1220 -0.0447  0.1981
24723W        W40984  16.752  12.144  15.949 -0.1784 -0.3472 -0.0369
24724W        W40985   9.022  16.932   1.834 -0.1732  0.4165  0.0657
24725W        W40986  14.439   2.291  15.902  0.0325 -0.0830  0.3664
24726W        W40987  11.412  10.106  11.926 -0.2063  0.1703  0.0051
24727W        W40988  12.758  12.169   2.671  0.0357  0.0357  0.0126
24728W        W40989  10.188   5.806  12.545 -0.1599  0.3202 -0.2716
24729W        W40990   9.352   9.536  16.280 -0.1051 -0.0500  0.0362
24730W        W40991   0.502  11.844   0.407  0.1391  0.2851  0.2649
24731W        W40992   6.566   7.822  11.487 -0.0476  0.0117  0.0980
24732W        W40993   7.079   4.211  16.202  0.3739  0.1797  0.3565
24733W        W40994  14.820   3.954   2.558 -0.0926 -0.0030 -0.2096
24734W        W40995  13.018  15.855   0.028  0.3059 -0.3949  0.0512
24735W        W40996   5.791   9.031  13.452 -0.3286  0.1534 -0.1489
24736W        W40997  15.591  16.455   5.715  0.5024 -0.0897  0.1003
24737W        W40998  14.370  10.244   6.277 -0.0407  0.4557  0.2702
24738W        W40999  14.400  14.001  13.229 -0.6749  0.4082 -0.0309
24739W        W41000   0.943   9.882   4.680 -0.1024 -0.0313  0.1648
24740W        W41001  10.311  17.655  12.905  0.2022  0.1680  0.2745
24741W        W41002   4.859   9.174   5.033  0.1944  0.2065  0.0894
24742W        W41003  13.651   8.936   4.371 -0.0964 -0.3025  0.0218
24743W        W41004   9.111   3.159   1.636  0.2698  0.0387 -0.0020
24744W        W41005   9.907  10.181  15.420  0.0715 -0.0452 -0.2394
24745W        W41006   8.359   4.764   1.388 -0.2708  0.1455  0.2913
24746W        W41007   3.304   1.299   2.213  0.0192 -0.2176 -0.1381
24747W        W41008  17.584  12.697  13.026 -0.0998 -0.2222 -0.0945
24748W        W41009   4.234   9.798  15.510  0.1500  0.3229 -0.0500
24749W        W41010  11.716  17.755   0.179  0.1904 -0.0491 -0.0621
24750W        W41011  14.449   7.940  15.385 -0.0291  0.0463  0.0634
24751W        W41012   7.726  16.926   0.575 -0.0151  0.1615 -0.4098
24752W        W41013   4.963   0.369   0.612  0.0322  0.2468  0.1740
24753W        W41014  14.381   3.502  12.485 -0.0885  0.1252  0.1345
24754W        W41015   8.611  15.904  15.620 -0.2894 -0.0692 -0.0811
24755W        W41016  16.015  15.880  16.366  0.3157 -0.0380 -0.1391
24756W        W41017  16.013   1.124  16.748  0.0286  0.2485 -0.0891
24757W        W41018   2.161   9.821  14.687  0.2462  0.2698 -0.2457
24758W        W41019   9.025  11.767  11.226  0.0801 -0.2330  0.4017
24759W        W41020   3.473  13.900   2.700  0.2226 -0.0886 -0.1483
24760W        W41021  15.077  14.479  16.108  0.0636  0.0735 -0.0517
24761W        W41022  14.481  10.751   3.316  0.0031 -0.0015 -0.3451
24762W        W41023   5.198   2.818   1.304  0.1716  0.1410  0.2746
24763W        W41024   7.195   9.154  16.816 -0.1326 -0.3076 -0.1573
24764W        W41025   9.532  10.700   5.410 -0.0796 -0.1988  0.4951
24765W        W41026  15.867   8.318  15.135 -0.1069 -0.0166  0.0300
24766W        W41027   2.299   2.464  15.376 -0.1369 -0.1219 -0.3419
24767W        W41028  15.887   8.892  14.876 -0.1463  0.1678 -0.0577
24768W        W41029  14.827  14.943  12.352  0.2195 -0.2473  0.0230
24769W        W41030   6.341  16.825   4.671 -0.0296  0.0700  0.0820
24770W        W41031  13.789   8.174  13.275 -0.0731 -0.0993 -0.1478
24771W        W41032   2.691  11.039  16.815  0.1552  0.2703 -0.0440
24772W        W41033  14.593   0.235   0.972 -0.2527 -0.2773  0.0623
24773W        W41034   1.364   3.674   4.891  0.2230  0.2227 -0.0256
24774W        W41035  13.929   1.301   2.026 -0.1513 -0.0144 -0.3081
24775W        W41036   5.698   1.646   1.471  0.1922  0.0810 -0.2995
24776W        W41037  15.164   9.108   3.502 -0.4156 -0.0041  0.3272
24777W        W41038   2.159   5.092   5.285  0.2643  0.1430  0.0006
24778W        W41039   8.913  12.399  14.341 -0.1311  0.2031  0.0580
24779W        W41040   5.740   7.367  12.505 -0.1838  0.0860 -0.3356
24780W        W41041   6.841  11.066  13.263  0.1268  0.0108 -0.0175
24781W        W41042   7.245   6.289  12.362 -0.3715  0.0668 -0.0836
24782W        W41043   4.887   2.217  16.799 -0.0186 -0.0523 -0.0031
24783W        W41044   6.801  12.705   0.482 -0.0478 -0.2147  0.0606
24784W        W41045  14.659  15.058   2.778 -0.0015 -0.1316  0.1082
24785W        W41046   3.819   1.628  14.573 -0.2969  0.0190  0.1390
24786W        W41047   0.695   1.065   4.349 -0.4807 -0.1606 -0.0797
24787W        W41048   4.703   2.703   3.904  0.1173 -0.1368 -0.3056
24788W        W41049   5.312   7.110  15.024 -0.1470 -0.3216  0.0097
24789W        W41050   3.449   9.576   0.094  0.0634  0.3479 -0.2224
24790W        W41051  11.382   2.925   0.445 -0.1434  0.0110  0.4139
24791W        W41052  11.004   9.636   0.715 -0.3503  0.0821 -0.0265
24792W        W41053  13.016   5.547   4.852 -0.2074  0.0036 -0.0838
24793W        W41054   9.679   1.159   2.164  0.1011 -0.3236 -0.2621
24794W        W41055   3.411   2.978   0.816 -0.1495 -0.1726  0.1314
24795W        W41056  12.030  16.353  15.438 -0.4853  0.0269 -0.2819
24796W        W41057  17.345   0.387  15.663  0.0706 -0.0812 -0.2464
24797W        W41058   6.457   4.369   6.012  0.2500 -0.2410 -0.1636
24798W        W41059   0.291  17.497   2.112 -0.1030  0.0006  0.1960
24799W        W41060  14.547   8.325  16.285  0.0694 -0.0051  0.1348
24800W        W41061  12.944  16.593  15.795  0.2156 -0.1481  0.3975
24801W        W41062   3.994   4.393   4.606  0.2042  0.1973  0.0082
24802W        W41063   6.755   9.219   1.925 -0.0076 -0.0003 -0.0925
24803W        W41064   9.433   1.021   3.326  0.0086 -0.1834 -0.2766
24804W        W41065  15.185  13.951  12.034 -0.2250 -0.1149 -0.0917
24805W        W41066   5.356   2.410  14.667 -0.2328  0.0173  0.0589
24806W        W41067  11.408   5.182   2.452  0.0891 -0.0167  0.2921
24807W        W41068   5.090   2.856   3.231  0.2070 -0.0279  0.2930
24808W        W41069   8.082   5.839  15.033 -0.0872 -0.2919  0.2735
24809W        W41070  17.357  16.580   4.281 -0.1973 -0.0313 -0.1794
24810W        W41071  13.155  13.372   4.483 -0.0665 -0.0173  0.1085
24811W        W41072  12.079   6.494  15.823  0.2448 -0.2370  0.1623
24812W        W41073  13.719   4.308  12.775  0.1760  0.1517  0.3093
24813W        W41074  12.409   0.402   5.714  0.1306  0.0323 -0.2790
24814W        W41075  11.151   3.152  13.275  0.2118  0.2644 -0.0285
24815W        W41076   4.627  15.901  16.144  0.0525 -0.1746 -0.0827
24816W        W41077   0.876   7.984   3.851 -0.1175  0.2724 -0.1115
24817W        W41078  15.685  14.595  15.657 -0.1297 -0.3447  0.0247
24818W        W41079  13.397  16.198  14.101  0.1541  0.0095  0.2855
24819W        W41080  12.694  16.498  14.678  0.1170 -0.1090 -0.1685
24820W        W41081  10.485   4.181   2.957 -0.2385 -0.2349 -0.4524
24821W        W41082   2.773   2.439  16.212  0.0380  0.0968 -0.2998
24822W        W41083   8.362  16.418   5.201  0.2541 -0.2096  0.1538
24823W        W41084  13.856   4.319   5.499 -0.0541  0.0975  0.1227
24824W        W41085   4.774   8.379   1.749 -0.0477 -0.1412  0.3140
24825W        W41086  17.251  12.857   4.370  0.0321  0.1285 -0.1692
24826W        W41087  10.612   5.792   4.510  0.1380 -0.0553  0.0023
24827W        W41088   8.591  15.492  12.776  0.2000  0.1839 -0.3258
24828W        W41089   8.707   0.603   2.241  0.1739 -0.3014  0.0333
24829W        W41090  13.810   7.365  12.607 -0.0103 -0.0278 -0.0628
24830W        W41091  16.209  11.979  16.636  0.3154  0.1002 -0.0348
24831W        W41092   2.283  10.444   4.159 -0.2219  0.0118  0.1304
24832W        W41093   8.602   3.832  14.658  0.0966  0.0264  0.3648
24833W        W41094  16.721   6.940   5.170 -0.2570 -0.1231  0.2632
24834W        W41095   4.140   6.505   3.599 -0.3954 -0.1618  0.0305
24835W        W41096  11.195  17.081  16.876  0.2384  0.0510  0.0087
24836W        W41097   0.517  15.477  16.971 -0.0610 -0.1220  0.1660
24837W        W41098   6.647  11.328   3.272 -0.1872  0.3687  0.0718
24838W        W41099  10.367   2.951   6.344  0.1422 -0.0383 -0.0592
24839W        W41100  16.890  15.513   0.777 -0.1614 -0.1490  0.0274
24840W        W41101   6.229   2.831   5.289 -0.1764 -0.0364  0.1751
24841W        W41102  13.605  13.709   4.350  0.3765 -0.2177 -0.1472
24842W        W41103   9.548  11.479   4.123 -0.0180 -0.1589  0.0596
24843W        W41104  15.376  12.130  12.587  0.3100 -0.2572 -0.2289
24844W        W41105  17.784  15.670  16.135  0.2047 -0.2194 -0.1386
24845W        W41106  12.491   2.562   2.272  0.0461 -0.0688 -0.2703
24846W        W41107   9.913   6.435   4.958 -0.0313 -0.1396  0.1000
24847W        W41108   9.593   9.775  16.648 -0.1282 -0.3200 -0.2135
24848W        W41109  12.971  15.942  16.391  0.0886  0.0728  0.0020
24849W        W41110  13.123   6.339  12.220 -0.1158  0.1189  0.3255
24850W        W41111   8.202   3.999  13.845  0.0859 -0.0486  0.0116
24851W        W41112   5.028   1.543  14.914 -0.2272 -0.2394 -0.1168
24852W        W41113  11.908   7.747  11.435 -0.0901  0.1303 -0.0350
24853W        W41114  12.334  11.034  16.157  0.0088 -0.2544  0.0136
24854W        W41115  15.137   8.704  14.354 -0.1476  0.1175 -0.1000
24855W        W41116  11.476  13.575   3.295  0.4450 -0.1288 -0.1408
24856W        W41117  14.750  11.140   3.444 -0.0901 -0.0357 -0.1713
24857W        W41118   7.226   3.438   0.342  0.0852 -0.0219 -0.1163
24858W        W41119  16.163   4.296   1.047  0.1454 -0.2615  0.0857
24859W        W41120  16.385  13.365  12.588 -0.0465  0.1105 -0.0123
24860W        W41121  15.762  17.747   4.376  0.1411 -0.1537  0.3981
24861W        W41122   4.773  13.222   2.316  0.1265  0.0671 -0.0140
24862W        W41123  10.053  10.751   3.751 -0.2327 -0.1605 -0.0469
24863W        W41124  17.391  12.772  16.333  0.1303 -0.0442  0.1729
24864W        W41125   9.196   6.804   0.424 -0.0756 -0.0667  0.0250
24865W        W41126  15.872   1.725   4.424  0.1243 -0.1776  0.0816
24866W        W41127  14.590  10.434   0.117 -0.2396 -0.0635 -0.0431
24867W        W41128  13.865   8.119  15.036  0.1053  0.1930 -0.0858
24868W        W41129   0.754   4.720  14.834 -0.0897 -0.0846  0.0741
24869W        W41130   8.618   1.565   0.953 -0.2500 -0.0558 -0.0126
24870W        W41131   3.548   9.613   3.054 -0.3316  0.0069 -0.2426
24871W        W41132  14.441   3.225  15.886 -0.2627 -0.0897  0.0292
24872W        W41133  11.513   6.838  12.928  0.0212  0.0148 -0.1764
24873W        W41134   5.199   0.356   4.810 -0.0106  0.0084 -0.1477
24874W        W41135   4.889   4.223  10.966 -0.1696  0.1707 -0.0116
24875W        W41136  14.893  11.039  13.653 -0.1001  0.2630 -0.0352
24876W        W41137  14.509   4.795   2.338  0.0959 -0.1204  0.0396
24877W        W41138   1.182  13.816  12.097  0.2895  0.0574 -0.2026
24878W        W41139  13.475   9.777   6.240  0.0910  0.0199 -0.1502
24879W        W41140  12.083   5.123   3.163  0.2602 -0.2229 -0.0310
24880W        W41141   4.340  13.187  13.816  0.1739 -0.2356 -0.0018
24881W        W41142   4.167   5.393  16.905 -0.1224 -0.0454  0.1340
24882W        W41143  15.527  13.858  12.706  0.0665  0.1727  0.0687
24883W        W41144  15.362  12.996   0.515  0.1029  0.1817 -0.1409
24884W        W41145   9.631   7.506  11.700 -0.2817  0.2016 -0.1329
24885W        W41146   4.356   3.842  16.604  0.1554  0.1336 -0.1708
24886W        W41147   4.548  10.424   3.803 -0.0468 -0.0477 -0.1149
24887W        W41148   3.639   5.431  14.713 -0.1502 -0.1600 -0.0563
24888W        W41149  12.416  11.542  14.546  0.0449 -0.0481  0.2852
24889W        W41150   6.180  14.375   4.336 -0.2107 -0.0356  0.0502
24890W        W41151  15.497  16.744   0.886  0.0549 -0.2673  0.2062
24891W        W41152   6.262   5.078   0.899  0.3749  0.0394  0.2105
24892W        W41153   5.240  10.080   0.039  0.0269  0.1636  0.0137
24893W        W41154  12.470  17.835   3.666  0.0804  0.0464  0.2628
24894W        W41155   0.693  12.469   5.186 -0.0102 -0.1768 -0.3726
24895W        W41156  13.195   7.820  14.775 -0.0467 -0.1090  0.1444
24896W        W41157   5.104  14.398   0.152 -0.0893 -0.0038  0.2658
24897W        W41158  15.690   6.297  11.127  0.2821  0.0751  0.1414
24898W        W41159  10.476  14.365   2.864  0.3103  0.2319  0.0674
24899W        W41160   0.773   3.607   3.353  0.3033  0.0906 -0.0830
24900W        W41161  15.795   2.424   3.976  0.0420  0.0470  0.2749
24901W        W41162   1.422  14.621   0.368 -0.2341  0.0465  0.2433
24902W        W41163   1.277  17.356   2.273  0.0362  0.1677 -0.1231
24903W        W41164   6.646  11.174   0.190  0.0431 -0.0549  0.1422
24904W        W41165  16.045  17.829   0.051  0.3138  0.1508  0.2586
24905W        W41166  15.654   0.819   4.410 -0.1748 -0.0398 -0.2048
24906W        W41167  15.195   3.874   3.666 -0.1977 -0.1069 -0.1955
24907W        W41168   1.940  15.576  13.596  0.0601  0.0767 -0.0536
24908W        W41169   9.884   5.762   5.667  0.3028 -0.2577  0.2887
24909W        W41170   7.297  17.511  11.701  0.0467  0.1731  0.2858
24910W        W41171   2.423  16.713   2.047 -0.0024 -0.0791 -0.0279
24911W        W41172   7.220   5.709   1.226  0.3162  0.0668 -0.0817
24912W        W41173  16.164  12.532  14.100  0.0080  0.1816 -0.2315
24913W        W41174   3.071  11.151  13.841  0.1963  0.1156  0.3056
24914W        W41175  15.759  12.885  16.842 -0.0077  0.0722 -0.1162
24915W        W41176   4.372   9.055  13.354 -0.2368  0.3155  0.0734
24916W        W41177   3.932   3.481   1.921 -0.0529  0.2795  0.0335
24917W        W41178   6.535  15.704   4.859  0.3453 -0.1755  0.1815
24918W        W41179  16.505  15.108  13.076  0.0112 -0.0176  0.1848
24919W        W41180   8.130  15.044  14.231  0.1768 -0.2122  0.0691
24920W        W41181  16.192  15.240  15.217  0.0706  0.1652  0.0355
24921W        W41182   1.241   2.959  12.447 -0.3261 -0.1391  0.1516
24922W        W41183   5.943   4.954   4.757 -0.1491  0.0371  0.1476
24923W        W41184   7.146  16.211   5.469  0.0729  0.0424  0.2080
24924W        W41185   4.259   4.118   5.019 -0.0174 -0.1326 -0.3183
24925W        W41186  17.112   0.802   3.181 -0.2645  0.1394  0.1175
24926W        W41187   0.853  14.590   4.150  0.0742 -0.0224  0.0580
24927W        W41188   7.696   3.790   3.278  0.1175 -0.1035 -0.3235
24928W        W41189   9.278  10.165  16.736  0.1049 -0.0259 -0.1112
24929W        W41190   4.183   6.026   3.932 -0.1437 -0.2095  0.1159
24930W        W41191   6.219   8.818   3.018 -0.1482 -0.0837  0.0320
24931W        W41192  16.406   6.355   1.298  0.1535  0.0905  0.2669
24932W        W41193  11.618   6.726  16.940 -0.1889  0.1341  0.2290
24933W        W41194  12.491   4.445   0.264  0.1936  0.0417 -0.0020
24934W        W41195  17.422  12.160  15.434  0.0827 -0.4051 -0.2468
24935W        W41196   8.440   1.297   3.579  0.2699 -0.1759  0.0578
24936W        W41197  15.395   7.580   5.666 -0.1889 -0.0441  0.1866
24937W        W41198   6.475  14.336  11.640 -0.1085  0.0656 -0.1405
24938W        W41199   8.957  16.622  14.260  0.0476 -0.1491 -0.0862
24939W        W41200   5.144  15.271  14.779 -0.1314  0.1211  0.2137
24940W        W41201   3.229   2.237  14.125 -0.0196 -0.1381  0.1325
24941W        W41202  16.566   5.542  15.777 -0.2049  0.3221  0.1164
24942W        W41203   4.204   1.961  14.574  0.1491  0.1670  0.2495
24943W        W41204  14.156  14.037  12.133  0.1162  0.1222  0.1243
24944W        W41205  15.498   4.791   4.252  0.0938 -0.1000 -0.3301
24945W        W41206  15.647  10.079   3.355  0.2095 -0.2300 -0.2736
24946W        W41207  13.436  10.218  14.465  0.1127 -0.1472 -0.0939
24947W        W41208  13.422   4.357  13.303 -0.2145  0.1252  0.2905
24948W        W41209   5.370   6.200   4.472 -0.1276  0.0250  0.0621
24949W        W41210   1.224  10.592  12.105  0.1353  0.1320  0.1407
24950W        W41211  17.306   0.916   3.966  0.0324 -0.1344 -0.0697
24951W        W41212  10.614  16.650   5.388 -0.0039 -0.0842 -0.0738
24952W        W41213  11.731  16.896   0.544  0.3976 -0.1825 -0.1860
24953W        W41214   8.634  13.933  12.836 -0.1867  0.0002 -0.0409
24954W        W41215   1.323   6.630   4.600  0.1354 -0.1285 -0.0793
24955W        W41216  12.225  17.436  14.035  0.0042  0.1311  0.0736
24956W        W41217  11.670   0.483   2.041  0.0989 -0.3497  0.1276
24957W        W41218   5.566  16.263   5.435 -0.4261  0.0185 -0.1790
24958W        W41219   0.279   7.092  14.472 -0.0950 -0.0531 -0.2294
24959W        W41220  14.281   6.021  14.962  0.0197 -0.2634 -0.1838
24960W        W41221  12.738  10.133   0.508 -0.4062 -0.2210  0.3536
24961W        W41222  14.193   6.820  16.251  0.1624  0.2401  0.0097
24962W        W41223   9.796   8.190   2.252  0.1811  0.1171  0.2978
24963W        W41224   4.573  14.073  15.307  0.1879  0.3648 -0.0982
24964W        W41225  15.629  12.554  15.373  0.0789 -0.0970  0.0197
24965W        W41226   2.886   7.032   4.423  0.0434 -0.2211 -0.0880
24966W        W41227   6.363  16.213   2.082  0.0880 -0.2034  0.1184
24967W        W41228   9.445   0.330   0.243  0.1915  0.2006 -0.0657
24968W        W41229   3.288   5.462   2.955  0.1363  0.0131 -0.0833
24969W        W41230   6.760   6.717   4.835  0.0618 -0.0360  0.1976
24970W        W41231   7.564  16.272  12.063  0.0188  0.4530 -0.0186
24971W        W41232  12.927  15.205   3.650 -0.0816  0.1159 -0.1154
24972W        W41233  16.745  14.444  16.374  0.2479 -0.0579  0.2426
24973W        W41234  10.599  10.627  11.458 -0.0269 -0.3705  0.2696
24974W        W41235  16.896   8.664   2.894  0.1046  0.0620  0.1849
24975W        W41236   9.722  10.616   1.169 -0.0683  0.0767  0.3269
24976W        W41237   9.267  13.048  12.981 -0.0240  0.0957  0.0966
24977W        W41238  15.383  12.593   1.111 -0.0161 -0.1587  0.0516
24978W        W41239   6.195   7.142  15.794 -0.0554  0.1858 -0.0190
24979W        W41240   7.376  12.325   2.047  0.2595  0.1806  0.3202
24980W        W41241   9.616   4.953   1.286 -0.0648  0.1868  0.0306
24981W        W41242   3.388   3.000   6.378  0.1050  0.0512 -0.3402
24982W        W41243   0.648   2.054  13.666 -0.4179  0.2524 -0.0399
24983W        W41244   8.117  11.041   2.614 -0.0544  0.0960 -0.0455
24984W        W41245   5.770   1.798   0.659 -0.1400 -0.0521 -0.0241
24985W        W41246  11.880  15.838   5.653 -0.1725  0.2205 -0.2346
24986W        W41247   5.843   1.738  12.655  0.0003 -0.0297  0.0305
24987W        W41248  16.586  16.602   4.639  0.0671 -0.4607 -0.2344
24988W        W41249  10.302   1.526  12.012  0.1518  0.3263 -0.3915
24989W        W41250   2.016  16.307   3.183 -0.2127 -0.0455 -0.1482
24990W        W41251   2.138  13.454   2.537 -0.0846  0.0632  0.0374
24991W        W41252  11.480  15.935   2.142  0.0826  0.1365 -0.0545
24992W        W41253  11.207  14.994   1.214 -0.2737  0.0970 -0.0348
24993W        W41254   7.026   2.386   4.979  0.2939  0.0970 -0.0606
24994W        W41255   2.631   7.899  12.726 -0.2522  0.0478  0.2593
24995W        W41256   4.030  13.679   0.881  0.2598 -0.3240 -0.2939
24996W        W41257   0.783  17.479   1.810 -0.3566 -0.0916  0.1376
24997W        W41258  17.270   7.514   3.359  0.1315  0.2676  0.1414
24998W        W41259   9.522   6.577  14.279 -0.1794  0.3189  0.0478
24999W        W41260  14.396  15.461   5.624  0.1542 -0.0311 -0.0406
25000W        W41261   9.789  12.757  15.099 -0.1080  0.0610  0.3183
25001W        W41262   8.309   2.572   1.724  0.0139  0.0667  0.2462
25002W        W41263   6.091   2.706  13.727  0.0255 -0.1045 -0.2315
25003W        W41264  13.498   1.221   6.069  0.1141 -0.1504  0.0174
25004W        W41265   0.720   2.234   2.072  0.1943 -0.1206 -0.0880
25005W        W41266   8.846   2.128   0.080 -0.0749 -0.2049 -0.1364
25006W        W41267   6.229   4.976  15.345  0.0752  0.0896  0.0964
25007W        W41268  14.557   8.828   0.624 -0.0001  0.1032 -0.0861
25008W        W41269  15.049  16.858   4.047 -0.4631 -0.2799 -0.2082
25009W        W41270  17.803   1.101   1.771  0.0084  0.2343  0.1548
25010W        W41271   7.115   1.743  15.660  0.0758  0.0687  0.2234
25011W        W41272  14.769   7.119   5.220 -0.2515  0.1965 -0.1841
25012W        W41273  16.716   9.985   3.025  0.3670 -0.0291  0.1213
25013W        W41274   0.151   1.302   3.394  0.0261  0.2048  0.1446
25014W        W41275   8.688  15.595  12.265 -0.0272  0.4438  0.3227
25015W        W41276   2.366  17.715  15.599 -0.2361 -0.0291 -0.0419
25016W        W41277   5.672  13.483   0.634 -0.1363  0.2627  0.2432
25017W        W41278   3.373  11.300  16.186  0.2687 -0.2357 -0.0858
25018W        W41279   5.686   4.808   2.162  0.2177  0.1681  0.2208
25019W        W41280   2.118   9.372   4.881  0.0772 -0.0783 -0.2630
25020W        W41281   4.255   2.834  12.385 -0.1954 -0.0487 -0.1188
25021W        W41282   1.685   9.232  13.411 -0.1054 -0.0630  0.2276
25022W        W41283  16.398  15.002   2.619 -0.0085 -0.1706 -0.0719
25023W        W41284   3.831   0.548  16.104  0.0515  0.0841  0.1731
25024W        W41285  15.268  11.146  14.103  0.2387  0.2136 -0.0313
25025W        W41286  16.472  16.965  16.368  0.0554 -0.2636 -0.1662
25026W        W41287  12.569  15.601  14.029  0.1220  0.2459  0.0084
25027W        W41288  17.162   2.611   2.517  0.2405  0.0977 -0.2389
25028W        W41289  13.017  12.945   0.202  0.0831  0.0192 -0.0845
25029W        W41290   6.990  11.925   1.719 -0.1703  0.2579  0.1608
25030W        W41291   2.825   4.438   3.055 -0.2600 -0.1745 -0.0831
25031W        W41292   9.220  14.368   2.459  0.1802 -0.1821  0.1297
25032W        W41293   3.335   8.643  13.574 -0.2057 -0.0167 -0.1266
25033W        W41294  15.507   0.273   4.137 -0.3631  0.1680  0.1074
25034W        W41295   7.674   6.799  12.856  0.1737  0.2989  0.0042
25035W        W41296   9.322  11.605  12.290 -0.1069  0.0346 -0.1143
25036W        W41297   4.476   0.956  15.313  0.0377  0.3938  0.1048
25037W        W41298  16.443   7.609   4.505 -0.1892 -0.1176 -0.4384
25038W        W41299  12.409  15.872   5.653  0.0591 -0.0719  0.2144
25039W        W41300  15.075   0.139  13.207 -0.2741  0.2416  0.1014
25040W        W41301   6.686   9.929  13.983 -0.1149 -0.2380 -0.2426
25041W        W41302  17.478   6.738   3.235  0.2292 -0.1623  0.2973
25042W        W41303   1.577   6.968   2.876 -0.1261  0.1878 -0.2534
25043W        W41304   3.261   3.519   3.892 -0.0556 -0.0817  0.0794
25044W        W41305   6.421  16.748  14.919 -0.0150  0.0300 -0.2004
25045W        W41306   0.488   4.784   2.056 -0.2287 -0.2055  0.2354
25046W        W41307   3.023   4.474  15.730 -0.2819 -0.4241  0.2393
25047W        W41308   2.053  16.278   6.565 -0.2704 -0.1145  0.2042
25048W        W41309   7.818  14.467  12.389 -0.1864  0.0202 -0.1061
25049W        W41310   7.651   5.773  15.820 -0.0309  0.0512 -0.1205
25050W        W41311  14.647  17.062   2.593  0.2481  0.1118  0.1839
25051W        W41312   2.159   6.160   3.119 -0.0491 -0.0007  0.3354
25052W        W41313  14.797  14.039   4.468  0.0727 -0.2350 -0.0922
25053W        W41314  17.656  14.593  12.721  0.2610 -0.0409  0.0198
25054W        W41315  15.137   4.246   2.973  0.2401  0.0239  0.1481
25055W        W41316  14.014  14.755   4.613  0.4711 -0.0682 -0.0185
25056W        W41317  13.070   0.762  13.652  0.0401  0.0802  0.1292
25057W        W41318   7.830  14.367   3.091 -0.2395  0.0074  0.0316
25058W        W41319  16.405  17.044   1.906 -0.0259  0.2284 -0.1492
25059W        W41320   0.984  16.052   4.990  0.3125  0.0198 -0.0718
25060W        W41321  14.989  10.384   2.818 -0.0789  0.0569 -0.0866
25061W        W41322  12.263  13.169   1.760 -0.0582  0.0808  0.2472
25062W        W41323   3.204   0.024   0.149 -0.0379 -0.0475  0.0583
25063W        W41324   8.731  11.472   6.033 -0.2464  0.0399  0.2447
25064W        W41325   8.697  14.696   0.111 -0.1168  0.4051 -0.1216
25065W        W41326   2.738  15.801   5.112  0.2478  0.3048  0.3243
25066W        W41327   9.064  11.215  12.657  0.0241  0.3443  0.1074
25067W        W41328  13.366   0.279  11.713 -0.3279 -0.1977  0.0639
25068W        W41329   9.701   5.112  13.714 -0.4033  0.0026  0.3058
25069W        W41330   9.601  10.549  15.606  0.1524  0.3783 -0.0010
25070W        W41331   2.149   8.176   2.500  0.2932  0.2130 -0.0911
25071W        W41332  14.968   4.405  14.601  0.0567  0.2637  0.0008
25072W        W41333   4.269   8.953  16.649 -0.0139  0.1574  0.0939
25073W        W41334   6.701  12.701  13.360  0.3379  0.0259 -0.0895
25074W        W41335  11.838   0.355  15.729 -0.0662 -0.1532 -0.1326
25075W        W41336   7.679  17.136   1.915  0.0823 -0.2401 -0.0012
25076W        W41337  10.474  11.691  15.110 -0.2417 -0.2139 -0.1830
25077W        W41338   9.924  16.758  16.299  0.0516 -0.0643 -0.2781
25078W        W41339   0.778  14.972   0.749  0.0268 -0.2422 -0.0243
25079W        W41340  15.982  14.373  14.091 -0.1684 -0.1163 -0.0892
25080W        W41341  10.312  14.617   2.322 -0.0591 -0.1893 -0.0076
25081W        W41342  11.082   1.823  13.640  0.0532  0.1042  0.2393
25082W        W41343   0.028  16.536  15.524 -0.1656  0.1855 -0.0585
25083W        W41344  16.782  10.788  15.046  0.2457  0.3050 -0.1568
25084W        W41345   4.080  13.052  14.871 -0.1834  0.0521  0.2929
25085W        W41346   1.118  17.054  16.563  0.0687  0.3144 -0.0947
25086W        W41347   1.235   0.362  15.610  0.0417 -0.0427  0.2376
25087W        W41348   7.464   2.073   6.198 -0.0217 -0.0938  0.2449
25088W        W41349  16.877   8.442  14.131  0.2172 -0.0533 -0.0515
25089W        W41350   3.866  14.055   2.455 -0.0596  0.0495  0.0868
25090W        W41351  17.457   6.608  13.186  0.0703  0.0101 -0.1513
25091W        W41352   0.847  12.318  15.191 -0.0525 -0.2437  0.1095
25092W        W41353   5.070  13.219  16.187  0.2007 -0.1384 -0.0440
25093W        W41354   8.622   9.712   1.578 -0.0722 -0.0842  0.4779
25094W        W41355   2.867   5.449   2.351  0.2808  0.0671 -0.2991
25095W        W41356  17.134  11.268   2.125 -0.0016 -0.1747 -0.1197
25096W        W41357  11.061   8.682  15.816  0.1591  0.3284 -0.2917
25097W        W41358  11.810  11.358  16.362 -0.0740  0.2193  0.1189
25098W        W41359   1.090  16.503   2.753  0.1739 -0.1478  0.1258
25099W        W41360  13.930  14.511   0.442  0.1591  0.3158  0.0897
25100W        W41361  15.526  16.122   3.901 -0.1073  0.0138 -0.0618
25101W        W41362  17.145   1.049   2.330  0.0651  0.0693  0.1551
25102W        W41363   1.784   1.790  14.477 -0.4031 -0.0797  0.1212
25103W        W41364  12.257   5.139   4.134  0.1203 -0.1909  0.2409
25104W        W41365  12.719   5.342   0.764 -0.2128 -0.2293  0.0986
25105W        W41366  17.641   1.296  16.621 -0.0781 -0.0710 -0.2381
25106W        W41367   5.879   9.304   0.556  0.0351 -0.2598 -0.1057
25107W        W41368  11.001   4.910  12.814 -0.0544  0.0435  0.0193
25108W        W41369   7.021   6.363   2.087 -0.1555 -0.0748 -0.3694
25109W        W41370   4.648  13.745   4.739 -0.0027 -0.4011  0.1607
25110W        W41371   2.265  16.294  15.724 -0.1377  0.1426  0.0281
25111W        W41372  15.370  13.092   2.427  0.1172 -0.0871  0.3636
25112W        W41373   0.345   3.320  15.988  0.0173  0.0418 -0.1737
25113W        W41374  11.406   0.308   5.225  0.2385  0.1617  0.0917
25114W        W41375   9.009  17.628  14.163 -0.0297 -0.1218  0.0667
25115W        W41376   8.974  11.671  11.738 -0.0219 -0.0605 -0.1861
25116W        W41377   6.094  12.036   5.055 -0.1134  0.2742 -0.1276
25117W        W41378   1.696  12.267   0.732 -0.0450  0.1710  0.0925
25118W        W41379  14.531   3.624  15.232  0.3713  0.1688  0.0446
25119W        W41380  10.443  14.296  14.419 -0.1121 -0.0376 -0.2031
25120W        W41381   2.915   8.537  16.311 -0.2618  0.3201  0.0984
25121W        W41382  17.105   9.565   0.068  0.2817  0.1351 -0.0659
25122W        W41383  10.276  12.920   4.310 -0.1575  0.2553 -0.0614
25123W        W41384   7.426   6.183  15.561 -0.0952 -0.1435  0.0424
25124W        W41385   7.265  14.545  11.665  0.0095  0.4937  0.0334
25125W        W41386   1.420   3.111   2.825 -0.4079  0.0097 -0.1388
25126W        W41387   2.946   3.115   5.553 -0.0242  0.2382  0.1768
25127W        W41388  13.194  12.339   2.156 -0.1090 -0.1076  0.1611
25128W        W41389   5.931  12.253   2.955  0.1440  0.1160 -0.1880
25129W        W41390  15.989  14.924  15.785 -0.0083  0.0244 -0.0211
25130W        W41391   3.215  12.846  13.055  0.2630 -0.0457 -0.1319
25131W        W41392  16.299   4.458  13.445  0.3067 -0.1762 -0.3030
25132W        W41393  15.556   5.756   1.088 -0.0356  0.0761  0.4201
25133W        W41394  11.476  11.743  14.078  0.2809  0.0851 -0.0363
25134W        W41395   0.805   5.323   0.049  0.1010  0.1305 -0.1232
25135W        W41396   1.473  17.618   1.713 -0.0735  0.1754  0.0345
25136W        W41397   4.196   5.144  13.019  0.4331 -0.1766  0.3413
25137W        W41398  13.582   0.642   2.926  0.1650  0.0088 -0.2674
25138W        W41399  10.447   1.005  16.633  0.0875  0.0460 -0.0759
25139W        W41400   7.075  15.110  13.364 -0.0436 -0.3618  0.0485
25140W        W41401  15.884   0.743  16.115  0.0273 -0.2252 -0.0420
25141W        W41402  13.746  14.784  14.302  0.1892 -0.2822 -0.0141
25142W        W41403   6.425  14.870   3.636  0.1819 -0.0461  0.2612
25143W        W41404  17.732   7.204   5.730 -0.0454 -0.2201 -0.0952
25144W        W41405  13.118   2.920   3.172 -0.0613  0.2158 -0.2834
25145W        W41406  14.797  14.231   2.623 -0.0789 -0.1767  0.0762
25146W        W41407  10.921  11.101   2.811  0.1229  0.0103 -0.0742
25147W        W41408   3.091   2.132  13.559  0.2382  0.2326  0.0580
25148W        W41409   9.824   1.028   1.613  0.0358  0.4778  0.2423
25149W        W41410  15.877  15.888   4.142 -0.0936 -0.0729  0.2851
25150W        W41411  14.198   6.435   4.761 -0.0463 -0.1439 -0.0785
25151W        W41412   0.843   8.019  14.054  0.3835 -0.0599  0.0319
25152W        W41413   9.938   2.057   4.861 -0.0151 -0.2319 -0.3863
25153W        W41414   3.839   4.039  16.276 -0.0698 -0.0130  0.0563
25154W        W41415  12.203   4.586   5.394  0.2676  0.0433  0.0074
25155W        W41416   0.341  16.006   4.773 -0.0081 -0.0051  0.2123
25156W        W41417   5.880  11.024   0.459  0.0722  0.2688 -0.1389
25157W        W41418   6.235  11.434  15.472  0.2163  0.0810  0.4035
25158W        W41419  17.551   8.731   2.862  0.2711 -0.2536  0.3083
25159W        W41420   8.467   8.244  11.540  0.1708 -0.0662 -0.0545
25160W        W41421   6.917   7.946  13.650  0.1286 -0.0877 -0.1984
25161W        W41422   9.140  10.330   4.547  0.2473  0.1086  0.0106
25162W        W41423   9.514  10.019   1.876 -0.1476 -0.0020 -0.0943
25163W        W41424  13.016   8.310  14.411  0.2305 -0.1429  0.1132
25164W        W41425  10.056  12.549   6.894 -0.2447 -0.1101 -0.1593
25165W        W41426  15.983  13.379   6.542 -0.1189 -0.1968  0.2806
25166W        W41427   4.549  12.153   6.214 -0.0242 -0.1568  0.1636
25167W        W41428  12.703  14.131  16.713 -0.0357  0.1204  0.1940
25168W        W41429   4.940  12.080   1.121 -0.1036  0.2196  0.0623
25169W        W41430  15.343   0.081   4.828  0.0281 -0.0445  0.0509
25170W        W41431   4.405   4.109   3.509  0.1768  0.3311  0.0895
25171W        W41432  10.914  17.689  11.634 -0.1887 -0.2493  0.4652
25172W        W41433  10.643  12.821   5.408 -0.1882 -0.2507  0.0374
25173W        W41434  10.950  11.475  15.129  0.2904  0.2817 -0.1471
25174W        W41435   1.984  16.596   0.837  0.0723  0.3547 -0.0819
25175W        W41436   0.337   1.119   3.893 -0.1020 -0.1107  0.0844
25176W        W41437   3.597  13.474   3.171 -0.1425 -0.3739  0.1564
25177W        W41438  13.954   9.229  16.804  0.0274 -0.1708 -0.0110
25178W        W41439   2.689   4.429  14.881  0.2285 -0.0755 -0.2620
25179W        W41440   7.387  15.643  14.470  0.0799  0.2227  0.1682
25180W        W41441  15.129   8.805  11.863 -0.0670  0.3343 -0.3065
25181W        W41442  10.501   5.285   4.641 -0.2914 -0.2305  0.0378
25182W        W41443   6.002  17.672   1.457 -0.1222 -0.1768  0.0090
25183W        W41444  15.056   4.799  14.989 -0.0552 -0.1925  0.0240
25184W        W41445  15.379   7.897   6.117 -0.0527  0.0471  0.1269
25185W        W41446  15.662   3.626  12.635  0.0573 -0.1592  0.0397
25186W        W41447   3.800   4.444   2.107  0.0115 -0.0434  0.1227
25187W        W41448  13.299  11.700  11.920  0.2157 -0.0917  0.1841
25188W        W41449  14.097   2.888  16.632 -0.1607 -0.0001  0.0853
25189W        W41450   6.724   0.124  13.003 -0.0399  0.0959  0.0497
25190W        W41451  10.238   9.162   2.205  0.0338  0.3624 -0.1993
25191W        W41452   3.771   8.464  11.521  0.0995 -0.0802 -0.1294
25192W        W41453  16.483   6.062   0.338 -0.0567  0.0076  0.1379
25193W        W41454  11.122   9.648   5.356 -0.1192  0.0519  0.4013
25194W        W41455   4.587   2.811   4.706 -0.1688 -0.0015  0.0930
25195W        W41456   4.553   2.531   2.887 -0.0222 -0.1145  0.0568
25196W        W41457   0.943  15.088  14.728 -0.3988 -0.1542 -0.0572
25197W        W41458   9.338  12.810   5.656  0.0954  0.3198 -0.3572
25198W        W41459   6.077   9.561  14.810  0.0984  0.3009 -0.3359
25199W        W41460   9.187   0.202   5.450  0.2744  0.1418 -0.1623
25200W        W41461  11.940  12.453  15.080 -0.0290  0.0228  0.0021
25201W        W41462  14.034  11.840  11.765 -0.0530 -0.0020  0.2506
25202W        W41463   0.372   9.315   4.835 -0.2508  0.0557 -0.1252
25203W        W41464  15.483   0.934   2.937  0.2051  0.2245  0.1018
25204W        W41465   4.155   7.827   1.703 -0.0418 -0.0163 -0.2026
25205W        W41466  14.344  11.793  15.331  0.1270 -0.2013 -0.0704
25206W        W41467  16.296   2.258   4.873 -0.0473  0.0265 -0.1631
25207W        W41468   1.061   0.110  11.695  0.0867  0.2971 -0.2049
25208W        W41469  11.436  14.210  12.229  0.0007  0.3470  0.1265
25209W        W41470   7.293  15.817   2.907 -0.1567 -0.0308 -0.2467
25210W        W41471   0.374  11.264  16.122  0.0527 -0.0627  0.0982
25211W        W41472   2.384  14.210  13.426 -0.1349 -0.0962  0.4057
25212W        W41473   3.067   5.509   0.419 -0.1239 -0.1470 -0.0708
25213W        W41474  10.402  15.408  16.912 -0.0015  0.0252 -0.2025
25214W        W41475   0.711  11.179  13.566 -0.0300  0.2602  0.2407
25215W        W41476   5.081   8.435   2.839 -0.1745  0.3874  0.1324
25216W        W41477  17.617   9.540  14.321  0.1958  0.2733 -0.3589
25217W        W41478   3.944   4.603  14.765 -0.0913 -0.1783 -0.0638
25218W        W41479  11.041  16.582   3.599  0.0564  0.0596  0.1880
25219W        W41480   7.546  15.982   3.432 -0.3417  0.0924 -0.1564
25220W        W41481  14.560  12.655   2.605  0.0203 -0.0149 -0.3507
25221W        W41482  13.295   6.567  15.866  0.2062 -0.1046  0.2700
25222W        W41483  14.555  15.846   2.935 -0.0050  0.0824  0.0375
25223W        W41484  10.275  16.004  14.581 -0.1049 -0.1826 -0.0454
25224W        W41485  17.261  17.815  13.644  0.0232 -0.0317 -0.0986
25225W        W41486  15.307  16.148   1.926  0.0761  0.0595 -0.0763
25226W        W41487  17.553   6.747   4.969 -0.2962  0.0879 -0.1428
25227W        W41488   2.338  12.658   2.989 -0.0327 -0.1598  0.2298
25228W        W41489   9.864  17.180   1.223  0.0660  0.1787 -0.1739
25229W        W41490   3.563  13.158  16.941  0.1570  0.1771 -0.1498
25230W        W41491   7.612   5.402   0.885  0.0593  0.0431 -0.1305
25231W        W41492   5.262   4.950  13.592 -0.1865 -0.1555  0.3649
25232W        W41493  12.206  15.424   3.272 -0.0415  0.2277  0.0184
25233W        W41494   0.795   6.090  15.801  0.1438  0.0176 -0.3008
25234W        W41495   7.605   6.394   2.299  0.0191  0.1763  0.0527
25235W        W41496   9.257   5.837  16.332 -0.0373  0.3277  0.1508
25236W        W41497   2.206   0.223   3.152  0.1018  0.1477 -0.1027
25237W        W41498  12.480   8.170   1.976 -0.0083 -0.1038 -0.1034
25238W        W41499  12.034  13.368  14.587 -0.0283 -0.0588 -0.2769
25239W        W41500   7.420   6.553   0.818 -0.0925 -0.0270 -0.0902
25240W        W41501  13.667   1.899  10.952  0.1952 -0.1380  0.0742
25241W        W41502   2.266  17.373   5.555 -0.1072  0.2576 -0.0454
25242W        W41503   8.878   2.302   6.108 -0.0276 -0.1429 -0.0204
25243W        W41504  13.484  13.801   2.970  0.2037 -0.2437  0.2159
25244W        W41505   4.815  12.904   1.932 -0.1107 -0.0574  0.0006
25245W        W41506   3.256  13.557   3.604  0.1933 -0.0409  0.1526
25246W        W41507   2.583  15.504   2.284 -0.1193  0.1223  0.3708
25247W        W41508   5.435   6.038  12.345 -0.0321  0.2159 -0.2621
25248W        W41509  15.293  13.479   2.830 -0.1876  0.1002 -0.0535
25249W        W41510   0.437   0.981  14.748  0.1278  0.2785  0.0774
25250W        W41511   4.590   8.958   5.806  0.0743 -0.0173  0.2312
25251W        W41512  14.284   7.945  14.668 -0.0266  0.0474  0.0479
25252W        W41513  14.880  17.094  14.855  0.1833 -0.2682 -0.1781
25253W        W41514  16.875   6.237  12.673  0.2036 -0.1158  0.0647
25254W        W41515  16.969  15.067   4.813 -0.0007  0.0253  0.1643
25255W        W41516   3.940  12.632  14.604 -0.0277  0.0839  0.0664
25256W        W41517   0.320   6.257  16.889 -0.0387  0.0445 -0.1571
25257W        W41518   4.977   4.874  11.635 -0.0058 -0.0293  0.1760
25258W        W41519  12.917   0.235  16.412  0.0448  0.2498 -0.1000
25259W        W41520   5.448  13.083   0.216  0.2516 -0.0582 -0.4309
25260W        W41521   4.829  14.775   6.091  0.0027  0.0936  0.2208
25261W        W41522  14.191   9.893   5.377  0.0314 -0.2004  0.1952
25262W        W41523   1.334  14.999   0.020  0.0441 -0.0315  0.1783
25263W        W41524  14.348  13.186  16.314  0.1315  0.2591 -0.1009
25264W        W41525   6.499  14.342  16.149  0.2859 -0.4525  0.3068
25265W        W41526  11.119  12.735  13.912 -0.0143  0.1151  0.2995
25266W        W41527  10.573   0.629  15.670  0.1523  0.1259  0.1083
25267W        W41528   0.425   2.115   3.043 -0.1390  0.0473 -0.0485
25268W        W41529  12.445   9.044   4.383 -0.0799 -0.1143  0.2218
25269W        W41530   9.614  12.580  13.160 -0.1512 -0.1472 -0.2422
25270W        W41531  10.593   2.574  15.156 -0.0166 -0.0402  0.2852
25271W        W41532  16.363   4.806   4.412 -0.1672 -0.0096 -0.1070
25272W        W41533   3.708  13.840   3.522 -0.4234 -0.0849 -0.0643
25273W        W41534   5.463   0.269  13.480 -0.1406 -0.3671  0.1645
25274W        W41535   6.927  16.899   4.056 -0.0880 -0.1553 -0.1088
25275W        W41536   5.125   3.569   3.979 -0.3373 -0.0587  0.0982
25276W        W41537   7.986  16.104   3.563 -0.0590 -0.0914 -0.2428
25277W        W41538  14.005  16.144  12.743 -0.3051  0.3699 -0.1626
25278W        W41539  11.695   6.460   4.998 -0.1795  0.2622  0.0709
25279W        W41540   5.455  16.448  12.223  0.3645 -0.2000  0.2244
25280W        W41541  11.518   8.882  13.805 -0.0716 -0.0283  0.0634
25281W        W41542  13.351  13.432   1.939 -0.1983 -0.1086  0.0840
25282W        W41543  17.057   4.981   5.506  0.0452  0.0559 -0.3369
25283W        W41544   0.786   2.190   3.375 -0.2267 -0.3740 -0.0845
25284W        W41545  13.195  11.184   0.581  0.3425 -0.1416  0.1955
25285W        W41546   2.932  12.328   2.363 -0.2364 -0.0048 -0.2046
25286W        W41547   0.118   1.750  15.279 -0.1969 -0.1646 -0.1867
25287W        W41548   0.523   5.595  14.258 -0.0786 -0.0915 -0.2010
25288W        W41549   2.979   3.598   2.055  0.1960  0.0024  0.2963
25289W        W41550   2.229   1.819   0.941 -0.1875  0.3549  0.2768
25290W        W41551   8.492   6.677  11.228 -0.0373  0.2463  0.0373
25291W        W41552   5.503  10.187   4.017 -0.1372 -0.0770 -0.2369
25292W        W41553   9.293   4.369   5.466 -0.2088  0.1129  0.1118
25293W        W41554   1.279   1.427   2.937  0.1267 -0.0009  0.2137
25294W        W41555   0.241  16.845   2.062 -0.1465 -0.1664 -0.0453
25295W        W41556   8.907  13.433  16.908  0.1230  0.3667 -0.0248
25296W        W41557   6.361  12.202  11.625 -0.0044 -0.3430  0.0585
25297W        W41558   7.745  15.849  12.403  0.0577 -0.0630 -0.0078
25298W        W41559   3.639   5.794   1.875  0.2214  0.0528 -0.0395
25299W        W41560   6.854   2.886   1.021 -0.0710  0.0972  0.3265
25300W        W41561  10.813  10.037  15.317  0.0051 -0.2890  0.1471
25301W        W41562   1.240   2.415   2.841  0.1354 -0.0094 -0.0062
25302W        W41563   8.448  14.703  14.438  0.2978  0.0200  0.0730
25303W        W41564  13.390  12.660   0.268 -0.2603  0.0498  0.2750
25304W        W41565   3.523   0.452  11.874 -0.4690 -0.1701  0.2842
25305W        W41566  16.628   7.231   2.509 -0.0029 -0.1193  0.1554
25306W        W41567  14.141  10.215  13.358 -0.0569  0.2249  0.2931
25307W        W41568  14.906   5.027   1.704  0.1080 -0.2159 -0.3094
25308W        W41569  14.153   1.163  13.183  0.3425  0.0074 -0.5133
25309W        W41570   5.467   0.816  14.813  0.1430 -0.0404 -0.1747
25310W        W41571   9.577  10.128   1.149 -0.2213  0.2549 -0.1212
25311W        W41572   2.547  14.949  10.565  0.0034 -0.2116 -0.1171
25312W        W41573   8.227   2.673   4.401 -0.3299 -0.0462  0.2782
25313W        W41574   6.603  16.695   1.377 -0.0629  0.0681 -0.1067
25314W        W41575  12.672   6.412   5.041  0.1051 -0.0853  0.0193
25315W        W41576  11.303   2.729   1.518  0.2163  0.3289 -0.0587
25316W        W41577   0.122   6.676   3.348  0.1042 -0.0522  0.0964
25317W        W41578   3.055   7.028   3.896 -0.0434  0.0582  0.1463
25318W        W41579   2.641  12.213  13.306  0.0161  0.0190  0.1518
25319W        W41580   4.268   2.757   2.520  0.2186 -0.1994 -0.0391
25320W        W41581  15.303  17.828  14.093 -0.1978  0.3202 -0.3552
25321W        W41582  15.198   0.975  12.544  0.2511  0.0065  0.1517
25322W        W41583  15.367   2.469  13.317  0.1518  0.2742  0.2382
25323W        W41584   8.674   1.345  15.233 -0.2181 -0.0984  0.1688
25324W        W41585   1.477   8.068   0.609  0.0124  0.2666  0.0767
25325W        W41586  16.529  16.069   4.247  0.0303  0.1807 -0.0964
25326W        W41587  13.194  14.311   1.509  0.2754  0.1650 -0.0633
25327W        W41588  16.574  17.552  14.146  0.1874 -0.0431  0.1642
25328W        W41589   7.716   2.527  14.929  0.1655  0.1079 -0.1756
25329W        W41590   6.391   7.402   3.367 -0.0889 -0.2147 -0.3488
25330W        W41591  16.839   0.361   2.885  0.1264  0.1829 -0.0534
25331W        W41592  12.134   5.545  14.397 -0.0926  0.1685 -0.0919
25332W        W41593  16.304   8.346  15.441 -0.1618  0.1132 -0.0045
25333W        W41594   7.930   4.515  16.926 -0.3493  0.2212  0.2019
25334W        W41595  15.500   3.814   1.627 -0.0707  0.2692 -0.0385
25335W        W41596  15.362  10.589  15.409  0.0115 -0.0295  0.2657
25336W        W41597   7.204   7.654   4.239 -0.1067 -0.0582 -0.1032
25337W        W41598  10.940   6.119  11.723  0.0526  0.0831  0.2181
25338W        W41599   7.984  14.879  13.678  0.0935  0.2031 -0.0369
25339W        W41600   6.002  11.479   5.177  0.4519  0.0058  0.0837
25340W        W41601   9.383   6.723  15.755  0.3286  0.1466 -0.2724
25341W        W41602   5.720   0.922  15.592  0.1183 -0.0785 -0.3130
25342W        W41603  11.310   9.142   0.499  0.1344  0.0812  0.0445
25343W        W41604  11.109  13.732   5.301 -0.1645 -0.3319  0.2718
25344W        W41605   8.304   0.765   1.978 -0.3316  0.1131  0.1495
25345W        W41606  13.060   8.685   2.021  0.0064 -0.1957  0.0952
25346W        W41607   7.419   1.453   4.839  0.1299 -0.1692  0.2072
25347W        W41608   4.261   2.855  16.347 -0.1814 -0.0426 -0.2883
25348W        W41609  16.552  15.829   1.968 -0.0787  0.2085 -0.0725
25349W        W41610   0.200   2.936   2.633  0.1343 -0.0263 -0.0699
25350W        W41611  13.084   6.551   0.512 -0.4502  0.0151 -0.0102
25351W        W41612  10.678  15.601  11.705  0.2553  0.2191  0.0854
25352W        W41613   9.364   3.560   2.558 -0.0183  0.1380  0.1094
25353W        W41614  16.609   8.985  13.129  0.0675  0.1220  0.0785
25354W        W41615  11.555   1.803  15.579 -0.0794  0.0315  0.0751
25355W        W41616   7.757   4.013   3.999 -0.3307 -0.1923 -0.0295
25356W        W41617  10.353  10.251   5.577 -0.1767 -0.4350  0.0482
25357W        W41618   9.990   5.005  14.679  0.0615 -0.0595 -0.1304
25358W        W41619  11.105  12.545   1.956  0.1907  0.1669 -0.0636
25359W        W41620  12.751   6.950   1.838  0.0431 -0.1128  0.4157
25360W        W41621   3.585  11.608   2.580 -0.0657 -0.1375 -0.2137
25361W        W41622  15.140  16.730  15.507  0.1297  0.1318  0.1053
25362W        W41623  13.586   1.515  11.680  0.0224 -0.1299  0.2486
25363W        W41624   1.435  11.653  14.327  0.2391 -0.1661  0.0952
25364W        W41625  17.068  14.946  14.567 -0.2555 -0.4520  0.2768
25365W        W41626  15.111   1.951   4.326  0.1539 -0.2626 -0.1769
25366W        W41627  15.480   0.042  12.100 -0.1428  0.0022  0.0483
25367W        W41628  11.225  10.333   4.395  0.2251 -0.0473  0.2740
25368W        W41629  11.561  11.583   5.399  0.0443  0.0680  0.0511
25369W        W41630  12.924  13.649  14.311 -0.1440 -0.0068  0.0575
25370W        W41631   3.111  16.410  13.959  0.0873  0.3254 -0.0672
25371W        W41632   3.677  13.952  12.107  0.0240 -0.0379  0.1093
25372W        W41633  12.111   3.023   1.468 -0.1271  0.1585 -0.1152
25373W        W41634   5.363   5.368   0.012  0.1252  0.1674  0.3681
25374W        W41635   9.867   2.883  12.038 -0.2102 -0.0759  0.0664
25375W        W41636  16.543   3.192  16.897  0.0014  0.1285 -0.0015
25376W        W41637   9.718   5.322  15.591  0.2427 -0.0143 -0.0238
25377W        W41638   5.853   0.325   1.598 -0.2556  0.1407  0.0077
25378W        W41639  12.032   3.671  11.764 -0.0974  0.0500  0.1041
25379W        W41640   4.083  15.792  14.042 -0.2725 -0.0312  0.2220
25380W        W41641  16.349   7.922  16.744  0.1556  0.3242 -0.1883
25381W        W41642  15.004  10.427   2.299 -0.0342  0.1670  0.1854
25382W        W41643   9.676   8.206  12.329  0.1313  0.0302  0.2375
25383W        W41644   3.160   9.027   2.165 -0.2854  0.1812 -0.2091
25384W        W41645   1.274  12.318  13.760  0.0309  0.3167 -0.1030
25385W        W41646   1.209   1.837   4.166  0.2418 -0.1993 -0.2877
25386W        W41647  16.728   6.679  11.615 -0.0393  0.1930  0.1084
25387W        W41648   2.635  11.703   4.494  0.2138  0.0637  0.0657
25388W        W41649   3.739   1.010  13.180  0.0161  0.3273  0.0923
25389W        W41650   8.263   9.070  12.115  0.3581  0.2845  0.0883
25390W        W41651  13.101  16.956   5.605 -0.1780 -0.3438 -0.0374
25391W        W41652   1.129   3.481  16.971 -0.2190  0.0277  0.0279
25392W        W41653  16.299  15.729   1.568  0.1341  0.3769  0.2144
25393W        W41654   5.857  16.827  13.115  0.3077 -0.0131 -0.3186
25394W        W41655  15.286  16.384   1.462 -0.0130 -0.0067 -0.1096
25395W        W41656   7.962  13.909  13.572 -0.0326 -0.1811 -0.0463
25396W        W41657   1.042  13.054   2.957  0.1438  0.0955  0.0793
25397W        W41658  10.669   2.199   1.674  0.1282 -0.0047 -0.0168
25398W        W41659   9.639  11.658   2.509  0.0610 -0.1274  0.3369
25399W        W41660   8.363   0.808   4.838 -0.0460 -0.0040  0.1252
25400W        W41661  15.589  12.904   5.734 -0.2129  0.1177 -0.2109
25401W        W41662   9.990   1.534  16.657  0.0770  0.0735  0.0044
25402W        W41663   4.459   4.655   1.001 -0.0329 -0.0835 -0.1944
25403W        W41664  17.349  15.415   4.830 -0.0157 -0.3477 -0.2156
25404W        W41665  13.323  10.691  14.714 -0.1909  0.4089 -0.1242
25405W        W41666  14.535  13.597   5.649  0.1399  0.0142 -0.1715
25406W        W41667  14.913  12.717   3.011  0.1609  0.2791  0.1631
25407W        W41668  10.191  16.412  14.335 -0.3741 -0.0944  0.0623
25408W        W41669   7.465  11.997   5.740  0.0831 -0.1134 -0.3468
25409W        W41670   1.500   0.353  11.770  0.0180  0.3928  0.2969
25410W        W41671  15.788   0.400   1.589  0.0689 -0.1237  0.0371
25411W        W41672  16.960   0.538  16.929  0.0218  0.0183 -0.1573
25412W        W41673   0.152   6.265   1.254  0.0859 -0.0773  0.0927
25413W        W41674   8.286  14.921   1.646 -0.0447  0.1707  0.1533
25414W        W41675   7.873  12.818   1.581  0.0389  0.0376 -0.0786
25415W        W41676  17.286  16.138   5.463  0.0724 -0.0394  0.0705
25416W        W41677   8.373  13.945   1.525 -0.2088  0.1297  0.4116
25417W        W41678   8.858  11.130   3.191  0.2837 -0.1780 -0.1974
25418W        W41679  17.727  10.503   0.554  0.3149  0.0881 -0.0995
25419W        W41680  15.031   4.737  13.977  0.2855 -0.0872  0.3336
25420W        W41681  11.720  13.507  15.586 -0.0620 -0.1703 -0.0860
25421W        W41682  12.805  16.539   6.380 -0.1821  0.2938 -0.3663
25422W        W41683  15.928   5.970  13.809  0.1284  0.0201 -0.0325
25423W        W41684  12.008  11.524   5.167  0.1037  0.0130  0.1600
25424W        W41685   0.373  17.801   2.546 -0.3891  0.1689  0.0063
25425W        W41686  11.679  14.997  13.324  0.1350 -0.1806  0.2957
25426W        W41687  12.608   3.432   2.893  0.0545 -0.4299  0.2267
25427W        W41688  13.524   6.513  14.274  0.0695  0.0596 -0.2254
25428W        W41689  17.450   9.594   2.780 -0.1742 -0.0024  0.0816
25429W        W41690   1.927   7.187   2.186 -0.0559 -0.0633 -0.1275
25430W        W41691  17.833   5.727   3.130 -0.1409 -0.2850 -0.1493
25431W        W41692   4.649  10.716   3.266 -0.0939 -0.3576  0.1430
25432W        W41693   6.752   2.030  13.430  0.1251 -0.0443 -0.2919
25433W        W41694  12.837  13.437  13.792 -0.0250  0.2774  0.1242
25434W        W41695   2.080   6.381   0.513  0.2043  0.0119 -0.2899
25435W        W41696   4.618   9.891  13.873 -0.4337  0.0525  0.0235
25436W        W41697  11.132  12.894  14.731  0.1527  0.1407 -0.0658
25437W        W41698  11.983  15.423   0.991  0.0999  0.0215 -0.4295
25438W        W41699   2.094  17.697   3.486 -0.0371  0.0562  0.0512
25439W        W41700   6.686   5.799   3.714  0.1841  0.0581  0.1402
25440W        W41701  14.082   4.553   2.478 -0.0552 -0.0899 -0.0346
25441W        W41702  14.342  16.867   5.959  0.0060  0.1578  0.0506
25442W        W41703   1.883  10.215  13.006  0.2976 -0.0673  0.3682
25443W        W41704  17.574  12.619   0.302 -0.1292 -0.0879  0.2261
25444W        W41705   2.734  11.681  13.468 -0.0752 -0.2123  0.0929
25445W        W41706   9.520   7.092   4.860 -0.0708  0.1904  0.3434
25446W        W41707   4.310  10.068  15.944 -0.2113  0.2945 -0.0657
25447W        W41708  13.565   0.966   1.678 -0.1423 -0.1041  0.1677
25448W        W41709  16.502   7.912   3.104  0.3605  0.1438 -0.0073
25449W        W41710   8.142  10.428   1.092  0.3801 -0.3023 -0.0972
25450W        W41711   6.392   2.760   2.470 -0.0199 -0.0583 -0.1148
25451W        W41712   9.595   2.624  14.421 -0.0734  0.1835 -0.0144
25452W        W41713   1.177   3.951  12.290 -0.0396  0.1998 -0.0654
25453W        W41714   8.671   1.781   2.794 -0.1113 -0.1532 -0.4193
25454W        W41715   3.811   3.364   0.758 -0.1558  0.0005  0.1224
25455W        W41716  15.722  15.575  13.768  0.0961 -0.3720  0.0364
25456W        W41717   4.003   1.422   2.864 -0.0144  0.3086  0.1023
25457W        W41718  13.830  15.180   3.393 -0.2981  0.2896 -0.0937
25458W        W41719   5.735  11.417  14.740  0.0389 -0.1572  0.2732
25459W        W41720   0.120   0.200  14.773  0.0041 -0.0043  0.2102
25460W        W41721   0.530  16.076   2.165  0.1080  0.1948  0.0502
25461W        W41722  16.720   1.446   4.344 -0.0306  0.0900 -0.2863
25462W        W41723  12.178  16.005  13.352  0.0741  0.0737 -0.0813
25463W        W41724   3.246  11.688   3.116  0.1048  0.0916 -0.1486
25464W        W41725   3.867  13.165  15.289  0.3305  0.4330 -0.1455
25465W        W41726  13.719   2.508   4.178  0.2423 -0.0384 -0.1731
25466W        W41727   8.276  10.274   2.947  0.0487 -0.2052 -0.1864
25467W        W41728  11.415   1.187  14.733 -0.1841 -0.1598 -0.1439
25468W        W41729   3.262   4.968  14.995 -0.0453 -0.1043  0.0943
25469W        W41730  12.867  12.544   0.519  0.0228  0.0833 -0.0878
25470W        W41731  16.740   3.220   1.707 -0.1598 -0.3029 -0.2175
25471W        W41732   0.192   0.171   0.778  0.1806 -0.1258 -0.1246
25472W        W41733  16.793  12.473   3.170  0.2209  0.0529  0.6825
25473W        W41734   4.270  16.831  16.832 -0.2003 -0.0785  0.0432
25474W        W41735   6.233  13.573   4.645  0.0927  0.0435  0.0538
25475W        W41736  17.218  11.886   5.613 -0.0715 -0.0911  0.0706
25476W        W41737   3.689   8.688  15.953 -0.0285  0.2191  0.0851
25477W        W41738   9.016   1.167   5.144 -0.3371  0.0190  0.0353
25478W        W41739   7.021   0.175  16.039 -0.1053 -0.0902  0.0343
25479W        W41740  10.354   9.858  15.435 -0.0329 -0.0563  0.2693
25480W        W41741   8.458   0.507   1.519  0.0082 -0.2341  0.2963
25481W        W41742  17.659  10.001   2.508  0.1375  0.0560  0.0661
25482W        W41743  14.394  12.192  16.578  0.3416  0.0248 -0.0609
25483W        W41744  10.280   5.239   0.672  0.0773 -0.0070 -0.2837
25484W        W41745   0.437  11.092   5.312  0.2636  0.1633  0.1098
25485W        W41746  13.505  10.832  11.814  0.0038  0.1391 -0.3149
25486W        W41747  14.884   3.517   4.407 -0.3023  0.0451  0.2361
25487W        W41748  10.285   7.172  16.539 -0.2018  0.1165  0.0072
25488W        W41749  14.173   1.905   4.406  0.0473  0.0933 -0.1941
25489W        W41750  14.428  17.324  15.085  0.0890 -0.2109 -0.0730
25490W        W41751   9.959  11.192  13.172  0.1082  0.1243  0.1337
25491W        W41752  13.868   5.685  12.195  0.2232 -0.0435 -0.0431
25492W        W41753   3.682   6.444   4.893 -0.1022  0.0868 -0.1720
25493W        W41754  13.800  15.010   1.746 -0.1941  0.0044 -0.1681
25494W        W41755   0.123   1.221  15.051 -0.0513 -0.0529 -0.2119
25495W        W41756  10.232   6.508   1.469  0.0031  0.0572 -0.1090
25496W        W41757   1.720   9.761   4.034 -0.0609  0.1455 -0.0087
25497W        W41758  17.392   4.703   1.241 -0.1749 -0.1559 -0.0791
25498W        W41759  11.442  11.345  13.651  0.0935  0.0587 -0.3706
25499W        W41760   6.664   7.462   0.241 -0.0965  0.0003 -0.0140
25500W        W41761  15.075  10.987   5.291  0.1178 -0.1354  0.0985
25501W        W41762   6.942  15.948  13.212 -0.1638  0.2242  0.0966
25502W        W41763   6.474  15.754   2.287  0.3251  0.0810 -0.2467
25503W        W41764  15.277  11.682   1.796  0.1351 -0.0943  0.0822
25504W        W41765  12.590   9.545  13.973  0.0127  0.0465 -0.1098
25505W        W41766  14.232  13.329  12.665  0.1189 -0.2317  0.0450
25506W        W41767   3.935   2.136   0.398  0.3323  0.1775  0.3619
25507W        W41768   8.242   0.640   6.119  0.2354 -0.0134 -0.1264
25508W        W41769  11.835  17.312  15.627 -0.0990 -0.1876 -0.2299
25509W        W41770   9.522  11.312  14.916 -0.2025 -0.3728 -0.0276
25510W        W41771   0.911   3.047   0.448 -0.1489  0.0308 -0.0165
25511W        W41772   8.120  12.628   2.968 -0.0223  0.1470  0.0127
25512W        W41773   3.058  11.178   4.950  0.0584  0.2656  0.2230
25513W        W41774   8.653   2.282   2.002 -0.1448 -0.0523  0.0363
25514W        W41775   7.674   5.847  14.715 -0.0900  0.0808 -0.0208
25515W        W41776  14.180   9.332  15.307 -0.2343  0.0873 -0.2035
25516W        W41777  16.006   1.634   1.916  0.1369  0.2255  0.1243
25517W        W41778  16.008  11.098   0.419  0.1718 -0.0237  0.3494
25518W        W41779   4.150   1.563  11.835  0.2643 -0.1065 -0.3025
25519W        W41780   0.297   2.933   3.207 -0.0814  0.0252 -0.1073
25520W        W41781  17.110   3.459  15.011  0.0963  0.2042  0.0003
25521W        W41782  10.211   3.182   5.355  0.0094  0.0946  0.1238
25522W        W41783   5.252  11.340   3.689 -0.0620  0.2504 -0.1972
25523W        W41784   9.212  14.602   5.808 -0.0356  0.0203 -0.1211
25524W        W41785  15.620  13.246  14.962 -0.2093  0.3495  0.1960
25525W        W41786  14.153  12.598  12.035  0.0260 -0.0102  0.1346
25526W        W41787   3.886   0.830  15.407  0.0450  0.1598 -0.0880
25527W        W41788  12.426  12.547   0.239  0.3016  0.0463 -0.3688
25528W        W41789   3.379   8.574  14.079 -0.1591 -0.3100  0.3228
25529W        W41790   3.213   5.517  15.673 -0.3060 -0.1189 -0.1075
25530W        W41791  17.438   0.321   0.065 -0.3496 -0.3311  0.1512
25531W        W41792  15.464  11.607  11.880  0.0114 -0.1218 -0.1049
25532W        W41793  16.779   0.044   1.749  0.2516 -0.2026  0.1269
25533W        W41794  13.392   2.446   0.666 -0.3680  0.1042 -0.1676
25534W        W41795  11.746   8.899   5.391 -0.0915  0.2028 -0.1043
25535W        W41796   8.388   2.511  12.841 -0.2547 -0.0462  0.1558
25536W        W41797   7.718   4.928   2.948  0.2040 -0.0275 -0.0959
25537W        W41798  11.440   2.585   1.987 -0.1581 -0.0483  0.2094
25538W        W41799  13.537   9.903   5.147 -0.0764 -0.1613  0.2172
25539W        W41800  17.163   6.281  16.786  0.2353  0.1882  0.0606
25540W        W41801  12.055  10.527  14.323 -0.0221  0.2658 -0.3172
25541W        W41802   2.970  16.253   2.701 -0.0666 -0.2554 -0.1796
25542W        W41803   0.195   8.463  15.771  0.1828  0.0355  0.0215
25543W        W41804   6.739   3.580  14.907 -0.4211 -0.0060 -0.2079
25544W        W41805   7.480   6.759   5.456 -0.1130 -0.0039 -0.3332
25545W        W41806   0.421  16.440  14.272  0.0318  0.3341  0.1899
25546W        W41807   9.033  13.486  16.096 -0.3005 -0.0312  0.2757
25547W        W41808  11.442  13.029  12.117 -0.1721  0.2496 -0.0461
25548W        W41809  10.615  15.966   0.624  0.1997 -0.0761 -0.1767
25549W        W41810   9.697   3.929   1.668 -0.4491 -0.0931 -0.2786
25550W        W41811   1.451   4.849  13.911 -0.2399 -0.0600  0.0485
25551W        W41812   5.607  14.328   0.275  0.2557 -0.0855  0.0584
25552W        W41813   2.540  14.586   5.835  0.0253 -0.0105 -0.2100
25553W        W41814   7.236  10.705  15.475 -0.2099 -0.0630 -0.1750
25554W        W41815   0.120  11.773   2.476 -0.0821  0.0486 -0.2981
25555W        W41816   1.903  17.536  12.216 -0.0806  0.0751  0.2871
25556W        W41817   1.249   3.105  13.445  0.0766 -0.4894 -0.1368
25557W        W41818   0.674   9.523  11.940 -0.1427 -0.2871  0.0374
25558W        W41819  10.908  13.153   1.740 -0.0373 -0.1282 -0.1451
25559W        W41820   0.882   2.707  14.253  0.1013  0.0418  0.2248
25560W        W41821   0.736  17.453   2.343 -0.0135 -0.1169  0.1197
25561W        W41822  10.351   4.909   2.659  0.1462  0.1205 -0.1279
25562W        W41823   2.252  15.579  16.016 -0.0338  0.3363 -0.2157
25563W        W41824   2.065  10.111   1.031  0.0557  0.0920 -0.2423
25564W        W41825   7.314  15.929  13.643  0.1154  0.0434 -0.1181
25565W        W41826   9.005  15.653  15.795 -0.1271  0.0610 -0.0285
25566W        W41827  14.421   8.662   2.863 -0.1227 -0.0007  0.1717
25567W        W41828  16.643   6.860   3.195 -0.1820 -0.1732 -0.0671
25568W        W41829   9.452  16.297  11.933  0.0483  0.1445 -0.1795
25569W        W41830   1.712  12.512  13.630  0.0006 -0.1380  0.1383
25570W        W41831   3.889   8.897  15.120  0.1725 -0.4791 -0.1587
25571W        W41832   6.523  12.061   1.583 -0.1538 -0.0721 -0.2004
25572W        W41833   5.093   2.213   5.187  0.0181  0.0703  0.1785
25573W        W41834   5.526  12.402   1.581 -0.3395  0.0131  0.1047
25574W        W41835  17.280   9.537   4.567  0.3023  0.0628  0.2212
25575W        W41836  15.121  12.570   1.957  0.0470 -0.1353  0.0232
25576W        W41837  13.961  13.973  13.458  0.1180 -0.3488 -0.0323
25577W        W41838   2.294  14.560   4.519 -0.1133 -0.0821 -0.0059
25578W        W41839  11.119   8.296   5.547  0.0754  0.0349 -0.0876
25579W        W41840  10.654   0.134  16.291 -0.2518 -0.0555 -0.0721
25580W        W41841  11.784   2.725   5.510 -0.2157  0.0810 -0.1895
25581W        W41842   5.120   4.072  15.834  0.2512 -0.0484 -0.0731
25582W        W41843  15.303  15.968  13.633  0.1717 -0.2411  0.0695
25583W        W41844  10.608   3.754  14.386  0.2849  0.1103  0.1554
25584W        W41845  13.391  10.582  12.710  0.0936 -0.0598 -0.0194
25585W        W41846  17.610  10.572  14.471  0.0556  0.0594  0.3984
25586W        W41847  13.748   6.199   2.073  0.4277 -0.0682 -0.3256
25587W        W41848   2.520   6.214  15.779 -0.2405 -0.0085 -0.0113
25588W        W41849   1.910   1.930   5.446  0.2224 -0.2397 -0.4598
25589W        W41850   8.113   2.081  13.014 -0.3241 -0.0522  0.1482
25590W        W41851   1.223   3.498   1.421  0.1334 -0.2586  0.2990
25591W        W41852   6.721   7.977   1.280 -0.3806  0.0891 -0.2033
25592W        W41853  16.510  17.443  12.501  0.1530  0.0249  0.0061
25593W        W41854   4.053  11.584  13.244  0.0961  0.0484  0.1988
25594W        W41855   6.228   5.885   2.951  0.4142 -0.1498 -0.1167
25595W        W41856   2.296   1.991  12.676 -0.3521  0.0778 -0.2325
25596W        W41857   9.707   0.275   5.299 -0.1129 -0.0917 -0.1871
25597W        W41858   1.779   0.493  13.273 -0.0366 -0.0171  0.1726
25598W        W41859  16.719   3.794  15.050 -0.0134 -0.1186 -0.3126
25599W        W41860   5.254   2.356   0.992 -0.2285  0.1652  0.0242
25600W        W41861  13.696  14.087   4.007  0.0498 -0.0568 -0.0432
25601W        W41862   3.809  11.818   5.833 -0.1062 -0.0319 -0.2083
25602W        W41863  14.148   7.163   1.452  0.1144 -0.1285  0.1716
25603W        W41864  12.832   1.784   2.833 -0.0362  0.0052 -0.2686
25604W        W41865  13.568  13.121   1.081 -0.0071  0.1150  0.0949
25605W        W41866   2.970  15.401  12.355 -0.2299 -0.1863 -0.3618
25606W        W41867  10.246  13.448   2.872  0.1683 -0.0158  0.2216
25607W        W41868   9.714   9.374   0.587  0.2875 -0.0906  0.4108
25608W        W41869  17.705  17.843   5.679  0.0690  0.2846  0.3731
25609W        W41870   5.486   6.185   1.134  0.0915  0.1038 -0.1504
25610W        W41871   9.457   0.984  13.547 -0.1526 -0.1470  0.1484
25611W        W41872   0.486   4.943   1.537 -0.0303 -0.1182 -0.1499
25612W        W41873   4.588  15.979  13.856  0.2496  0.0231 -0.1259
25613W        W41874   4.193   5.459  12.529 -0.0836 -0.0535  0.1800
25614W        W41875  16.284  11.083   4.282 -0.3565 -0.4901  0.1097
25615W        W41876   5.814   9.726  15.723  0.0868  0.3647 -0.4554
25616W        W41877   1.790   2.354  14.535 -0.1972 -0.0316  0.0812
25617W        W41878  13.191  14.718   2.505  0.0451  0.0936 -0.0156
25618W        W41879  16.303   0.589  15.511 -0.1770  0.2703 -0.0076
25619W        W41880   5.524   3.993  15.513 -0.0993  0.1313  0.1958
25620W        W41881  16.088   3.038  11.970  0.1338 -0.0865 -0.1154
25621W        W41882  14.764   5.350  13.219 -0.1258 -0.1070  0.0952
25622W        W41883  13.509  16.769   5.421  0.1451 -0.0353 -0.2987
25623W        W41884   3.783   8.040   2.693  0.0391 -0.3241 -0.0889
25624W        W41885   5.659  11.486   1.316  0.3303  0.0157 -0.1611
25625W        W41886  12.403   0.777   3.175 -0.3338 -0.3062  0.0922
25626W        W41887   1.591  15.187   2.737 -0.3094 -0.4935 -0.0644
25627W        W41888   2.636   5.938  13.181  0.2081  0.3333 -0.0810
25628W        W41889   3.132  11.978  14.985  0.0370 -0.0499  0.0967
25629W        W41890   8.707   8.897   0.984 -0.4643  0.1820 -0.1386
25630W        W41891  13.357   0.915  14.593  0.1891 -0.2789  0.3857
25631W        W41892  17.380   5.077  15.163 -0.2130 -0.0950  0.0565
25632W        W41893   3.158  13.452   4.786 -0.0051  0.2700 -0.2880
25633W        W41894   1.500   3.953  15.130  0.4131  0.4319  0.0401
25634W        W41895  13.167  15.344   0.081  0.4120 -0.0087 -0.2285
25635W        W41896   6.409  17.526   5.219 -0.1068  0.1012  0.0316
25636W        W41897  13.351  17.023  14.339 -0.1676  0.1038  0.0933
25637W        W41898  10.330  16.474   2.938 -0.1383  0.0430  0.1123
25638W        W41899   5.780  10.122   3.167  0.3153 -0.0310 -0.0109
25639W        W41900  12.261  15.890   4.012  0.2656 -0.1183 -0.3221
25640W        W41901  10.234  10.056   2.548 -0.0087 -0.3265  0.0961
25641W        W41902  11.384   2.656  15.626  0.0827  0.0557  0.0919
25642W        W41903  13.462   7.543  13.933 -0.0171  0.5027  0.0398
25643W        W41904   0.515  14.548   1.604  0.1498  0.1603  0.1677
25644W        W41905  10.482   4.545   0.481 -0.1829  0.3626  0.0006
25645W        W41906   6.582   4.598  13.426  0.1531 -0.2046  0.2722
25646W        W41907   0.572   4.058  12.220 -0.1453 -0.0095 -0.0782
25647W        W41908  11.749  17.645   3.148  0.1921  0.0444 -0.0473
25648W        W41909   2.106   3.564   5.997  0.1307 -0.1848 -0.0639
25649W        W41910   1.017   6.973   4.464 -0.0561 -0.1479 -0.1382
25650W        W41911  13.480  10.986   5.545  0.2996  0.2070 -0.2055
25651W        W41912  17.659   1.217  15.970  0.1888  0.0789 -0.0487
25652W        W41913   4.551   5.504  12.968  0.0190 -0.0950  0.1182
25653W        W41914   2.580   2.199   4.284 -0.0355  0.0614 -0.1166
25654W        W41915   6.994   5.899  12.192  0.0851 -0.0235 -0.1332
25655W        W41916   4.716  16.952  12.654 -0.1772 -0.0329  0.3482
25656W        W41917  13.708  17.029   1.735  0.5269 -0.1485 -0.1058
25657W        W41918  10.136  12.471  14.885  0.1990  0.2407 -0.1894
25658W        W41919   1.361   6.758  14.447  0.0829 -0.0064 -0.0319
25659W        W41920   3.580   9.593   4.464  0.1959  0.1746 -0.0289
25660W        W41921   8.127  17.132  11.864 -0.1166  0.1071 -0.1969
25661W        W41922   0.008   9.649   0.867  0.1279  0.0673  0.0039
25662W        W41923   2.611   1.127  12.202  0.0366 -0.2097  0.1283
25663W        W41924  13.411  14.228   6.483  0.2423 -0.0448 -0.2691
25664W        W41925   2.851   1.538  16.074 -0.1351  0.0946  0.0818
25665W        W41926  16.218  15.503   5.046  0.0160  0.0296 -0.2445
25666W        W41927   8.968  12.434   5.858  0.0836  0.1039  0.1883
25667W        W41928  15.201   8.188  14.391  0.1690  0.1040 -0.1553
25668W        W41929   3.228  12.277  15.372 -0.1171  0.0383  0.2261
25669W        W41930  10.176   2.936  12.444 -0.0698 -0.0693 -0.0460
25670W        W41931   2.547  11.849   1.551 -0.1053 -0.2925 -0.0224
25671W        W41932   1.141  17.411   5.506  0.3906  0.1516 -0.2007
25672W        W41933  15.807  17.833   3.806  0.0371 -0.0497 -0.0273
25673W        W41934  16.228  15.616  15.546  0.3106 -0.0620  0.3421
25674W        W41935  12.410  13.195  12.975 -0.0954  0.0229 -0.0179
25675W        W41936   3.609   2.134   6.574  0.1342  0.0101 -0.1700
25676W        W41937  15.426   3.878  13.462 -0.1246  0.2962 -0.1939
25677W        W41938   0.481   4.080   6.076 -0.0929  0.0737 -0.0903
25678W        W41939  13.849  10.694   3.604  0.0486 -0.2252 -0.0592
25679W        W41940  15.285  14.799   1.540  0.5123  0.2069  0.0640
25680W        W41941   4.322  15.377   2.606  0.2086 -0.1007  0.1016
25681W        W41942  12.097  10.906  14.701 -0.1380 -0.2378  0.2304
25682W        W41943   3.999  16.352  13.745  0.0453 -0.3601  0.0170
25683W        W41944  14.096  10.506   1.914 -0.1185  0.0762  0.0710
25684W        W41945  14.399   2.591   3.402 -0.1382 -0.0649 -0.2014
25685W        W41946   0.445   8.542  12.594 -0.0261  0.3136  0.2272
25686W        W41947  11.348   0.729  14.505  0.0069  0.0144  0.0174
25687W        W41948  11.825   4.487  12.087  0.0239 -0.1036  0.0927
25688W        W41949  10.794   9.432  13.412 -0.1548  0.2489  0.0093
25689W        W41950   2.599  11.974  12.884  0.2171 -0.0010  0.2051
25690W        W41951   4.380   0.068  12.544  0.0464 -0.2583 -0.0272
25691W        W41952  10.488   0.581  13.926  0.3100  0.1148 -0.0206
25692W        W41953   4.146   7.479   2.074  0.0097  0.1241  0.0413
25693W        W41954  10.716  17.238   3.109  0.0707  0.3170  0.0664
25694W        W41955   0.577  14.153  12.867 -0.3498  0.3209 -0.0208
25695W        W41956  13.649  15.110   4.946 -0.4675  0.0180 -0.1110
25696W        W41957  12.003   7.095   0.656  0.1402  0.0522 -0.2935
25697W        W41958   8.349  12.654   3.560 -0.0170  0.2469  0.1289
25698W        W41959  10.712  17.061  16.149 -0.0598 -0.0557  0.1988
25699W        W41960   2.694   0.011   3.163  0.0409  0.1918  0.0614
25700W        W41961   2.444   1.492  12.524  0.1195 -0.1533  0.0076
25701W        W41962   2.953   3.271   6.055  0.0398 -0.0819  0.2590
25702W        W41963   6.344   0.425  14.898 -0.2043  0.4018  0.3143
25703W        W41964   6.900  17.053   3.301  0.0738  0.0699 -0.1608
25704W        W41965   9.828   6.144   3.124 -0.2670 -0.1403 -0.0956
25705W        W41966   6.807  16.250   4.685 -0.0015 -0.0340 -0.4060
25706W        W41967  13.653   9.252  14.919 -0.0679 -0.0206 -0.3243
25707W        W41968  11.385   4.389   1.799  0.1149  0.2373 -0.1413
25708W        W41969  17.450   8.504  14.143 -0.0684 -0.0472  0.1674
25709W        W41970   6.471  10.985  11.795  0.2138 -0.0096 -0.3204
25710W        W41971   5.992   0.681   4.361 -0.0534 -0.2967 -0.1467
25711W        W41972  13.284   7.987  16.962  0.0562  0.0458  0.0670
25712W        W41973  10.556   9.328   0.586  0.1801 -0.0127  0.0304
25713W        W41974   9.743  11.585  13.973 -0.1154  0.0990  0.0978
25714W        W41975  13.164  13.188  15.091 -0.1557 -0.0546 -0.1507
25715W        W41976   5.310  12.808   1.698  0.2418  0.2289 -0.3632
25716W        W41977   9.962   3.736  15.932  0.2745 -0.1864  0.1282
25717W        W41978  12.885  12.554  11.264 -0.0057  0.1973  0.1454
25718W        W41979  16.913  11.653   3.771 -0.0923  0.1424  0.1460
25719W        W41980   1.859   9.651  13.750  0.0380  0.1391 -0.1312
25720W        W41981   5.730  16.382   0.826 -0.4072  0.2055  0.4303
25721W        W41982   3.934  15.790  15.105 -0.1048 -0.0290 -0.0604
25722W        W41983   9.355   2.766  16.879 -0.0295 -0.0097 -0.1711
25723W        W41984   5.672   6.715   4.232  0.0063  0.1605  0.0165
25724W        W41985   7.945   9.393  11.711  0.0038  0.1514  0.0286
25725W        W41986   4.606  10.794  14.316 -0.1268  0.0478  0.1127
25726W        W41987   7.922   4.349   0.858 -0.0817 -0.1162 -0.0380
25727W        W41988   0.847   7.847  15.219 -0.3666 -0.0326 -0.1644
25728W        W41989  14.884  16.175   2.259 -0.1716 -0.0601  0.1765
25729W        W41990  16.171   7.639   4.000  0.1181 -0.2100  0.0107
25730W        W41991  10.789   8.044  14.269  0.2442  0.0983  0.1174
25731W        W41992  12.478  16.332   1.588  0.0600  0.0571  0.1571
25732W        W41993  17.530  11.037   0.395 -0.1425  0.2051  0.1952
25733W        W41994   5.685  16.846   0.928 -0.0303 -0.1820 -0.1055
25734W        W41995   1.249  11.431  15.042  0.3649 -0.0448 -0.0339
25735W        W41996  13.810   8.972   5.409 -0.2142  0.0055  0.0209
25736W        W41997   0.891   3.173   1.080 -0.0617 -0.1649  0.0498
25737W        W41998  15.093  13.349   6.421 -0.0719 -0.3176 -0.1020
25738W        W41999  16.662   6.052   1.574  0.2269  0.0835 -0.1714
25739W        W42000  10.915  13.485  16.274 -0.1778  0.0036  0.1123
25740W        W42001   1.681  10.647  16.227  0.0334 -0.1484 -0.1261
25741W        W42002  11.102   4.336  16.651  0.1719  0.0592  0.1136
25742W        W42003   3.380   5.426  15.196  0.1190 -0.0333  0.0189
25743W        W42004   3.379   3.326   2.129 -0.1478  0.0247  0.1695
25744W        W42005  16.030   8.651   3.253  0.2596  0.0134  0.3427
25745W        W42006   4.114  11.262  15.168 -0.1106  0.3022  0.0697
25746W        W42007  12.593  16.548   2.763  0.0138  0.0487  0.0012
25747W        W42008   2.337   6.781   0.671 -0.1153 -0.0566  0.2630
25748W        W42009  11.129   8.571  13.730 -0.0931 -0.2611  0.1543
25749W        W42010  10.274  10.182  14.093 -0.1964 -0.3321 -0.2223
25750W        W42011  12.874  17.836  12.166 -0.1979 -0.0836 -0.0698
25751W        W42012   7.991   7.353   0.365 -0.1029  0.0648  0.3625
25752W        W42013  16.244   6.828   2.727 -0.1436  0.2051 -0.2073
25753W        W42014   9.901   2.361   3.649 -0.0602 -0.2329 -0.1271
25754W        W42015  12.736   4.608  11.947 -0.3481 -0.4106 -0.1707
25755W        W42016   1.167  16.185  16.279  0.1513 -0.2816  0.3377
25756W        W42017   1.797   5.319   0.284 -0.2982  0.2522  0.2243
25757W        W42018  12.827   9.308   1.960  0.2612 -0.1702  0.0590
25758W        W42019  13.704   0.428   0.964  0.1015 -0.1386 -0.1014
25759W        W42020   7.318  15.057  15.452 -0.1663 -0.3368 -0.0973
25760W        W42021   2.769   6.917  14.766  0.3788  0.1148  0.0372
25761W        W42022   5.550  12.817   4.677 -0.1675  0.2367  0.2651
25762W        W42023   9.169   8.566  15.021  0.0367  0.0064 -0.0081
25763W        W42024   5.921  14.701   4.702 -0.0381 -0.2531 -0.0519
25764W        W42025   5.455   3.915  13.836  0.2512  0.0051  0.1610
25765W        W42026  16.575   3.334  16.330 -0.1142  0.0384  0.1970
25766W        W42027  12.611   1.982  14.706  0.0350  0.1987 -0.2705
25767W        W42028   7.123  16.632  12.844 -0.0981 -0.3622 -0.1442
25768W        W42029   3.246  11.833   3.592  0.0088  0.1799 -0.4287
25769W        W42030   9.055  10.545  16.153  0.1798  0.0323  0.2236
25770W        W42031   6.470   8.438   1.496 -0.1916  0.0427  0.0237
25771W        W42032   4.425   4.359  11.844  0.3587  0.3509  0.3717
25772W        W42033  15.101  12.541  15.372  0.2543 -0.2018 -0.1919
25773W        W42034   5.912   7.239   3.398  0.0958 -0.0284  0.1459
25774W        W42035  15.212   9.644  14.028 -0.4307 -0.0695  0.0175
25775W        W42036  11.358   5.797   1.393  0.1359  0.2068  0.1680
25776W        W42037   2.638   1.491   1.511  0.1252 -0.1816 -0.1268
25777W        W42038   8.559   3.412   4.425  0.3853  0.0715  0.1552
25778W        W42039   7.837  17.795  16.252  0.1522 -0.2026  0.1656
25779W        W42040   7.343   9.434   0.737  0.1032  0.2284 -0.0818
25780W        W42041   9.290  11.567   5.094  0.1565 -0.1370 -0.1121
25781W        W42042   9.496  13.242  14.833 -0.0053 -0.2523 -0.1654
25782W        W42043  12.955  16.791   1.929 -0.0059  0.3945 -0.0806
25783W        W42044   2.917   1.772   4.031 -0.0028 -0.0027 -0.4188
25784W        W42045   7.046  13.562   3.020 -0.2293 -0.1202  0.1215
25785W        W42046   4.211  15.956  13.499  0.0836 -0.1625  0.0547
25786W        W42047   6.817  16.583   3.715 -0.0114  0.0129 -0.0587
25787W        W42048   6.118   1.580  15.808  0.1851 -0.3554 -0.0717
25788W        W42049   4.766  16.860   0.153 -0.0429 -0.0653 -0.1337
25789W        W42050   9.752   1.469   3.118 -0.3374  0.2672  0.0964
25790W        W42051  15.110   6.004   1.777 -0.1401 -0.0493  0.0315
25791W        W42052   8.131   7.290   3.966  0.0278 -0.2133  0.0023
25792W        W42053   5.518  11.221  16.596  0.0836 -0.1390 -0.0498
25793W        W42054   8.343  10.882  12.044  0.1006 -0.1695 -0.1880
25794W        W42055  13.675  12.622   1.874 -0.0674 -0.0660 -0.0077
25795W        W42056  15.438  12.627   0.131 -0.1436 -0.0384 -0.1359
25796W        W42057   6.573   6.156  15.880 -0.0214  0.2290  0.0848
25797W        W42058   4.127   7.115   5.445 -0.0288  0.1346  0.2123
25798W        W42059   0.827  14.061   0.723  0.2785 -0.6005  0.1280
25799W        W42060   6.497   0.470   2.427 -0.0927 -0.2982  0.0738
25800W        W42061   5.994  10.584   1.308 -0.4275  0.0594  0.0856
25801W        W42062   1.170  17.286  15.512 -0.0254  0.0970  0.3700
25802W        W42063   1.573  11.933   3.677  0.0383 -0.1223 -0.3771
25803W        W42064   5.602   6.694  15.197 -0.1118  0.0892  0.1560
25804W        W42065  17.718   9.970   3.783  0.1416  0.1821  0.1778
25805W        W42066   0.219  16.259   0.202 -0.2616  0.2314  0.2953
25806W        W42067   3.894   6.824  15.543 -0.1019 -0.2319 -0.2053
25807W        W42068   7.658  10.194   3.676  0.3342 -0.0466 -0.0230
25808W        W42069   2.261  10.969   4.865 -0.0792  0.0502 -0.2269
25809W        W42070  16.652  13.233   4.912 -0.1982 -0.0360 -0.1454
25810W        W42071   4.769  11.652  13.087  0.0875 -0.2132 -0.1846
25811W        W42072   6.879  17.289   0.233 -0.2996 -0.1831 -0.2697
25812W        W42073   5.434   6.826   5.906 -0.1592  0.3372 -0.0429
25813W        W42074  12.870   1.776  14.353  0.1787 -0.1181  0.1272
25814W        W42075   0.160   7.406   2.500 -0.2762  0.1060  0.0984
25815W        W42076   4.123   7.416   4.997  0.1313  0.0863  0.1371
25816W        W42077  15.690  12.276   5.038  0.0127  0.1304 -0.0372
25817W        W42078  13.372  10.774   0.831  0.2057  0.0685  0.2146
25818W        W42079  13.917   7.097  15.826  0.1337  0.0158  0.2774
25819W        W42080   9.026   8.926   1.446 -0.1037 -0.0072 -0.1112
25820W        W42081   8.364   1.175   1.021 -0.0784 -0.1177 -0.1457
25821W        W42082   6.082   3.432   0.471  0.0800 -0.1556  0.0320
25822W        W42083  10.438  13.659  12.685  0.2377  0.1195 -0.2772
25823W        W42084   2.964  14.802   1.154  0.0730  0.2477 -0.0068
25824W        W42085  17.370   7.606  14.622  0.0285  0.4250 -0.1867
25825W        W42086   0.758   7.322   0.724  0.0400 -0.0078 -0.1698
25826W        W42087   1.308   7.894   4.816  0.1043  0.0206  0.1349
25827W        W42088   1.667  17.455   5.463  0.1783 -0.0117 -0.0518
25828W        W42089   6.812  12.086   3.353  0.0580  0.0158  0.0749
25829W        W42090   1.533   0.560  12.328  0.1085 -0.0664 -0.1188
25830W        W42091  15.626  14.420   5.958  0.1639 -0.0698  0.1822
25831W        W42092   0.089   5.687  16.714  0.1993  0.0762 -0.0972
25832W        W42093   4.356  10.954   3.640  0.0101  0.0881  0.2781
25833W        W42094   1.894  12.181   0.251 -0.1920 -0.0550  0.1656
25834W        W42095  10.140  10.459   0.194 -0.0869  0.0422  0.0891
25835W        W42096   8.303  14.312  13.721 -0.0039 -0.0906  0.2410
25836W        W42097   8.462   0.120   5.771  0.0898 -0.3322  0.2487
25837W        W42098   7.123  12.876   0.932 -0.2067 -0.1857  0.1641
25838W        W42099  13.860  10.126  14.051 -0.2137 -0.0913 -0.1401
25839W        W42100   3.332  16.063  16.939 -0.3374 -0.4508 -0.2387
25840W        W42101   3.156  10.969  15.875  0.1482  0.3138  0.1675
25841W        W42102  10.195  15.055   2.115 -0.0059 -0.0547 -0.0839
25842W        W42103   2.177  17.236   3.607  0.0843 -0.0576 -0.1700
25843W        W42104  12.881   7.024   0.591  0.3789 -0.0547  0.0592
25844W        W42105   8.152   2.017  15.606 -0.3623  0.3390 -0.2692
25845W        W42106   8.947  10.682  11.395 -0.0892 -0.1354 -0.0066
25846W        W42107   6.774   2.502  13.524 -0.1317  0.0342  0.0065
25847W        W42108  16.703   0.733   0.344  0.0289 -0.5714 -0.1144
25848W        W42109  16.334  15.490   2.825  0.0237  0.0207 -0.0384
25849W        W42110   7.226   4.180   5.003  0.1267 -0.1396  0.1082
25850W        W42111  11.089   9.306   4.392 -0.0133  0.1384  0.2365
25851W        W42112  12.813  12.702   2.987 -0.2515 -0.1661  0.1513
25852W        W42113  17.364  14.973   5.142  0.1615 -0.1871  0.4076
25853W        W42114  10.612  11.499  14.675 -0.1347  0.1612  0.2037
25854W        W42115  17.120  16.733  12.424 -0.3062 -0.0080  0.1749
25855W        W42116  12.553  15.866   0.239 -0.1046 -0.4297 -0.2462
25856W        W42117  10.491   5.505  15.629  0.0826 -0.3137  0.0786
25857W        W42118  16.818   6.381   5.026 -0.0769  0.1613 -0.3092
25858W        W42119  14.911  11.572  12.869  0.3737 -0.0265 -0.2116
25859W        W42120  16.025  10.115  16.330 -0.0965 -0.0595 -0.0018
25860W        W42121  13.758   2.245  12.164 -0.1325  0.0084  0.1321
25861W        W42122   7.191  13.427   4.215 -0.0210  0.0971 -0.1460
25862W        W42123   1.392   8.076   1.818 -0.1471 -0.0246  0.3620
25863W        W42124  13.103   7.721   4.807  0.1027  0.3406  0.2395
25864W        W42125   7.744  15.088   0.984 -0.2995 -0.1260 -0.0698
25865W        W42126   5.030   1.534   6.053 -0.0165  0.2509 -0.0110
25866W        W42127  11.993   4.005   2.289 -0.1250 -0.1134  0.3404
25867W        W42128  15.434   0.200   3.546 -0.3861 -0.0452  0.0237
25868W        W42129  17.217   7.015   2.358 -0.0217 -0.1379  0.0582
25869W        W42130   5.423  13.257   4.497 -0.2093  0.3018 -0.0303
25870W        W42131  11.966   6.020  11.002 -0.1539 -0.0100 -0.0521
25871W        W42132   7.028   7.056  13.908  0.3135 -0.2069  0.0351
25872W        W42133  14.364  16.510   5.398  0.1264 -0.1622  0.1089
25873W        W42134  16.790  13.354   2.504  0.3334 -0.0875  0.2307
25874W        W42135  10.860  15.728   5.010 -0.0368  0.0986 -0.0633
25875W        W42136  17.545   2.302   0.575 -0.1371 -0.2714  0.1479
25876W        W42137   9.945  12.916  16.952  0.3048 -0.0131  0.0932
25877W        W42138  17.314   8.213  11.993 -0.1466  0.1570 -0.0253
25878W        W42139  14.747  12.138   4.799 -0.3317  0.1652 -0.0778
25879W        W42140   0.288  11.937  16.945 -0.0619 -0.0713  0.3949
25880W        W42141   1.263   6.738   3.192 -0.2334  0.1277 -0.1460
25881W        W42142   6.899   9.256  13.488  0.2583 -0.3614 -0.2536
25882W        W42143   0.539   0.724  11.667  0.1453 -0.4829 -0.0992
25883W        W42144   1.160   1.967   3.075  0.1161  0.1621  0.2221
25884W        W42145   4.885  11.501  15.488 -0.0357 -0.1957 -0.2450
25885W        W42146   5.119   3.601   3.455  0.0142 -0.1509 -0.2268
25886W        W42147   7.936   2.271   4.489 -0.2891 -0.2168  0.3219
25887W        W42148  16.218   4.725  14.901  0.1868  0.0208  0.1945
25888W        W42149   9.549  15.128   2.926  0.2346 -0.1788 -0.1978
25889W        W42150  15.746   5.179   2.105  0.0297  0.2598 -0.1250
25890W        W42151   9.911  11.736   0.409 -0.0137 -0.1331  0.1454
25891W        W42152  15.306   9.385  12.742  0.1085 -0.2239  0.1862
25892W        W42153   1.640  11.351  12.092  0.0536  0.1005 -0.1150
25893W        W42154  12.015  17.841   3.515  0.1773  0.1929  0.0200
25894W        W42155   4.303   2.070   0.023  0.0891 -0.0236 -0.0659
25895W        W42156  17.533   0.791  15.362 -0.0518 -0.0842  0.0143
25896W        W42157  11.091  14.919  11.934 -0.0068 -0.0404 -0.0586
25897W        W42158   9.074  15.041  16.266  0.1910 -0.4385 -0.1871
25898W        W42159  16.685  14.577   2.368 -0.1067  0.0413 -0.0236
25899W        W42160   3.155  16.169  14.991 -0.2956 -0.3027  0.2820
25900W        W42161   2.936  10.007   2.460 -0.0650  0.1565  0.1454
25901W        W42162   3.296   7.620  16.610  0.2240 -0.0656  0.0548
25902W        W42163   7.400  13.191  12.099 -0.1002  0.1342 -0.2586
25903W        W42164   6.791   6.698  12.197  0.1305 -0.0719 -0.1145
25904W        W42165  16.672   3.373   2.260 -0.1004  0.0510 -0.3233
25905W        W42166   1.477   8.159  16.390  0.1711  0.2196  0.1607
25906W        W42167   5.989  12.732   1.641 -0.0086  0.0757  0.0108
25907W        W42168   0.265  17.269   4.631  0.1173 -0.1367 -0.0571
25908W        W42169  16.646   8.526  16.076 -0.4172  0.1954 -0.1608
25909W        W42170   5.046   9.727   3.634 -0.1350  0.0938  0.1536
25910W        W42171   0.341   6.620  12.438  0.1856 -0.2674  0.0081
25911W        W42172   7.334   0.866   3.603 -0.0956  0.1982  0.1833
25912W        W42173  16.496   0.787   3.024  0.1790 -0.0002 -0.1194
25913W        W42174   0.964   1.283   0.379  0.0011 -0.1335 -0.0597
25914W        W42175  17.398   5.441   5.722 -0.1024 -0.3255  0.1499
25915W        W42176   0.395  16.970   5.279 -0.1189 -0.0760 -0.1683
25916W        W42177  16.526   4.061   5.053  0.0906 -0.0558 -0.0128
25917W        W42178   1.785  17.141  11.819 -0.0827  0.1071  0.0434
25918W        W42179   8.716   6.150  12.706  0.1275 -0.0327 -0.0452
25919W        W42180  13.247  16.114  12.082 -0.2539  0.2794  0.2062
25920W        W42181   0.360   7.267  12.072 -0.0315  0.1647 -0.0824
25921W        W42182   6.465  16.239   4.215  0.0594  0.1070 -0.2139
25922W        W42183   4.087   1.371  15.342  0.1623  0.0448 -0.1182
25923W        W42184  11.748   4.128  13.772 -0.2206 -0.1879 -0.1631
25924W        W42185   3.333   6.729  14.108  0.2211  0.2653  0.1051
25925W        W42186   6.252   7.152  12.686 -0.0888  0.2418 -0.0026
25926W        W42187   2.810   1.300   3.647 -0.0657 -0.1788  0.0020
25927W        W42188  13.898   5.726   2.516  0.0494  0.1430 -0.1024
25928W        W42189   7.676  10.355  13.835  0.0568 -0.0891  0.0019
25929W        W42190   0.645  12.368   0.434 -0.0419 -0.1088 -0.3582
25930W        W42191   8.053  10.573   0.219  0.0156  0.3013  0.1590
25931W        W42192   9.712   4.812   1.852  0.0880 -0.3593  0.1680
25932W        W42193   1.447  17.236  16.214  0.1286  0.2015 -0.1309
25933W        W42194  15.929   5.903   0.746  0.2134 -0.0794  0.0721
25934W        W42195   6.027   5.322   5.166 -0.1144  0.0996 -0.2866
25935W        W42196  14.501   7.779  12.042  0.1519 -0.1262  0.4267
25936W        W42197  12.438  15.007   3.210 -0.1304  0.1024  0.1545
25937W        W42198   5.545  16.664   5.705 -0.0160  0.1225 -0.0925
25938W        W42199   6.716   8.206   4.075  0.2577  0.1632  0.0664
25939W        W42200   1.775  13.258  12.522  0.1869  0.0544  0.1361
25940W        W42201  16.918  14.485   3.704 -0.1183 -0.0482 -0.0378
25941W        W42202   2.476   8.527   2.704  0.1982  0.2719  0.3170
25942W        W42203   7.520  15.768   0.845  0.0773 -0.1079  0.0246
25943W        W42204  16.704  14.971  16.442 -0.0466 -0.0877  0.2328
25944W        W42205   1.010   4.483   5.358 -0.0054  0.0511  0.2483
25945W        W42206   8.124   2.161  15.090 -0.0461  0.4238 -0.0414
25946W        W42207   3.561  13.629   1.708  0.1539  0.4274  0.0281
25947W        W42208  12.637  14.955  13.509 -0.3109  0.1783  0.1185
25948W        W42209  11.697  14.056   6.710 -0.3282 -0.0311 -0.1330
25949W        W42210  13.266  16.001   4.139  0.1961  0.0410  0.0263
25950W        W42211   0.955  12.533  16.013 -0.1930  0.0299 -0.1510
25951W        W42212  12.657  16.938  14.958  0.1800  0.3901 -0.0099
25952W        W42213   4.183  16.454   4.663 -0.0791 -0.4604 -0.2980
25953W        W42214   5.367   8.109   4.423  0.1932 -0.1496 -0.0078
25954W        W42215   3.117  14.037  12.039 -0.0256 -0.2263 -0.0843
25955W        W42216  17.442   6.936  12.473  0.1626 -0.0221  0.0820
25956W        W42217   6.175   7.639   2.445  0.0844 -0.1574  0.1727
25957W        W42218  12.781   6.378   4.503 -0.0497 -0.0144  0.0747
25958W        W42219   9.514  14.836  13.912  0.1285 -0.1382 -0.0619
25959W        W42220   4.502   1.600   5.733  0.1761 -0.0516  0.0224
25960W        W42221   9.298  11.616   3.224 -0.1827  0.1237  0.0818
25961W        W42222  12.673   1.683   1.115  0.2305 -0.2153  0.2083
25962W        W42223  15.732   8.846  12.950 -0.2309 -0.2327  0.0270
25963W        W42224  15.455   2.849   6.155 -0.0131  0.0083  0.1826
25964W        W42225  12.482   1.265  14.739  0.0881 -0.0611  0.0181
25965W        W42226  16.316   3.969   3.030  0.1827 -0.1021 -0.5715
25966W        W42227   5.807  12.409   4.983 -0.1840 -0.2618  0.0723
25967W        W42228   0.385  12.425  14.833 -0.0612 -0.0181 -0.3230
25968W        W42229   8.943   8.054  13.306 -0.2550 -0.0154  0.1558
25969W        W42230   5.366   2.455  15.502  0.1966  0.0343 -0.1854
25970W        W42231  10.552  12.278   4.707  0.1668 -0.2235 -0.0378
25971W        W42232   7.921  17.698  15.747  0.0620  0.1619  0.0850
25972W        W42233   5.619  13.794   1.632  0.0322 -0.1784  0.0599
25973W        W42234  11.928   0.822   5.676  0.1452  0.2032  0.1730
25974W        W42235  15.772   4.102  12.731 -0.1812 -0.3074  0.0126
25975W        W42236   3.861   3.455   1.404  0.1360 -0.1744  0.4553
25976W        W42237  12.454  12.099  12.105  0.2694 -0.1481 -0.0827
25977W        W42238  17.565  13.122  13.287 -0.0467  0.2759  0.2297
25978W        W42239  17.083   6.837   0.475 -0.0682 -0.0266 -0.2930
25979W        W42240  10.902   1.192  11.005  0.3246  0.1251 -0.0574
25980W        W42241   3.675  17.060  14.421 -0.0682  0.1021  0.0793
25981W        W42242   8.407  10.802  16.838 -0.1982  0.0488 -0.1333
25982W        W42243  10.165  16.587   5.168  0.3749 -0.2978  0.2494
25983W        W42244   0.739  10.272   0.602 -0.1349 -0.1123  0.2252
25984W        W42245   4.110  17.815   1.170  0.0000 -0.1976 -0.0292
25985W        W42246  11.324   0.680  11.978  0.0946  0.2795  0.4053
25986W        W42247  14.300   2.053   2.472  0.0884  0.1601  0.3360
25987W        W42248   6.181   1.648  15.275 -0.2991 -0.1342  0.0279
25988W        W42249  11.107  12.015  16.689  0.0349 -0.2359  0.0420
25989W        W42250   7.383  17.802  13.516 -0.0421  0.1293  0.3506
25990W        W42251  15.410   4.322  14.247 -0.0046 -0.1828 -0.3711
25991W        W42252  13.665   2.150   6.149  0.0172 -0.0056  0.2696
25992W        W42253   4.097   9.148  13.772  0.2745  0.3326 -0.0848
25993W        W42254   3.911  12.176   0.271  0.0442 -0.1418  0.0880
25994W        W42255   7.633   9.847   1.931 -0.1210  0.1720 -0.1864
25995W        W42256   9.747  12.923  15.635  0.0685  0.0129 -0.1287
25996W        W42257   7.422  15.175  13.008  0.3226 -0.2428 -0.0586
25997W        W42258  11.740   8.831   0.490  0.1715  0.0150  0.2108
25998W        W42259  10.961   4.462   2.057 -0.0977  0.3639  0.1029
25999W        W42260  12.602   9.572  16.353 -0.0331  0.1302  0.2553
26000W        W42261   7.936   9.365  12.244  0.0776 -0.1033 -0.0113
26001W        W42262   2.623  13.252   2.099 -0.1508 -0.0506  0.1605
26002W        W42263  11.479  14.030  15.611  0.2340 -0.0570  0.0774
26003W        W42264   1.371   3.088   0.273 -0.2906 -0.3628  0.3078
26004W        W42265   5.467  12.341  16.240  0.2386  0.2543  0.0467
26005W        W42266  13.784  17.199  13.879 -0.1292  0.1600 -0.0413
26006W        W42267  16.493   8.296  12.818 -0.0833  0.1302  0.2397
26007W        W42268   5.816  11.201   0.919  0.1440 -0.0569  0.1595
26008W        W42269   6.187  15.676   4.489  0.2015 -0.0981  0.1585
26009W        W42270   4.939  10.497  13.986 -0.0035 -0.2081 -0.1656
26010W        W42271   7.257  10.525  16.901 -0.2249  0.2781 -0.1881
26011W        W42272  10.328   2.744   0.436  0.2466 -0.0153  0.3988
26012W        W42273  14.632  14.377   1.828  0.3192 -0.4962  0.1698
26013W        W42274  10.159  11.389   2.331  0.0597 -0.1945 -0.2549
26014W        W42275   5.405   3.598   6.213 -0.1391  0.0195  0.0450
26015W        W42276   6.459   8.843   4.346  0.0787  0.2800 -0.1122
26016W        W42277  17.444   2.677  12.347 -0.0772  0.0584 -0.0995
26017W        W42278   7.760   8.272   4.533  0.0519  0.0039 -0.1200
26018W        W42279  14.167   9.493   1.733 -0.0109  0.2007 -0.1578
26019W        W42280  11.859   9.880  11.701 -0.0581 -0.0274  0.3610
26020W        W42281   5.066   7.471   2.009 -0.0567 -0.0140  0.0520
26021W        W42282   7.064  15.376   2.122 -0.3374 -0.2127 -0.1059
26022W        W42283   3.049   4.525  14.180 -0.0589  0.0325  0.0332
26023W        W42284   9.871  10.395  14.293 -0.0649  0.3582  0.1315
26024W        W42285  10.909   9.098   0.213  0.2439 -0.0095 -0.4250
26025W        W42286  13.547  11.912   0.248  0.0673 -0.1361 -0.0132
26026W        W42287  10.075  16.014   5.255  0.0796 -0.2084  0.1139
26027W        W42288   2.020   7.805  14.514  0.1035 -0.0994 -0.1481
26028W        W42289  11.807  16.100   3.213  0.0835  0.0144 -0.1755
26029W        W42290   1.144   2.822   0.906  0.0213 -0.1832 -0.1263
26030W        W42291  10.308   3.815  12.948 -0.0531  0.0898 -0.3307
26031W        W42292  12.970   7.293   1.533 -0.1519  0.0833  0.1997
26032W        W42293  13.236  14.233   2.060 -0.0435 -0.0568  0.1063
26033W        W42294   3.895  11.184  12.220 -0.1776  0.1449 -0.3032
26034W        W42295   3.704  15.535   1.212 -0.1089  0.1078  0.0934
26035W        W42296   9.407   4.416  14.373 -0.1808 -0.1000 -0.1152
26036W        W42297  10.203   0.699  14.805  0.2080  0.2190  0.0377
26037W        W42298  15.073  17.563   5.647 -0.0267 -0.0958  0.1365
26038W        W42299   1.739   5.527   1.029  0.1092  0.3407  0.2080
26039W        W42300  14.963   1.518  16.894 -0.0215  0.0360 -0.2819
26040W        W42301  15.034   5.721   3.128  0.1858 -0.0949 -0.2534
26041W        W42302  11.283  12.893   0.198  0.0308 -0.3150  0.0069
26042W        W42303  17.355   3.563   3.443  0.4823  0.2888  0.0128
26043W        W42304  16.641   8.903  10.872  0.0697 -0.1069  0.0812
26044W        W42305  13.059  16.732  13.404 -0.0626 -0.1220  0.0613
26045W        W42306  11.029   2.678  14.180 -0.2580  0.4218 -0.2141
26046W        W42307  13.839  11.761   2.436 -0.2224  0.1836  0.0507
26047W        W42308   7.876   5.404  14.909 -0.1137 -0.0852 -0.3821
26048W        W42309  17.426   6.053  16.397 -0.0961  0.0884  0.2673
26049W        W42310  10.766  16.826  12.484  0.2165 -0.1080  0.0873
26050W        W42311   8.145   8.893  13.333  0.0384 -0.2537 -0.1321
26051W        W42312   6.244   6.868   3.239  0.0519  0.1812 -0.3471
26052W        W42313   3.648  14.662  16.624 -0.0860 -0.3103  0.0211
26053W        W42314   7.844   7.347  16.209 -0.1126 -0.2023  0.1181
26054W        W42315  16.356  15.600   5.753 -0.0422 -0.0121  0.1398
26055W        W42316   3.829  15.119   1.555 -0.0115 -0.3394 -0.2362
26056W        W42317  15.324  15.722  15.096  0.0520  0.0680 -0.2720
26057W        W42318   5.220   5.721  14.608  0.2371  0.2096  0.0754
26058W        W42319   3.309   2.743   2.441  0.0540 -0.1883 -0.4236
26059W        W42320  10.684   2.089  15.401  0.2958 -0.3626  0.2584
26060W        W42321   5.532  15.844  13.620  0.0772 -0.1747 -0.0237
26061W        W42322  10.037   8.387  16.980 -0.4069  0.2676  0.1097
26062W        W42323  12.045   8.985  12.967 -0.0429 -0.0242 -0.1103
26063W        W42324   8.667  13.480  15.538 -0.3497  0.0062 -0.3938
26064W        W42325  15.676   3.709  16.406 -0.0036  0.1551  0.2094
26065W        W42326  10.930   1.312  14.355  0.1301  0.2597 -0.0332
26066W        W42327   9.783  15.856  16.280  0.1227  0.1349 -0.0783
26067W        W42328  13.176   1.603  13.694 -0.2342  0.0777 -0.3869
26068W        W42329  14.547   7.618   0.472 -0.1732  0.0199  0.1336
26069W        W42330  10.522   5.681   0.320  0.0135 -0.2095  0.3065
26070W        W42331  12.958   2.594  13.973 -0.1868 -0.0437 -0.1814
26071W        W42332  17.593   4.462   3.011  0.2734  0.0309 -0.2047
26072W        W42333  12.164  10.151   4.408 -0.1515 -0.0191  0.2187
26073W        W42334  13.739  17.316  15.289  0.1304 -0.2277  0.0854
26074W        W42335  13.364   3.381  12.711  0.0638  0.1984 -0.0901
26075W        W42336  13.788   9.761  13.176 -0.0757 -0.1475 -0.2177
26076W        W42337   2.616  12.498  12.827 -0.0705 -0.1938 -0.0888
26077W        W42338  12.930  11.149   6.138  0.2373 -0.1316 -0.1473
26078W        W42339   7.667  13.343  12.851  0.0079  0.2529 -0.0324
26079W        W42340   9.621   5.259   4.435 -0.2349 -0.3563  0.1133
26080W        W42341   7.985   8.551   5.446  0.1884 -0.0360  0.2394
26081W        W42342  10.149  13.644   0.511 -0.0388  0.1890 -0.4107
26082W        W42343   7.305   2.574  12.222  0.1532  0.0266 -0.0053
26083W        W42344   2.049   7.770  16.531 -0.1289  0.0589 -0.1759
26084W        W42345  13.006  15.927  14.027  0.0643 -0.0502 -0.3694
26085W        W42346  15.887   8.344  16.971 -0.2354  0.1301  0.0535
26086W        W42347  16.532  16.207   1.684  0.0617  0.0405 -0.1595
26087W        W42348  14.135   1.861  15.341  0.1443 -0.0181 -0.1281
26088W        W42349   7.853  14.976   0.449  0.2317  0.1759  0.0611
26089W        W42350   2.583  11.283  11.191 -0.0063  0.1013  0.2802
26090W        W42351   9.281   3.221  13.611 -0.0292 -0.1687  0.1589
26091W        W42352   9.806   6.794   0.410  0.1760 -0.2611 -0.3783
26092W        W42353  10.925   7.607  14.449  0.0385 -0.0315  0.0953
26093W        W42354  10.643   8.473  12.061 -0.0166  0.2069 -0.0775
26094W        W42355  12.930   4.462  13.370 -0.0760  0.0205 -0.1243
26095W        W42356  11.618   6.618   1.707 -0.0298 -0.1737  0.0084
26096W        W42357  13.614  13.116   2.253  0.2644 -0.1197  0.3597
26097W        W42358  15.495  14.736   3.069  0.1806 -0.0285 -0.2617
26098W        W42359  15.006  12.690  14.179 -0.3730 -0.2902  0.2834
26099W        W42360  17.474  17.273  14.532 -0.0622 -0.0782  0.0031
26100W        W42361   4.859  17.242   5.330  0.2029 -0.0339 -0.0848
26101W        W42362   0.550   9.348  12.778  0.0143  0.1205  0.1574
26102W        W42363  16.038  14.632  13.338 -0.1309 -0.2430  0.1410
26103W        W42364  10.086  11.588  12.862 -0.1745 -0.3555 -0.0755
26104W        W42365  10.704  12.088   2.778  0.1201  0.3929 -0.1409
26105W        W42366  15.981  11.235   5.051  0.4919 -0.0421 -0.0225
26106W        W42367  12.586   6.169  13.182  0.1313 -0.3725 -0.3871
26107W        W42368  11.422   7.311   2.252  0.0759 -0.1318  0.1148
26108W        W42369   5.733  10.853   1.720  0.3587 -0.0619 -0.0821
26109W        W42370  13.009   7.580  12.229 -0.0635 -0.1048 -0.0712
26110W        W42371  14.821  13.927  13.610  0.1811  0.1938  0.1189
26111W        W42372   1.852  17.784   0.132 -0.1734 -0.1795  0.1127
26112W        W42373   1.633  15.598  12.396 -0.0891  0.0201  0.4840
26113W        W42374  16.129   4.830  16.277  0.3269  0.0458 -0.1322
26114W        W42375   8.893  10.568   4.085  0.3984 -0.0163 -0.0519
26115W        W42376  16.901   7.681   1.855  0.4209  0.2550  0.0466
26116W        W42377   3.970   9.161   3.574  0.0745  0.3096  0.1481
26117W        W42378  13.717  15.005   3.880  0.2658  0.0288  0.2764
26118W        W42379   9.721  17.433   5.852  0.1198  0.0931 -0.0231
26119W        W42380  11.419  15.225   1.613  0.1216 -0.2014  0.0551
26120W        W42381  13.152   6.895  15.028 -0.0207  0.1389 -0.0348
26121W        W42382   1.342  13.433   5.599  0.0772  0.0485 -0.1010
26122W        W42383   0.807   1.209  16.146 -0.1030 -0.1563  0.3204
26123W        W42384   4.799  11.525   4.338  0.4916  0.1683  0.2093
26124W        W42385   6.183   8.482  14.855 -0.3055  0.1575  0.4172
26125W        W42386   1.305   4.426   2.102 -0.0100 -0.3375 -0.0853
26126W        W42387   2.393   2.317  16.593 -0.0239 -0.2406 -0.1259
26127W        W42388  16.708  12.538  11.773 -0.1305  0.1697 -0.0213
26128W        W42389   4.177   6.880  14.100  0.1906 -0.0343 -0.1578
26129W        W42390   0.693   5.957   3.190 -0.3854 -0.3199 -0.1236
26130W        W42391   1.271  14.465   5.538 -0.0487 -0.2929  0.0593
26131W        W42392   9.124   6.351   6.231  0.0448 -0.3097 -0.0486
26132W        W42393  10.806  14.513  16.317 -0.0547 -0.0825 -0.2032
26133W        W42394   4.100  17.364   4.122  0.2959  0.1616 -0.1253
26134W        W42395  15.700  11.988  12.086  0.2628  0.1073 -0.0952
26135W        W42396   5.909   3.603   4.921 -0.1105 -0.0946  0.0165
26136W        W42397   5.353   6.264  15.583 -0.1451  0.1706  0.1805
26137W        W42398   9.646  14.714  12.540 -0.0298  0.0440  0.1095
26138W        W42399  11.182  12.589  14.346 -0.3160 -0.1239 -0.2670
26139W        W42400  11.654  15.535  13.581 -0.2191  0.0964  0.2022
26140W        W42401  15.330   5.061  12.614 -0.2335 -0.1187  0.2163
26141W        W42402  13.603   1.750   2.862  0.2030 -0.1161 -0.0261
26142W        W42403   9.929  10.710  16.362  0.3445 -0.2507  0.3666
26143W        W42404   4.231   9.655   6.799  0.4662  0.3838 -0.1683
26144W        W42405   8.552   0.374   4.598  0.0715 -0.0739 -0.2269
26145W        W42406  16.229   7.823  15.729  0.0380 -0.1749  0.0196
26146W        W42407  17.030  17.512  12.505 -0.0551  0.3091 -0.2175
26147W        W42408   6.558   5.087  16.155 -0.1524 -0.2899  0.1874
26148W        W42409   3.661  11.922   1.521 -0.0274  0.1005 -0.2922
26149W        W42410  15.280   5.372  12.163  0.1007  0.0002 -0.1318
26150W        W42411   5.820  11.482   1.870  0.0079  0.1262  0.0442
26151W        W42412  10.540   6.926  16.215 -0.0196 -0.1001 -0.3245
26152W        W42413  11.754   3.276  13.931 -0.0830 -0.1325  0.0804
26153W        W42414  17.026   1.156   0.110  0.4470 -0.1971 -0.1995
26154W        W42415  15.434  16.301  12.263 -0.1091  0.0648  0.0193
26155W        W42416  10.568   0.140  15.778  0.1451  0.3175 -0.0826
26156W        W42417   5.450  10.257  13.970  0.0935 -0.3436  0.0692
26157W        W42418   1.904   9.986   5.954 -0.1969 -0.0243 -0.0379
26158W        W42419   4.433  11.302  13.397 -0.1463 -0.0296 -0.0362
26159W        W42420   0.615   3.860  13.462 -0.0598 -0.3189  0.1407
26160W        W42421  17.843  10.538   3.732 -0.1164 -0.2144 -0.1045
26161W        W42422  14.832   0.870   2.191  0.0495 -0.1668  0.1079
26162W        W42423   4.242   0.984   1.559 -0.0764 -0.0797  0.0349
26163W        W42424   1.450  17.486   4.571  0.0779 -0.0812 -0.1100
26164W        W42425   6.652   1.348  12.238  0.1074  0.0966  0.1358
26165W        W42426  16.085   8.011  13.001 -0.2555  0.0135  0.1272
26166W        W42427   8.194   9.939  16.109 -0.0740 -0.0791  0.0993
26167W        W42428   6.694   3.533  15.436  0.0261  0.0643 -0.2251
26168W        W42429  13.341   6.930   2.665 -0.2981 -0.2118  0.4740
26169W        W42430  16.123   0.767   3.368  0.0926  0.0759  0.0815
26170W        W42431  16.519  16.585  15.084  0.3242 -0.0821 -0.1902
26171W        W42432   9.775   4.475   5.544 -0.0075 -0.1990  0.1015
26172W        W42433  14.195   4.454  12.905  0.0922 -0.1692 -0.2453
26173W        W42434   6.073  17.593  16.770  0.2089  0.0827  0.1960
26174W        W42435   4.732   1.270   1.652  0.6122 -0.1909 -0.0775
26175W        W42436   9.964  14.841   3.730 -0.1196  0.2382  0.0176
26176W        W42437  14.339   3.559   3.330  0.0927 -0.0868  0.0371
26177W        W42438  14.404   0.360   0.483  0.0008  0.0797  0.1972
26178W        W42439   3.477   6.584  11.974 -0.3891 -0.0041 -0.0862
26179W        W42440  13.820   1.036   1.039  0.0891 -0.3291  0.0986
26180W        W42441  14.291  15.350  14.607 -0.1232  0.2363 -0.2140
26181W        W42442   7.421  13.619  11.786 -0.0168 -0.0525  0.1330
26182W        W42443   9.134  15.444  13.057 -0.0373  0.4836 -0.1425
26183W        W42444   0.892  12.838  12.626  0.0685 -0.0564  0.3576
26184W        W42445  13.383  14.734   4.663  0.1249  0.2175 -0.1095
26185W        W42446   4.617   1.037   0.667  0.3280  0.0797 -0.1588
26186W        W42447  14.038  17.165   0.936 -0.0862  0.1344 -0.0722
26187W        W42448  17.486   7.862  14.198 -0.1376  0.0303 -0.1326
26188W        W42449   3.345   5.828  12.427  0.0155 -0.2189 -0.1456
26189W        W42450   1.528   3.024   3.853 -0.0400 -0.1536  0.0152
26190W        W42451   3.000   2.462  16.678  0.0911 -0.1429 -0.1842
26191W        W42452   8.730  13.328  13.568  0.2113  0.1443  0.1941
26192W        W42453   0.235   8.811   1.897 -0.1614  0.0466 -0.0619
26193W        W42454   7.175   3.825  14.974 -0.0521  0.1666 -0.1230
26194W        W42455   3.553   0.347  15.127  0.0251  0.1123  0.2994
26195W        W42456   3.360   9.049   5.776  0.0366 -0.1035  0.0767
26196W        W42457   6.987  10.155   0.393  0.1286  0.0767 -0.0784
26197W        W42458   8.091   5.247  16.215 -0.2687 -0.2197  0.2012
26198W        W42459  11.664   2.442  12.899  0.2177  0.1609 -0.3611
26199W        W42460   5.736   4.563   5.042 -0.1294  0.1827  0.0853
26200W        W42461   6.355   2.858   1.268  0.2883  0.4410 -0.1754
26201W        W42462  16.578   4.135  15.884 -0.2087 -0.3370 -0.1044
26202W        W42463  10.411   5.219   1.628  0.0965 -0.1212 -0.1849
26203W        W42464  16.008   8.810   5.083 -0.0972 -0.2087 -0.0392
26204W        W42465   8.325  16.491  14.953 -0.1588  0.0657 -0.1434
26205W        W42466  11.149   4.052  14.962  0.2105  0.0629  0.0002
26206W        W42467  15.420  11.436  13.172 -0.0622 -0.3815  0.3654
26207W        W42468  12.112  15.490   3.782 -0.2309  0.2989  0.0084
26208W        W42469  16.782   8.093   5.325 -0.0935  0.1083 -0.2966
26209W        W42470  11.876  15.624  13.020 -0.1153 -0.0688  0.1167
26210W        W42471   2.435   7.988   0.268  0.1093  0.0463  0.1327
26211W        W42472  17.041  14.829   3.325  0.1566  0.1536 -0.0003
26212W        W42473  15.600  15.524   0.934 -0.2724  0.2522 -0.0452
26213W        W42474   3.625   3.930  14.382  0.0826 -0.2456  0.0809
26214W        W42475  10.402   2.647   1.883 -0.2530 -0.1849 -0.1149
26215W        W42476   6.665   3.866  11.993  0.1122  0.0041 -0.0475
26216W        W42477   3.222   4.272   0.128  0.4476  0.1034 -0.1708
26217W        W42478   9.477   0.516  13.691 -0.1058  0.0947  0.2273
26218W        W42479   0.293  14.205  11.722 -0.1130  0.0100 -0.4669
26219W        W42480   6.161   3.962   4.678  0.0782 -0.2595  0.0312
26220W        W42481  12.449   4.675  14.771 -0.2485  0.0896  0.1999
26221W        W42482  13.011  12.541  13.286  0.3888 -0.2386  0.1906
26222W        W42483   8.321   8.950  11.609  0.0615 -0.1462 -0.2994
26223W        W42484   0.465  11.751   0.885  0.0048 -0.1363 -0.0503
26224W        W42485  14.361   1.775  11.886  0.0226  0.0164  0.2024
26225W        W42486   1.460   2.642   1.557  0.2278 -0.0862  0.2727
26226W        W42487  14.745  12.155  11.987 -0.2146 -0.0521  0.1165
26227W        W42488  15.932   6.530  16.008 -0.4612  0.0724  0.0858
26228W        W42489  11.461  13.314   0.443  0.0868  0.2231  0.0186
26229W        W42490  16.701   4.825  16.383 -0.1917  0.1349 -0.1172
26230W        W42491   3.279  12.853   0.216 -0.0369  0.0836  0.0226
26231W        W42492   9.458   2.410  14.869  0.1891 -0.2115 -0.1761
26232W        W42493  11.413   8.930   3.009  0.1501 -0.1740  0.2253
26233W        W42494   0.361   1.337   2.948  0.1543 -0.0742 -0.2546
26234W        W42495  12.416  16.513  14.052 -0.2218 -0.1106 -0.2941
26235W        W42496   2.531   6.634   3.030  0.0448  0.1849  0.2489
26236W        W42497   5.205  15.605   3.942 -0.0094  0.2119 -0.0872
26237W        W42498   3.466   7.857  15.083 -0.3017  0.0796  0.2335
26238W        W42499  16.360   4.833  14.026 -0.1365 -0.0725  0.2715
26239W        W42500   3.751   2.760   2.033  0.1421  0.1137  0.1074
26240W        W42501   8.618   8.203  12.934 -0.1550 -0.2531  0.0427
26241W        W42502   4.344   0.622   4.631 -0.1321  0.1103  0.0594
26242W        W42503   5.973  16.708  13.636  0.0547 -0.1052  0.2603
26243W        W42504   0.104  12.733  13.378 -0.1547 -0.0855  0.6034
26244W        W42505   3.832  17.032  15.906 -0.3055  0.1921 -0.1354
26245W        W42506  17.611  16.573   5.570 -0.1628  0.1788  0.0395
26246W        W42507  12.673   3.340   5.381  0.0556  0.0114  0.2823
26247W        W42508  17.110  15.852  16.722  0.1816 -0.2395 -0.2714
26248W        W42509  14.122   6.818   4.066 -0.0903 -0.2467  0.0924
26249W        W42510  13.519   1.633  12.710  0.1345 -0.2353 -0.0715
26250W        W42511  14.338  12.076   5.158  0.0672  0.2578 -0.2097
26251W        W42512  15.680  15.166  13.536 -0.0306 -0.1168  0.2455
26252W        W42513   8.110   2.651   0.380  0.1459 -0.0226 -0.1648
26253W        W42514   0.825  16.240   0.213  0.0656  0.0463  0.0345
26254W        W42515  10.639   8.783   1.382 -0.1164 -0.0043  0.0162
26255W        W42516   2.451  15.481   0.028  0.0856  0.1745 -0.1665
26256W        W42517  14.942   7.087  15.322 -0.5461  0.0249 -0.0139
26257W        W42518   2.273  15.490   4.308  0.1941 -0.1251 -0.1447
26258W        W42519  11.993   1.195  13.464  0.0221  0.0681  0.2020
26259W        W42520   7.244   2.132  11.958 -0.0207 -0.0212  0.3879
26260W        W42521   1.906   4.480   2.507  0.1828 -0.0469 -0.3153
26261W        W42522   3.758   1.693   2.166 -0.3327  0.0809 -0.0975
26262W        W42523   1.140  12.477  13.274 -0.2342 -0.0897 -0.0925
26263W        W42524   2.704   2.254   1.983  0.0759  0.1466  0.0722
26264W        W42525   4.854   8.564  13.777 -0.0698  0.0183  0.1640
26265W        W42526   7.414   0.564   2.634  0.2394  0.0002 -0.2860
26266W        W42527   8.523   8.670  11.969 -0.1263 -0.1781 -0.0790
26267W        W42528  11.808   7.358   0.270 -0.1502  0.1670  0.0487
26268W        W42529   9.074   2.057   1.790 -0.0999  0.0792  0.0599
26269W        W42530  11.126  11.162  11.935 -0.1300  0.1314 -0.1789
26270W        W42531   1.056   6.158  16.264 -0.0660  0.3760  0.2573
26271W        W42532   0.580   6.309   2.776 -0.0435 -0.1164  0.0694
26272W        W42533   2.558   8.354   4.994 -0.1231  0.1639 -0.1791
26273W        W42534   1.337   0.505  16.697 -0.1530 -0.0239  0.3033
26274W        W42535  10.158   2.064  12.965  0.3002  0.2731  0.0337
26275W        W42536   0.836  13.341   1.386  0.1553  0.1195 -0.0016
26276W        W42537  10.972   4.992  15.040 -0.0041 -0.1836  0.0074
26277W        W42538   5.794   0.598   2.725 -0.0701 -0.1130 -0.1295
26278W        W42539   0.586  14.434  11.362 -0.1517  0.2938 -0.1135
26279W        W42540  14.923   8.272  16.782 -0.1525  0.1512  0.2438
26280W        W42541  15.786  16.466   4.935  0.0453  0.0358 -0.1169
26281W        W42542   8.364  11.249   5.095  0.0622  0.0825  0.3633
26282W        W42543   2.080   1.964  13.670  0.0947 -0.0059 -0.0524
26283W        W42544   2.419   5.072  11.836 -0.0600  0.1571  0.3279
26284W        W42545   3.848  16.811   1.945 -0.0249  0.1605 -0.0289
26285W        W42546   5.725   6.881  13.334 -0.1298  0.1261 -0.2187
26286W        W42547  16.113  13.646   5.512 -0.1197 -0.1426  0.0950
26287W        W42548   2.055   1.157  16.981  0.0341  0.1399  0.0933
26288W        W42549  12.762   8.284  11.632 -0.4142  0.1129 -0.0029
26289W        W42550  15.432   8.652   4.937 -0.0587 -0.0504  0.3271
26290W        W42551   6.779  16.324  15.595 -0.0071 -0.1340 -0.1898
26291W        W42552  14.840   2.809   4.153  0.2775 -0.1993 -0.0724
26292W        W42553   0.024  15.371  12.369 -0.1144 -0.0806 -0.1976
26293W        W42554   0.070   9.746   4.167 -0.0522 -0.1148  0.1238
26294W        W42555  12.899  11.969   4.629  0.1498 -0.1079  0.1040
26295W        W42556   7.443   7.867   1.786 -0.3659  0.0213 -0.1091
26296W        W42557   8.494   1.992  12.333 -0.2101  0.0934 -0.0165
26297W        W42558   6.516   9.938   0.279 -0.1225 -0.1108  0.0677
26298W        W42559  13.152   9.153  14.850 -0.0916 -0.0698 -0.1040
26299W        W42560  14.907   7.377  16.878 -0.0018 -0.1370 -0.1653
26300W        W42561  11.032   1.518  11.430 -0.3970 -0.1078 -0.1660
26301W        W42562   5.784   8.363  14.042 -0.1977  0.4428  0.1826
26302W        W42563   7.554   3.707   2.692 -0.0331  0.1165  0.0846
26303W        W42564   6.894  10.053  14.420  0.1744  0.1256 -0.0436
26304W        W42565   0.652   8.714   6.046  0.0381 -0.0238 -0.0284
26305W        W42566  11.638   2.649  16.127 -0.1894  0.1422 -0.0660
26306W        W42567   9.510   3.515   5.341  0.1624  0.0771  0.1154
26307W        W42568   9.134   2.372  12.165 -0.1925 -0.1261  0.0496
26308W        W42569  13.581   3.869   3.843 -0.3417 -0.1212 -0.0854
26309W        W42570  11.969   7.473   4.163  0.3202  0.0083  0.2273
26310W        W42571  11.880   7.917   5.679  0.3180  0.1830  0.0205
26311W        W42572  10.802  13.158  15.004  0.0930 -0.2204 -0.0717
26312W        W42573   6.322   5.568  16.004  0.0977 -0.3198  0.1293
26313W        W42574   0.292   4.982   0.748 -0.3039  0.3273  0.0016
26314W        W42575   7.059   4.755   0.779 -0.1837  0.2150  0.0208
26315W        W42576   3.315  14.247   0.746  0.0815  0.0568 -0.0928
26316W        W42577  14.743   4.431  15.131  0.3872 -0.2400  0.0158
26317W        W42578   3.979   8.341   4.152 -0.0225 -0.1257  0.1245
26318W        W42579   6.524   8.931   0.510  0.3543  0.0070 -0.1145
26319W        W42580  12.499   7.671   5.374 -0.4303 -0.0774  0.2004
26320W        W42581  16.720  16.683  16.032  0.0363  0.0946  0.1962
26321W        W42582  12.611  10.125  12.920  0.0633 -0.1598  0.1865
26322W        W42583   0.464   1.295   4.736 -0.4712 -0.0266  0.0576
26323W        W42584   4.761  15.407   1.591  0.3014  0.0358  0.2136
26324W        W42585   6.524  17.089   3.721  0.0058  0.1145  0.2546
26325W        W42586   0.646   7.099   4.096  0.4643  0.0217  0.0367
26326W        W42587   6.428   8.564   2.658  0.0065 -0.2452  0.0545
26327W        W42588   8.272  16.829  15.466 -0.2591 -0.0208 -0.2266
26328W        W42589   3.046   5.680  12.912 -0.0576 -0.1325  0.0397
26329W        W42590   7.236  11.444   2.616  0.0134  0.0263  0.0342
26330W        W42591   8.784  16.914  12.417  0.2616  0.1179  0.3192
26331W        W42592   0.588  10.593  14.371 -0.0331 -0.1131  0.0788
26332W        W42593  16.392   4.320   3.409  0.4795  0.2717 -0.0553
26333W        W42594   5.408   8.825   2.395 -0.2826 -0.0127 -0.1647
26334W        W42595  12.536  17.632   0.907 -0.0793  0.0207  0.0952
26335W        W42596   5.211   3.673   1.144 -0.3839 -0.0463 -0.0242
26336W        W42597   8.813  14.172  12.395  0.1129  0.0285  0.1235
26337W        W42598   1.621   3.984   3.770  0.0771  0.3789 -0.2119
26338W        W42599   0.418  11.000   5.796 -0.0601  0.1194 -0.0440
26339W        W42600   0.011   1.238   5.901 -0.1074 -0.4066  0.1781
26340W        W42601   8.193   3.887  14.293  0.1588 -0.3774  0.4656
26341W        W42602   1.492  13.396  12.874 -0.0066 -0.3121 -0.0773
26342W        W42603  13.518   1.689   3.764  0.0543  0.3053  0.0046
26343W        W42604  17.138   1.261  15.376 -0.1677 -0.2627 -0.1342
26344W        W42605  14.778  11.235   6.053 -0.2568 -0.1864 -0.0625
26345W        W42606   0.565  13.066   5.965  0.1806 -0.1122  0.0218
26346W        W42607  16.022   1.237   1.053 -0.1742 -0.3588  0.1680
26347W        W42608  17.685   4.188   2.631  0.1478  0.1024 -0.2077
26348W        W42609   1.892  15.686   1.351 -0.0494 -0.2025  0.3811
26349W        W42610  11.324  15.586   4.934  0.1274 -0.0040  0.1101
26350W        W42611  16.349   9.278   3.628  0.0346 -0.4258 -0.3463
26351W        W42612   1.488  12.285  11.797  0.0617  0.0950 -0.0601
26352W        W42613   0.421  10.815  13.797  0.1068 -0.0603 -0.1271
26353W        W42614   6.097   7.801   3.378 -0.0320  0.0627  0.0883
26354W        W42615   1.085   4.392  15.034  0.3953  0.2184 -0.4240
26355W        W42616   6.649  15.593  14.974  0.3981 -0.0961 -0.1961
26356W        W42617  16.502  15.385  14.864  0.0312 -0.2599 -0.0811
26357W        W42618   2.702   8.836  12.205 -0.0439  0.0396 -0.0100
26358W        W42619   4.489   5.503  14.436  0.0246 -0.2884 -0.2610
26359W        W42620  12.643   7.880   4.942  0.2662 -0.1752  0.1298
26360W        W42621  14.052   0.998   4.238 -0.0395  0.1974 -0.1462
26361W        W42622  10.120   7.348   4.986  0.1220  0.0086  0.1089
26362W        W42623  12.536   4.231   0.733  0.0373  0.0108  0.0813
26363W        W42624  16.139   8.030   0.235  0.1792  0.0990  0.1939
26364W        W42625   4.037   8.704   0.165  0.1490 -0.0896  0.0702
26365W        W42626   2.565  17.819  13.135  0.1971  0.2042 -0.2205
26366W        W42627   7.096   1.914   0.408  0.1677  0.0614  0.1376
26367W        W42628  10.423   2.103   4.587 -0.2205  0.1316 -0.1643
26368W        W42629   5.573  10.985   3.480 -0.1600 -0.2044 -0.0487
26369W        W42630  17.245  16.088  16.180  0.0973  0.2001 -0.0800
26370W        W42631   1.427   3.530   4.026 -0.3592 -0.1754 -0.1418
26371W        W42632  16.759  12.161   5.943 -0.1220 -0.0815  0.0671
26372W        W42633   6.302   5.577   1.016  0.0069  0.3278 -0.1630
26373W        W42634  11.726   8.455  13.601 -0.0781  0.0012 -0.2434
26374W        W42635  10.117   0.787  14.253 -0.1387  0.0056 -0.2971
26375W        W42636  13.136   7.635  16.586 -0.1058  0.3785 -0.0558
26376W        W42637   2.170  13.952  13.837  0.1350  0.1162  0.2445
26377W        W42638  15.556   8.735  13.488  0.1830 -0.0643  0.2569
26378W        W42639  13.909   6.557  11.725  0.3026 -0.0453 -0.3035
26379W        W42640   4.856  14.592   1.463  0.0109 -0.1815 -0.3157
26380W        W42641  10.480  17.437   3.497 -0.2341 -0.2341 -0.1918
26381W        W42642  17.261   4.120   0.480  0.0699 -0.0640  0.1102
26382W        W42643  13.229   8.086  16.387 -0.0852  0.1541  0.0854
26383W        W42644  16.503  13.396   1.091 -0.1641 -0.0260 -0.0959
26384W        W42645  17.602   4.930   4.863 -0.0480  0.1681  0.1135
26385W        W42646  10.546   8.999   5.177  0.0034  0.4770 -0.0951
26386W        W42647  16.588   6.154   2.392 -0.2140  0.1108 -0.0858
26387W        W42648   0.800  15.901   4.444 -0.0867  0.0714  0.0402
26388W        W42649   1.684   3.456   5.782  0.1077 -0.0450 -0.0464
26389W        W42650   3.884  17.528   1.503  0.1649 -0.1296  0.1087
26390W        W42651  14.256   7.344  16.119 -0.2170  0.1616 -0.0118
26391W        W42652  13.012  14.205  14.466  0.1938 -0.0269  0.0764
26392W        W42653   3.491  15.111  16.388 -0.1881  0.3012  0.1987
26393W        W42654   7.915   0.177   3.174  0.1039 -0.0708  0.3589
26394W        W42655  11.168   8.086   5.067 -0.0194  0.0477  0.0012
26395W        W42656   5.094  12.822   0.971 -0.2450  0.0694  0.0223
26396W        W42657   3.629   6.949   6.071  0.2238  0.1131  0.0327
26397W        W42658   5.433   5.212   1.904  0.2340  0.4456  0.2143
26398W        W42659  12.770  14.990   4.141  0.0669 -0.2058 -0.0804
26399W        W42660   9.317  13.872  12.399 -0.1738  0.1094  0.3841
26400W        W42661  15.759   7.252   3.450 -0.2240  0.1252  0.3595
26401W        W42662  10.970  17.747   0.258 -0.3104  0.0577 -0.0209
26402W        W42663  15.812   1.599  13.091 -0.3045  0.1414 -0.0659
26403W        W42664  10.019   6.461  11.703 -0.0466  0.3302 -0.0601
26404W        W42665   7.228  10.196   5.001  0.0448  0.0819 -0.0628
26405W        W42666   9.718   6.898   2.099  0.3121  0.0257  0.3297
26406W        W42667  16.780   2.804   0.358  0.1575 -0.1229 -0.0710
26407W        W42668  13.571  17.424  14.783  0.0406  0.3225  0.1986
26408W        W42669  14.084   1.595   3.596 -0.2456  0.1360 -0.2075
26409W        W42670  17.383   5.274  14.453  0.4615 -0.2013  0.1881
26410W        W42671  16.142   1.765  11.843  0.2023  0.0059 -0.1375
26411W        W42672  11.735   9.403  13.718  0.0158  0.4221  0.1822
26412W        W42673  10.602  17.491  13.335 -0.1265 -0.0464 -0.2469
26413W        W42674   3.223  16.958  12.353  0.0853 -0.0910 -0.1086
26414W        W42675  16.510  10.281   4.292  0.0637  0.1440 -0.1617
26415W        W42676  11.260  10.137   5.520  0.2758  0.1390  0.1692
26416W        W42677  10.393   7.649  13.105  0.3579  0.3341  0.0532
26417W        W42678  16.784   6.045   2.912  0.2064 -0.2530  0.0765
26418W        W42679  17.139  10.027   4.555  0.0658  0.1234 -0.0069
26419W        W42680  13.905  11.504   0.165 -0.2079 -0.2084  0.0611
26420W        W42681  13.161   2.105  15.709  0.1862 -0.2055  0.1676
26421W        W42682   6.812   9.493  15.496  0.1106 -0.1210  0.0787
26422W        W42683  14.536  10.359   2.639  0.0286 -0.0994  0.1236
26423W        W42684   0.579  16.636   2.422 -0.0556 -0.1132 -0.2482
26424W        W42685   0.227   7.786  12.012 -0.0197  0.0583 -0.0791
26425W        W42686  13.599   7.513  15.719 -0.1274  0.1071  0.2627
26426W        W42687   3.254  11.259   1.144 -0.0073 -0.0575  0.1635
26427W        W42688  14.469  12.169   0.310  0.1775 -0.3856 -0.1017
26428W        W42689  11.818   6.840  16.235  0.0514  0.1320  0.0315
26429W        W42690  10.195   6.760  13.419 -0.2009 -0.1644  0.3488
26430W        W42691   5.609   3.918  13.126 -0.2733 -0.1768 -0.1386
26431W        W42692  14.065   1.446  15.613  0.0344 -0.0389  0.0395
26432W        W42693  14.148  17.128   4.024  0.0757 -0.3753 -0.1859
26433W        W42694   4.021  13.595   4.520  0.0306  0.2059  0.2269
26434W        W42695   1.439  11.786   2.685  0.2839 -0.1032  0.1975
26435W        W42696  10.974   7.831  16.278  0.0963  0.2804 -0.1014
26436W        W42697   8.778   9.701  11.482  0.2037  0.5316 -0.0359
26437W        W42698   3.257   1.196   3.358  0.1174  0.1575 -0.0224
26438W        W42699   8.501   7.286   2.655 -0.2385 -0.1165 -0.1710
26439W        W42700   0.431  17.468  15.254 -0.0122  0.1044  0.0640
26440W        W42701  14.388  11.010  11.274  0.1649 -0.2502  0.0000
26441W        W42702   2.807  10.172   1.391 -0.0878  0.1824  0.1351
26442W        W42703  11.905   3.073   2.605 -0.1236 -0.1335 -0.0300
26443W        W42704   2.396  16.947   4.093 -0.1517  0.0591 -0.0371
26444W        W42705   2.721  14.594  12.656  0.0931  0.0804  0.1015
26445W        W42706   3.162  12.575  16.800 -0.2061 -0.0132 -0.1648
26446W        W42707  11.287  13.533  15.968  0.1147 -0.1787  0.1771
26447W        W42708   2.802   7.194  13.525 -0.0542  0.0994  0.0421
26448W        W42709  15.985  17.276   2.094 -0.0486  0.3335  0.0030
26449W        W42710   7.777  10.765  15.668 -0.2786  0.2935  0.1715
26450W        W42711   4.046  16.304   1.599  0.1973  0.3811  0.0074
26451W        W42712  12.839  14.480   0.658  0.0692 -0.1629  0.2031
26452W        W42713   3.370   9.103   0.217  0.2172 -0.0147 -0.1604
26453W        W42714   4.661   3.116  12.064  0.1039  0.0693  0.0038
26454W        W42715   9.568  13.676  15.211  0.1951  0.1709  0.2814
26455W        W42716   5.362   8.684  11.956  0.0876 -0.1310 -0.1684
26456W        W42717  15.728   2.354  11.373  0.3647  0.3857  0.1748
26457W        W42718  17.633  15.554   6.191  0.0872  0.2934  0.0446
26458W        W42719   0.417  15.446  16.119  0.2225  0.0020 -0.0473
26459W        W42720  14.041   9.853   6.297  0.0383 -0.0892  0.1066
26460W        W42721   0.865  12.759  14.855 -0.0636 -0.0714 -0.0464
26461W        W42722   2.029  12.797  15.252  0.0096  0.3822  0.1477
26462W        W42723   9.190   7.453   2.095 -0.0056 -0.2101 -0.3122
26463W        W42724  13.524  11.161  16.635  0.0310  0.0921  0.0940
26464W        W42725   5.668  10.343   1.591 -0.0492 -0.0282 -0.0413
26465W        W42726   4.374   9.040  14.906  0.4074  0.0812  0.1789
26466W        W42727   3.722   6.938   2.656 -0.0999  0.1702  0.3696
26467W        W42728   6.512   0.525  16.755  0.0150  0.4243 -0.2499
26468W        W42729   1.959   3.016   2.814 -0.0295  0.0374  0.0380
26469W        W42730   6.076  14.948  14.644 -0.0110  0.1999 -0.1966
26470W        W42731   7.519   2.904   3.298 -0.2391 -0.0872 -0.0070
26471W        W42732  10.015   8.974   5.001 -0.1542  0.0221 -0.1703
26472W        W42733   2.023   9.236  13.037 -0.0645  0.2295 -0.0747
26473W        W42734  12.209  14.415   2.530 -0.3988  0.1774 -0.2049
26474W        W42735   1.033   3.926  13.858  0.0792 -0.1974 -0.0737
26475W        W42736  13.799   0.222   3.162  0.2182  0.2037  0.1822
26476W        W42737   4.011  16.037   1.164  0.2520  0.2431 -0.1447
26477W        W42738   5.166  13.003   6.309  0.2084 -0.0220  0.0680
26478W        W42739   5.398  13.592  16.356 -0.0272 -0.1152 -0.6074
26479W        W42740   3.737   8.737  14.500  0.1030  0.1021  0.1415
26480W        W42741   1.368  15.358  11.615 -0.0560  0.0980  0.0516
26481W        W42742  14.519   7.238  14.999 -0.0697  0.0987 -0.0109
26482W        W42743  12.079   4.970   3.657 -0.0439 -0.2577 -0.0210
26483W        W42744   8.239   3.483  13.913  0.0422 -0.1460  0.0824
26484W        W42745  14.620   5.272  12.713  0.3337  0.0445  0.0114
26485W        W42746   0.259  12.553  12.849  0.1565  0.0695  0.1682
26486W        W42747  17.013   8.713   2.059 -0.1966  0.5605  0.0343
26487W        W42748   4.767   9.868   1.823  0.2246  0.0208 -0.1639
26488W        W42749   8.647   7.234  14.889 -0.1474  0.2261  0.2825
26489W        W42750  12.445   4.637  14.110  0.0020 -0.1891 -0.0754
26490W        W42751  16.784   7.526  12.413  0.1648  0.0134 -0.0721
26491W        W42752   0.681  11.675  11.741  0.0296  0.0120  0.0162
26492W        W42753  11.067  16.114   4.805 -0.1510  0.5210 -0.0318
26493W        W42754   6.524   6.446   1.663 -0.0186 -0.2234 -0.0424
26494W        W42755   4.904   2.779  12.433  0.1027 -0.0554  0.1859
26495W        W42756  11.168  15.735  14.876  0.0009 -0.0562  0.4427
26496W        W42757  17.308  12.906  12.230 -0.0273 -0.0532  0.1428
26497W        W42758   4.863  10.961  12.549 -0.0823 -0.0474 -0.2176
26498W        W42759  12.984  15.024  16.498  0.1227 -0.0840  0.1017
26499W        W42760  12.440   1.535   1.648  0.0064 -0.0208 -0.3299
26500W        W42761  11.944  11.513  13.684 -0.2796  0.0440 -0.1693
26501W        W42762   2.124   8.590  13.941  0.0700 -0.0755  0.1180
26502W        W42763   6.051   5.933  13.120 -0.1569  0.2749 -0.0588
26503W        W42764  16.869  10.111  12.299 -0.3665  0.1779 -0.0955
26504W        W42765  13.619   3.805  12.504 -0.1576  0.0772  0.0151
26505W        W42766  13.558   3.443   5.553 -0.1203  0.0113  0.0758
26506W        W42767   0.125  10.271   4.199 -0.2903 -0.0844 -0.1672
26507W        W42768   4.998   9.810  15.726 -0.0041 -0.2785 -0.0177
26508W        W42769   6.710  17.520   5.789 -0.3272 -0.0236 -0.2572
26509W        W42770   8.606  12.551   3.082  0.1323 -0.1967 -0.0801
26510W        W42771   0.695   1.047   5.417  0.0359 -0.0050 -0.1601
26511W        W42772  15.010   8.361   2.211 -0.0624 -0.1157 -0.0314
26512W        W42773  14.972   8.175  16.006 -0.0603 -0.1502 -0.1417
26513W        W42774   3.879   6.212   2.845 -0.1857  0.0598 -0.0127
26514W        W42775   1.129   6.033   2.125  0.0515  0.0573 -0.0720
26515W        W42776   6.253   9.984  12.029  0.0630 -0.0657  0.2209
26516W        W42777   5.471  13.322  14.554  0.3165 -0.2407 -0.0847
26517W        W42778  12.302  17.418  15.801 -0.0596 -0.0439 -0.1278
26518W        W42779  15.803  13.242   0.330  0.0149 -0.0991  0.1973
26519W        W42780  10.003   6.481  14.101 -0.2728  0.1311  0.1928
26520W        W42781   8.985   8.795  13.942  0.0134 -0.3286  0.2268
26521W        W42782  14.864   4.103   1.024 -0.2024 -0.0202  0.0489
26522W        W42783  13.787  10.749   2.323 -0.4454  0.0273 -0.0657
26523W        W42784   7.620   2.218  14.249  0.1007 -0.0261 -0.2207
26524W        W42785  11.620   8.174   4.875 -0.2450 -0.1316 -0.0218
26525W        W42786  11.931   4.509  16.598 -0.4193 -0.0391 -0.4296
26526W        W42787  11.592  10.927  11.789 -0.2981  0.0810  0.2280
26527W        W42788  15.701   4.781  12.733  0.1212 -0.0199  0.1256
26528W        W42789   9.649  10.587  16.902  0.0577 -0.0177 -0.0642
26529W        W42790  15.116  11.550  15.352 -0.4048 -0.1429 -0.3595
26530W        W42791  16.275   5.278   1.092 -0.1051  0.2532  0.0830
26531W        W42792   1.233  12.017  12.822  0.2153  0.0386  0.0366
26532W        W42793   1.007   6.738   1.121 -0.5800 -0.3647  0.0839
26533W        W42794   5.736   4.975  14.805  0.2980  0.2338  0.2182
26534W        W42795  15.886   7.680  14.916  0.2205  0.2617 -0.1762
26535W        W42796  14.099   0.762  14.932  0.1851  0.1705  0.1745
26536W        W42797  11.411   2.278  14.070  0.2633  0.0738 -0.1242
26537W        W42798  13.451   3.510   4.710  0.1154 -0.1791 -0.0025
26538W        W42799   5.686  15.435   2.449 -0.1765 -0.1730 -0.0858
26539W        W42800   0.803  11.363   5.037 -0.1516 -0.0350 -0.2039
26540W        W42801  10.547  15.539  12.399 -0.0616 -0.1087 -0.0414
26541W        W42802   8.657  11.047   4.192  0.2252  0.1277  0.0370
26542W        W42803  17.643   6.286  16.790  0.0535  0.2219 -0.0005
26543W        W42804   0.656  10.716  13.373  0.2082  0.0868  0.1312
26544W        W42805   5.665  10.266  16.767  0.0318  0.0849  0.1429
26545W        W42806   3.677  10.205   5.598  0.1163 -0.0819  0.0499
26546W        W42807  13.128  13.221  14.128  0.0348  0.0644  0.1858
26547W        W42808  11.869   9.643  12.627 -0.1087  0.3550  0.3661
26548W        W42809   4.398  10.662  12.778 -0.4212  0.0746 -0.2445
26549W        W42810  16.311  10.309   0.419 -0.2810 -0.1251  0.0862
26550W        W42811  15.116   6.344  13.329 -0.2593 -0.0446 -0.0760
26551W        W42812  11.023  12.413  14.903  0.0964  0.2324 -0.1151
26552W        W42813   2.578  11.918  15.702 -0.2784 -0.0351  0.2373
26553W        W42814  16.162  11.163  14.058  0.2747  0.3021  0.1377
26554W        W42815  12.395   8.385   3.907  0.2011  0.4896  0.0696
26555W        W42816  13.516  10.714   4.568  0.0230 -0.2183  0.1568
26556W        W42817   8.821  15.286   4.802  0.1151  0.1939  0.3766
26557W        W42818   5.622  16.223  16.560  0.0393  0.1014 -0.1296
26558W        W42819   7.634  13.547  11.260 -0.1073 -0.0323 -0.3571
26559W        W42820  13.730  10.455  13.674 -0.1137  0.1172 -0.0467
26560W        W42821  12.155  12.996  12.380 -0.0720 -0.2189 -0.0781
26561W        W42822  13.193   0.675  15.184 -0.2918  0.1871 -0.2671
26562W        W42823   9.039  12.554   1.488  0.0990  0.0043 -0.2994
26563W        W42824   3.695   5.405   2.449  0.0297 -0.1017 -0.1133
26564W        W42825   1.606  14.043  12.078  0.1971  0.0348 -0.4563
26565W        W42826  16.551  11.877   5.184  0.2530 -0.2185 -0.0420
26566W        W42827  10.999   6.992   3.381  0.3125 -0.2682 -0.0289
26567W        W42828  15.716  17.318   3.829 -0.0943 -0.0875  0.1184
26568W        W42829   3.659   3.514  12.713  0.0450 -0.1707 -0.0741
26569W        W42830   9.664   3.666  16.951 -0.0243 -0.1323  0.3691
26570W        W42831  14.865   4.017   3.973  0.0429 -0.1469  0.1012
26571W        W42832   9.803   4.660  11.627 -0.1778 -0.1676  0.0743
26572W        W42833  14.921   2.188   2.565 -0.2671  0.2618  0.0391
26573W        W42834   5.165   3.154  12.737 -0.2715 -0.0465 -0.1557
26574W        W42835   2.004   2.935   5.181 -0.4003 -0.1165 -0.0479
26575W        W42836   6.820   4.025  15.317 -0.0196 -0.1067 -0.0546
26576W        W42837   8.734  16.084   1.820  0.1201 -0.1276  0.3157
26577W        W42838   7.380  12.401   3.462  0.0577 -0.2405 -0.0362
26578W        W42839  14.483   1.188   1.089  0.0581  0.0179 -0.0237
26579W        W42840   8.073   0.090   1.516  0.1845 -0.4960  0.0774
26580W        W42841  17.182  16.568   1.715 -0.0842  0.1052 -0.1872
26581W        W42842   0.557   1.657   0.441  0.0611  0.3330  0.0389
26582W        W42843  11.729   8.634  12.916 -0.4071  0.0133  0.0465
26583W        W42844   3.030   2.404   1.465  0.1864 -0.1733 -0.0874
26584W        W42845   3.054  10.153  14.730  0.2426 -0.1108 -0.0861
26585W        W42846  15.421  15.896   1.301 -0.2439  0.0983 -0.2409
26586W        W42847  14.542   0.955  15.121 -0.3085 -0.2546 -0.4443
26587W        W42848   8.366  17.300   4.230 -0.0031  0.0135 -0.1551
26588W        W42849   8.500   0.033  12.634 -0.1008  0.1763 -0.1782
26589W        W42850   1.257  13.844  14.036  0.3063 -0.0429 -0.5232
26590W        W42851   8.046  14.200   1.147 -0.0072  0.1924 -0.0951
26591W        W42852  10.270   4.691  14.438 -0.1324 -0.1090 -0.2089
26592W        W42853   4.447   9.993   7.090  0.2122  0.1171 -0.0685
26593W        W42854  13.939   0.041  13.144 -0.1465 -0.1328 -0.0072
26594W        W42855   1.470  12.210  14.675  0.2803  0.1381  0.3224
26595W        W42856   2.120   7.205   1.019 -0.0101 -0.2633 -0.0894
26596W        W42857   9.333   3.023   5.563  0.1182  0.2151  0.0754
26597W        W42858   2.097   5.164   3.442 -0.2733  0.0022 -0.0188
26598W        W42859   4.359   7.764  16.105  0.3297  0.0053  0.3216
26599W        W42860  12.045   8.112  12.864  0.2997  0.1154 -0.0478
26600W        W42861  10.651  10.842   4.824 -0.2924 -0.2923 -0.0429
26601W        W42862   9.698  16.203   0.242  0.0896 -0.1367  0.0245
26602W        W42863  16.343  17.063   4.562  0.0678  0.2982 -0.0111
26603W        W42864   9.152  13.485   4.942  0.0383  0.1132 -0.2866
26604W        W42865   8.316  15.292  16.809  0.0110 -0.0750 -0.0699
26605W        W42866  15.483   4.915  13.241  0.0361  0.0873 -0.0667
26606W        W42867   5.693   1.559   4.319 -0.0813 -0.2874  0.1171
26607W        W42868   9.816  13.118   5.443 -0.0081  0.1315  0.2506
26608W        W42869  10.290   9.726   3.352  0.1912 -0.0058  0.0126
26609W        W42870  15.882  11.229  13.414 -0.0589  0.0828 -0.0601
26610W        W42871  12.665   7.880   3.889  0.1078  0.1226 -0.0179
26611W        W42872  17.307  10.021   0.042  0.1430  0.1811 -0.2007
26612W        W42873  15.670   3.325   0.789  0.2267  0.4173 -0.2076
26613W        W42874  14.906  14.049   0.067 -0.0603 -0.0259  0.0856
26614W        W42875  10.980  17.189  11.839 -0.1747 -0.1329  0.0133
26615W        W42876  14.362   1.903   3.918  0.0024  0.0062 -0.1292
26616W        W42877  15.678  14.385   2.524  0.1038  0.0483  0.0891
26617W        W42878   1.336   8.304  12.840  0.1780  0.0670 -0.2429
26618W        W42879   1.596   1.749   3.155  0.0181 -0.0627  0.1896
26619W        W42880   2.286   1.102  14.372 -0.2505  0.2069  0.3108
26620W        W42881   9.959  11.307   0.644 -0.1206  0.0647 -0.1682
26621W        W42882   0.537   3.310   0.749  0.1105 -0.0820 -0.3702
26622W        W42883  16.722   7.112  11.890 -0.0177 -0.0499  0.0800
26623W        W42884  17.705   5.503   0.852  0.2847 -0.0976 -0.1134
26624W        W42885   6.831  13.132  16.618  0.1617 -0.0517  0.1342
26625W        W42886   5.636  11.019  15.598 -0.1536  0.0991  0.1297
26626W        W42887  10.484   5.729   2.434  0.0458  0.3053 -0.3399
26627W        W42888   1.304  12.429  16.486 -0.3733 -0.3023  0.0161
26628W        W42889   0.228   7.227  16.588 -0.0073 -0.1088 -0.1422
26629W        W42890  17.729   5.161  13.834 -0.0145 -0.0820 -0.0090
26630W        W42891  12.537   3.580  12.355 -0.2189  0.2477 -0.0990
26631W        W42892   3.407   5.134  11.983 -0.0498 -0.2202  0.0117
26632W        W42893  16.015  10.988   3.274  0.1645 -0.2483 -0.1298
26633W        W42894   4.067   4.187  14.510 -0.0911 -0.2644  0.3819
26634W        W42895   7.856  13.245   2.047 -0.2478  0.1870  0.2318
26635W        W42896  13.151  10.851  16.539  0.1219  0.1067  0.3361
26636W        W42897   3.603   9.567  15.099 -0.1566  0.4377  0.2516
26637W        W42898   8.605   1.515  16.161 -0.2706  0.3199  0.0371
26638W        W42899  14.939  17.570   3.212 -0.1437 -0.0272  0.0992
26639W        W42900   0.073   8.349  12.871 -0.2191  0.1375 -0.1969
26640W        W42901  15.578   2.716  13.730 -0.1280  0.2440 -0.2368
26641W        W42902   5.853  15.854  14.300  0.0103  0.0683  0.4103
26642W        W42903  14.047   3.896  11.725 -0.2357 -0.0124 -0.1854
26643W        W42904   0.617  10.646   2.027  0.1045 -0.2184  0.1913
26644W        W42905   0.639   1.534  16.506 -0.0399  0.2285 -0.2327
26645W        W42906   4.884   0.197   5.980  0.0476  0.0611  0.2463
26646W        W42907   1.103  11.132  16.808  0.2104 -0.1672 -0.4739
26647W        W42908  16.009  13.668   5.039  0.1007  0.0956 -0.1999
26648W        W42909   4.583   5.181   0.335  0.3155  0.2183  0.4667
26649W        W42910  13.819  15.776  16.613 -0.2211  0.0121 -0.1317
26650W        W42911  13.701  14.470   3.683  0.1138  0.1426 -0.0973
26651W        W42912   0.200   7.040   2.084  0.0865  0.0352  0.0507
26652W        W42913   7.786  12.695  16.595 -0.0753 -0.3377 -0.1932
26653W        W42914  15.476   6.956  15.390  0.1089 -0.3265 -0.0574
26654W        W42915   1.353   4.999  12.998  0.0958 -0.2438 -0.0015
26655W        W42916   8.026  17.774  12.921 -0.1285  0.4359 -0.1416
26656W        W42917   3.535   4.678   1.151 -0.0229 -0.0382 -0.1143
26657W        W42918   3.293   8.658   3.344 -0.1221 -0.0210 -0.1289
26658W        W42919  14.528  17.038   4.348 -0.0948  0.0471  0.0510
26659W        W42920   0.317   8.203   6.686 -0.0739 -0.0317 -0.1856
26660W        W42921  13.967   7.840   1.109  0.1223  0.1336  0.3266
26661W        W42922  10.927   2.507  12.552  0.0816 -0.0679  0.0024
26662W        W42923  11.531  14.713  13.768 -0.1588 -0.3461  0.1004
26663W        W42924  17.595  17.230  15.550 -0.4669  0.3697  0.0424
26664W        W42925  15.266   7.223   1.198 -0.1860 -0.1336  0.0209
26665W        W42926  13.998   5.307  11.905  0.0089 -0.3335  0.3987
26666W        W42927  13.686   7.786   5.408 -0.0872 -0.1041  0.3127
26667W        W42928   4.967  14.514   0.995  0.1249  0.1158  0.1524
26668W        W42929  16.273  14.803   2.115  0.0177  0.1346  0.0548
26669W        W42930  15.325  12.708   3.946  0.2320  0.2638  0.1697
26670W        W42931  14.919   0.160   3.439  0.2572  0.3195 -0.2155
26671W        W42932   1.353   8.942  16.130 -0.0438  0.0313  0.0366
26672W        W42933  11.201  12.083  12.248 -0.2114  0.1202 -0.0461
26673W        W42934   9.073  10.691   5.479  0.1034  0.0590  0.3085
26674W        W42935   5.713   2.989  13.572  0.1976  0.3105 -0.1447
26675W        W42936   2.429   5.740   2.312  0.1983 -0.2853  0.0121
26676W        W42937   7.579  10.671   3.701 -0.1509 -0.1177 -0.0480
26677W        W42938   0.704   4.125  16.183  0.2187 -0.0932  0.1084
26678W        W42939  11.057   6.906   1.938 -0.1928  0.0170 -0.0764
26679W        W42940  16.912  14.963  15.572 -0.0225  0.0503 -0.0217
26680W        W42941  13.967  12.416  13.577 -0.0035  0.3251  0.0140
26681W        W42942   4.549   0.733   5.511  0.0277 -0.2002 -0.0429
26682W        W42943  15.823  17.220   3.107  0.0544 -0.0621 -0.0566
26683W        W42944   3.892   6.973   1.684 -0.0155  0.3037  0.0018
26684W        W42945  15.855   1.795  15.493  0.0133 -0.1498 -0.1376
26685W        W42946   5.135   2.793   3.751  0.3044 -0.1482  0.1019
26686W        W42947   3.324   2.685   5.376  0.3208 -0.2063 -0.0536
26687W        W42948  16.529  12.275  12.183  0.2232 -0.0613 -0.2109
26688W        W42949  13.529   6.110   5.074  0.2569 -0.1864  0.0471
26689W        W42950   3.462  15.436   1.704  0.1918 -0.0941  0.1435
26690W        W42951  17.756   0.545   5.623  0.2817  0.1405 -0.0387
26691W        W42952  14.375  12.270  11.681  0.1431 -0.0109 -0.2133
26692W        W42953  17.541   3.778   2.995  0.1057  0.1120  0.0698
26693W        W42954  12.703   9.062  16.158  0.0506 -0.1456  0.2101
26694W        W42955  15.472  16.649  12.622  0.1190 -0.0036 -0.0689
26695W        W42956   1.906  17.699  15.482 -0.0731 -0.2066 -0.2589
26696W        W42957  14.013   6.106  13.512 -0.1020 -0.0089  0.0479
26697W        W42958   7.032  11.616   5.064  0.0960  0.0948  0.2957
26698W        W42959   1.752   5.276  14.092  0.1044  0.0808 -0.2321
26699W        W42960   9.270   3.969   3.529  0.1634 -0.3350 -0.1961
26700W        W42961  10.882   4.603   0.072  0.3362  0.3129  0.0408
26701W        W42962   8.412  12.306   0.771  0.1817 -0.2720 -0.2810
26702W        W42963   3.598   5.829   4.142  0.2427 -0.1053 -0.1368
26703W        W42964  15.659   1.113  12.646 -0.1905 -0.0281  0.4748
26704W        W42965   1.053  14.481   2.861  0.0769  0.2085  0.0604
26705W        W42966  12.967  15.319  16.045  0.0063  0.2034  0.3225
26706W        W42967  17.729  13.646  16.768  0.1156  0.0704  0.2572
26707W        W42968   4.956  10.190  12.212 -0.1900  0.2234  0.3609
26708W        W42969   4.963   5.020   1.809 -0.0873 -0.1262 -0.3715
26709W        W42970  17.204  16.831  14.688 -0.1678  0.1468  0.1200
26710W        W42971  16.910  11.524   4.893 -0.0394 -0.4594  0.0575
26711W        W42972  17.254   4.856  14.623 -0.1073  0.0252  0.0879
26712W        W42973  10.036   1.264  16.236  0.1643 -0.0308 -0.1082
26713W        W42974   5.644   3.574   5.350  0.5165 -0.2767  0.0416
26714W        W42975   1.449   3.575  13.214  0.1733  0.1667  0.0247
26715W        W42976   1.423   8.864   5.502 -0.1246 -0.2487 -0.2590
26716W        W42977   3.245  16.829   0.643  0.0602 -0.2936 -0.0628
26717W        W42978  16.002  15.720   1.922  0.2394 -0.0768 -0.1606
26718W        W42979   1.214  15.713   3.311  0.0509 -0.2807 -0.1313
26719W        W42980   5.138   5.707   5.372  0.1856  0.1489 -0.1272
26720W        W42981  10.537  11.186   0.669 -0.2103 -0.4135 -0.0155
26721W        W42982   2.963  14.935   5.173 -0.1713 -0.2217  0.1744
26722W        W42983   9.655  17.233  16.306 -0.2886  0.4139  0.0230
26723W        W42984   9.175   2.234   5.361 -0.3509 -0.2154 -0.0803
26724W        W42985  14.216  11.677   2.112  0.4020 -0.3951 -0.0799
26725W        W42986  14.796   3.921   5.306 -0.0446  0.0778  0.1521
26726W        W42987   5.534   0.021  15.906  0.0625 -0.0790 -0.1725
26727W        W42988   6.107   6.383   2.540 -0.0754  0.0909 -0.1390
26728W        W42989   0.560   6.279  12.044 -0.0811  0.2375 -0.4868
26729W        W42990  11.080   2.625  11.707  0.2840  0.1903 -0.2889
26730W        W42991   8.409   2.668   5.311  0.1232 -0.2181  0.1213
26731W        W42992  12.919  16.613   0.155 -0.2662 -0.0207  0.2134
26732W        W42993   0.514   6.129   0.497  0.0075 -0.0211 -0.1362
26733W        W42994   8.186   1.023   1.520 -0.0054  0.1852  0.2570
26734W        W42995  14.283   5.075   5.360 -0.2755  0.0758 -0.1470
26735W        W42996  10.958   2.482   1.232 -0.3162 -0.1553 -0.0993
26736W        W42997  15.544  16.738   6.149  0.1410  0.0814  0.3652
26737W        W42998  15.956   4.217   3.188  0.0192 -0.0893 -0.0144
26738W        W42999  10.772  11.378   4.704 -0.2151  0.1309 -0.2665
26739W        W43000  16.470   2.163  11.748  0.0033  0.2274  0.4022
26740W        W43001   7.959  10.499  11.611  0.0773 -0.1650  0.1202
26741W        W43002   1.910   6.688   5.916  0.2292 -0.0576 -0.1857
26742W        W43003   4.578   0.930   3.100 -0.1317 -0.0381  0.1893
26743W        W43004  12.424   3.035   2.554 -0.1455 -0.2133  0.1151
26744W        W43005   1.142  12.809   0.489  0.0681 -0.0042 -0.0890
26745W        W43006   1.091   6.725   1.601 -0.0889  0.2842  0.1935
26746W        W43007  13.608  11.470   0.610  0.2093 -0.1711 -0.0033
26747W        W43008  17.440   1.299   1.225 -0.1894  0.2503  0.2476
26748W        W43009   1.954   4.361   3.015 -0.3710  0.2148  0.1287
26749W        W43010   0.247  11.455   1.318  0.2625  0.0263 -0.0857
26750W        W43011  16.429   2.483   5.353  0.0162  0.3482 -0.2060
26751W        W43012  17.204   5.575   0.456 -0.0091  0.1474 -0.1639
26752W        W43013  15.777   6.408  11.652  0.0175 -0.1110 -0.2074
26753W        W43014   0.290  10.801  16.201  0.0836 -0.0756  0.1323
26754W        W43015   3.770  15.000   4.278 -0.0732 -0.3947  0.2255
26755W        W43016   5.827   8.998  16.178 -0.0950 -0.0501  0.2148
26756W        W43017  12.184   0.956   5.206  0.1720  0.1736  0.1735
26757W        W43018   3.539   8.419  12.731 -0.1624 -0.2767  0.3148
26758W        W43019  11.692   7.085   5.263  0.0949  0.0909 -0.0831
26759W        W43020   8.375  15.029   4.978  0.0994 -0.0150  0.2504
26760W        W43021  11.355   1.718  16.921 -0.0231 -0.2620  0.1002
26761W        W43022  13.927   9.568  14.020  0.3680  0.0157 -0.0902
26762W        W43023  11.679  13.309   2.334  0.2073 -0.0360  0.0315
26763W        W43024  11.399  16.455  11.886 -0.2988 -0.3202  0.2710
26764W        W43025  15.090   5.522  12.724  0.2652  0.0188  0.0209
26765W        W43026   9.400  17.577  16.585  0.0267  0.5648 -0.0785
26766W        W43027   3.852  17.620  13.761  0.0815 -0.4131  0.1026
26767W        W43028   4.165  14.232   1.535  0.0650  0.0106  0.1916
26768W        W43029   8.848   3.597  12.227  0.5257 -0.0582 -0.2724
26769W        W43030   5.600   1.033   4.340 -0.1168 -0.0309 -0.1359
26770W        W43031   3.578  10.874  15.552 -0.1022 -0.0002  0.1138
26771W        W43032   7.190   8.883  13.284  0.0823  0.1973  0.0750
26772W        W43033  11.378  16.291   0.131  0.0971  0.0420  0.0587
26773W        W43034  12.617  14.103   5.141 -0.0063 -0.2009 -0.2401
26774W        W43035  12.796  15.757   2.200 -0.0853  0.1931  0.2807
26775W        W43036   8.101   4.715   2.063  0.0187 -0.1036 -0.4296
26776W        W43037   0.704   3.621   5.769  0.3768  0.2096 -0.1329
26777W        W43038  17.470   8.113  14.742 -0.1500 -0.1816 -0.3076
26778W        W43039  15.589   1.812  14.502  0.0321 -0.4208 -0.0756
26779W        W43040  10.721   5.969  16.944 -0.1006  0.0169  0.0208
26780W        W43041   1.194   8.250   5.149 -0.0130 -0.0436 -0.1866
26781W        W43042   7.790   7.139  14.559  0.0986  0.1758 -0.0334
26782W        W43043   1.417  12.264   2.641 -0.1551 -0.2849  0.2481
26783W        W43044   6.705   5.775  15.560  0.0819  0.0448 -0.0597
26784W        W43045   1.631   2.395   1.165  0.2301 -0.2367 -0.1419
26785W        W43046   2.463   2.901   5.366 -0.1445 -0.0233 -0.0162
26786W        W43047   3.422   7.228   2.288 -0.0859 -0.3176 -0.0892
26787W        W43048  15.856   8.916  12.438  0.0961 -0.2373 -0.1414
26788W        W43049   8.477  13.952   5.115 -0.2023  0.0303 -0.1324
26789W        W43050  15.231  15.134  14.417  0.0768  0.0875 -0.1645
26790W        W43051   3.609   7.294  13.518  0.1857 -0.2207  0.0670
26791W        W43052   0.510   0.676   3.758  0.1725 -0.0787  0.1880
26792W        W43053   8.745  16.226  13.799 -0.1023 -0.2364 -0.0240
26793W        W43054  11.788  12.846   5.419 -0.3602 -0.1255  0.1356
26794W        W43055   4.319  11.240   3.277  0.1351  0.0121  0.0534
26795W        W43056  14.634   0.253  16.390 -0.0315 -0.0372 -0.2072
26796W        W43057   5.580  10.301  13.062  0.0547  0.2658 -0.0956
26797W        W43058   1.298   9.939   5.802  0.0473 -0.0023  0.0643
26798W        W43059   1.006  14.323   2.375 -0.0554  0.4044 -0.3219
26799W        W43060   5.293  12.690   3.701  0.0693  0.0812  0.1656
26800W        W43061  14.732  14.677   5.589  0.0899  0.1038 -0.0506
26801W        W43062   3.958   1.030  13.585  0.4255  0.0018 -0.2356
26802W        W43063  15.175  16.188  15.292 -0.0688  0.0357 -0.2082
26803W        W43064  14.575   4.381   4.269  0.0407  0.0739  0.1194
26804W        W43065  16.653   6.943  14.372 -0.0558 -0.0440  0.3886
26805W        W43066   6.934   7.882  11.886 -0.2900  0.5206  0.2363
26806W        W43067   5.714  16.696  16.773 -0.0002 -0.0662 -0.2732
26807W        W43068  16.149   5.125   1.582 -0.4751  0.1179  0.1110
26808W        W43069   4.071   9.086   1.162 -0.3793  0.0950  0.0414
26809W        W43070  14.134   1.451   4.577  0.0742 -0.2664 -0.0962
26810W        W43071  12.442  14.785  16.645  0.1991  0.0912  0.0166
26811W        W43072   4.873  12.924  16.543 -0.4913  0.0014 -0.0488
26812W        W43073  17.457   6.803   5.547  0.5702  0.0330 -0.2909
26813W        W43074  10.215   6.289  12.099 -0.0359 -0.0211  0.0745
26814W        W43075  13.608   6.859   1.856 -0.1688  0.0446  0.0963
26815W        W43076   0.277   3.918   5.506  0.1521 -0.0046  0.1825
26816W        W43077  14.329   4.157  15.819  0.0624 -0.0879 -0.0553
26817W        W43078   7.188   6.014  14.784 -0.0216  0.2427  0.1224
26818W        W43079   0.560   5.795  12.928  0.2207 -0.3690 -0.0459
26819W        W43080   7.670   2.071  14.775  0.0066  0.0897 -0.1874
26820W        W43081   5.210  17.655   3.135  0.0041  0.2302  0.1346
26821W        W43082   5.492  15.014  15.961  0.2615 -0.0023 -0.0870
26822W        W43083   7.456  17.539   5.316  0.0134  0.1830  0.1978
26823W        W43084   2.989  11.919   5.400 -0.1376  0.1720 -0.1741
26824W        W43085   1.611   3.095   5.458 -0.2018 -0.0315 -0.3123
26825W        W43086   8.804   9.699   3.275 -0.0691 -0.2005  0.2369
26826W        W43087   0.789   3.598  15.322 -0.1537 -0.0411  0.1002
26827W        W43088  15.132  14.088   4.886  0.0274  0.2519  0.2284
26828W        W43089  10.809  11.860  15.433 -0.2136 -0.0691 -0.4833
26829W        W43090  17.492  16.313   5.010  0.0475 -0.1051  0.1372
26830W        W43091   3.180   4.877   5.524  0.1986 -0.0084 -0.1705
26831W        W43092  12.699   4.746   2.521 -0.0240  0.1274 -0.1327
26832W        W43093   9.450   4.561   2.809 -0.1041  0.2364 -0.0124
26833W        W43094   0.375   9.576   5.243  0.2684 -0.4247 -0.2010
26834W        W43095   8.364   7.925   2.651 -0.0209  0.3152 -0.0585
26835W        W43096  14.359   1.560   2.186  0.0812 -0.4236  0.1127
26836W        W43097   0.974   0.391  14.974 -0.0360 -0.3115 -0.0991
26837W        W43098  14.045   1.158   2.481  0.1636 -0.0163  0.1709
26838W        W43099  11.211   3.086   1.890 -0.2775  0.0725 -0.0175
26839W        W43100  10.622   2.253  15.855  0.0226  0.1799  0.1017
26840W        W43101  10.189   1.639   4.752 -0.1831 -0.3611 -0.0333
26841W        W43102   6.517  13.981   4.274  0.2468  0.3174 -0.0467
26842W        W43103   5.578  15.471  14.064  0.2440 -0.0399 -0.1163
26843W        W43104   6.422  17.012   0.955 -0.2297 -0.0867 -0.0740
26844W        W43105   3.417   4.001   5.055  0.1237 -0.0304 -0.1108
26845W        W43106   4.727  13.239  14.621 -0.0589  0.1582 -0.2393
26846W        W43107   7.885   5.260  13.985  0.0607 -0.1404 -0.3358
26847W        W43108  16.673   9.642  16.312  0.3048  0.0029  0.4073
26848W        W43109  17.254  10.716   3.829 -0.1934 -0.4751 -0.0938
26849W        W43110   9.472  14.732  14.379  0.0056  0.1176  0.0749
26850W        W43111   8.134   2.195   2.112 -0.0802  0.1221 -0.0228
26851W        W43112  12.946   0.718   2.380 -0.0250  0.0524 -0.1622
26852W        W43113   0.118  10.511   2.332 -0.2572  0.1688  0.1401
26853W        W43114   5.542   4.684   0.231  0.3014  0.2155 -0.0037
26854W        W43115  15.414  11.233   1.430  0.0022  0.0771  0.0740
26855W        W43116  15.571  16.665   1.764  0.0526  0.1293 -0.0126
26856W        W43117   3.124   4.943   4.395  0.0669  0.1813 -0.1529
26857W        W43118   9.910  16.793  16.917  0.2602 -0.3277 -0.0158
26858W        W43119   7.368   1.795  16.318 -0.1708 -0.1656 -0.1602
26859W        W43120   0.611   0.913   2.310 -0.0641  0.0888 -0.1988
26860W        W43121  16.193   9.707  16.123 -0.1383  0.1959 -0.1477
26861W        W43122  11.927   2.746  13.276  0.0444  0.0796 -0.2168
26862W        W43123  16.068   7.474  16.034 -0.1381 -0.0685 -0.2062
26863W        W43124  13.231   2.481  12.233  0.0044 -0.1596 -0.1419
26864W        W43125  17.699   1.780  16.705 -0.1323 -0.1409  0.0204
26865W        W43126  13.383  16.043  16.609  0.0524 -0.0645  0.1618
26866W        W43127   7.004  17.588   1.081 -0.2624  0.1858 -0.1702
26867W        W43128   6.632   0.150   3.135 -0.0121 -0.1564  0.1541
26868W        W43129   0.898   8.886   4.615  0.1773 -0.0300 -0.0804
26869W        W43130  16.888  11.505   5.388  0.1384 -0.0061  0.0124
26870W        W43131   8.283   4.570   3.524  0.1056 -0.0444  0.1626
26871W        W43132  12.332  16.357   3.228  0.0827 -0.3459 -0.0988
26872W        W43133  10.645   2.002  13.551  0.0876  0.0506 -0.0547
26873W        W43134   1.659   9.188   0.888 -0.0216  0.0678  0.1446
26874W        W43135  15.253  11.348   6.305 -0.1792  0.1393  0.4566
26875W        W43136   1.717  10.400   5.707  0.1889 -0.0970 -0.0552
26876W        W43137   1.112   1.843   5.297 -0.1244 -0.0471  0.0149
26877W        W43138   3.078   0.487   0.144 -0.1157  0.4494  0.0510
26878W        W43139   6.463   8.431  13.227  0.0252 -0.0809 -0.1235
26879W        W43140  16.673   1.527   3.781 -0.3943 -0.0471 -0.1273
26880W        W43141   3.812  10.143   1.058 -0.0774 -0.0356 -0.1555
26881W        W43142   7.576   6.415  13.992  0.2657  0.0861 -0.0986
26882W        W43143   4.218   6.284  12.524 -0.1098 -0.0314  0.0153
26883W        W43144  13.845   6.870  16.558  0.2280  0.0075 -0.1203
26884W        W43145   6.437   7.020  15.161 -0.1195  0.0425 -0.0259
26885W        W43146  16.141   4.552   2.359  0.3252  0.0582 -0.2415
26886W        W43147   9.090   0.625   0.556 -0.0213  0.0143 -0.3453
26887W        W43148   4.947  13.054  13.635 -0.1359 -0.0387 -0.0696
26888W        W43149  12.230   0.404  12.929 -0.1941 -0.1243 -0.3478
26889W        W43150   6.179  10.512  13.372  0.1082 -0.1728 -0.3799
26890W        W43151   5.306   0.170   3.958 -0.0276 -0.0258 -0.0723
26891W        W43152  11.526   3.602  13.692  0.0068 -0.2596  0.0913
26892W        W43153   6.919   9.798   4.204  0.1358  0.0625 -0.2917
26893W        W43154  16.427   5.548   1.590 -0.1923  0.1799 -0.2609
26894W        W43155  15.995   3.670  15.177  0.0649  0.4785  0.1711
26895W        W43156  16.473   9.707  15.688 -0.1112 -0.1249 -0.3420
26896W        W43157   5.425   2.344  16.737  0.2983  0.1120  0.1892
26897W        W43158  15.042  12.457   3.584  0.1056  0.1523  0.0602
26898W        W43159   9.606   5.903  15.255 -0.1877 -0.0487 -0.0659
26899W        W43160  12.265  12.093   1.750 -0.1931 -0.0561 -0.0199
26900W        W43161  12.921   6.019  14.471 -0.0136  0.1160 -0.1753
26901W        W43162   7.847  15.709   5.411 -0.2031 -0.2179 -0.0982
26902W        W43163  12.914   3.357   1.276  0.0646 -0.1856 -0.0669
26903W        W43164  14.910   8.622   2.594 -0.1314 -0.0399  0.1804
26904W        W43165  17.283   9.419   5.611 -0.1359  0.0563  0.1296
26905W        W43166  10.372   2.116   3.009  0.0945 -0.0599  0.2790
26906W        W43167   4.458  13.402   2.978 -0.1595 -0.1103  0.0873
26907W        W43168  11.274   7.023  15.476 -0.0225  0.1107 -0.1965
26908W        W43169  17.161   3.741  12.005 -0.1660  0.0709 -0.0517
26909W        W43170  12.025   2.612   3.738  0.3065 -0.1498 -0.0466
26910W        W43171  11.580  13.587  14.540  0.1026  0.2996  0.0237
26911W        W43172  16.407   6.042  15.920  0.2063  0.2320 -0.1986
26912W        W43173  12.419   8.905  12.250  0.1384  0.0568 -0.0121
26913W        W43174  15.497   1.761  14.013 -0.1730  0.0120 -0.0698
26914W        W43175  16.257   5.571   3.778  0.1177 -0.0899 -0.1549
26915W        W43176  15.963   6.357   0.418 -0.1529 -0.0228  0.0648
26916W        W43177   8.246   8.569  16.239  0.1820  0.0618  0.2505
26917W        W43178  16.441   1.777   2.643  0.1787  0.0075  0.1094
26918W        W43179   5.986   5.265  16.271 -0.1968 -0.1164  0.0965
26919W        W43180  12.791  11.297   3.074 -0.0775  0.0952 -0.2076
26920W        W43181   4.981  10.770   0.970  0.0651  0.0478  0.1849
26921W        W43182   9.313   4.873  10.699 -0.2384 -0.0859  0.0087
26922W        W43183   7.825  13.290   5.464 -0.3323 -0.0233 -0.2878
26923W        W43184  17.016   1.026   4.423  0.0660 -0.2493  0.0178
26924W        W43185  10.021  11.463  16.526 -0.1341 -0.0061 -0.1116
26925W        W43186   1.577   0.554   5.259  0.1310  0.0368 -0.1900
26926W        W43187  14.318   6.397  16.517  0.2414  0.0401 -0.0372
26927W        W43188  10.723  15.714  16.164 -0.3056 -0.1482 -0.1698
26928W        W43189  16.884   0.526   0.763 -0.0851  0.1223  0.1113
26929W        W43190   3.541   5.973  11.932 -0.0311 -0.0731  0.0980
26930W        W43191  15.891  11.703  14.983  0.0476 -0.0173 -0.0108
26931W        W43192  10.382  16.672  16.885 -0.2866  0.1966  0.5303
26932W        W43193  12.507   2.523  15.037 -0.1622 -0.1203  0.0749
26933W        W43194  11.500  13.337   1.071  0.0021 -0.1260  0.0886
26934W        W43195   9.804   4.982  12.408 -0.2864  0.0146 -0.2068
26935W        W43196  13.255   4.224   1.621  0.1543  0.2483  0.1185
26936W        W43197   1.765   8.489   1.928 -0.1880 -0.1093 -0.1028
26937W        W43198  10.321  15.702  11.299  0.1909  0.0168  0.0307
26938W        W43199  13.534  11.225   4.606 -0.2226  0.0458 -0.1360
26939W        W43200  12.136  11.041   4.540  0.1831  0.1136  0.3151
26940W        W43201   5.324  14.293  13.926  0.1189 -0.1254 -0.2032
26941W        W43202  11.066  17.195   0.364  0.2383  0.0012 -0.0212
26942W        W43203  17.023   0.841  12.163 -0.0128  0.0353 -0.3850
26943W        W43204  12.138   5.452  15.649  0.0912  0.1128 -0.2989
26944W        W43205   6.212  10.244   2.306 -0.2030  0.3660  0.2470
26945W        W43206  14.994   8.123   6.346 -0.0026 -0.0841 -0.5189
26946W        W43207   2.763  11.133  13.429  0.0702 -0.0424  0.3946
26947W        W43208   7.939  16.694   5.572 -0.0260  0.0501 -0.1173
26948W        W43209  17.311   1.171   2.876  0.1581  0.3104 -0.1440
26949W        W43210   0.927   3.003  15.111  0.2291 -0.1356  0.0654
26950W        W43211   5.400   2.230  15.910  0.1545 -0.0968  0.1750
26951W        W43212   1.609   7.667  16.254  0.2312  0.2289 -0.2217
26952W        W43213  12.418   5.475   3.455  0.0676 -0.0579  0.1796
26953W        W43214  10.040  12.804  12.992  0.3233 -0.0178 -0.0188
26954W        W43215   4.973   5.940  12.680 -0.0821  0.1005 -0.0717
26955W        W43216  10.805   9.855  14.354  0.2766 -0.4300  0.0102
26956W        W43217   1.246   7.656   0.155  0.1227 -0.0143 -0.0372
26957W        W43218   0.598  10.064   5.589  0.1872  0.4416  0.2616
26958W        W43219  10.407   6.662  12.530 -0.0062 -0.3464  0.0212
26959W        W43220   6.649  10.358   5.073  0.0293 -0.3328 -0.1779
26960W        W43221  11.137  13.895   3.931  0.1667 -0.3286  0.1665
26961W        W43222  11.194  12.466  16.263 -0.1334 -0.2230 -0.3430
26962W        W43223   1.124   6.372  12.904  0.0187  0.2083  0.2139
26963W        W43224   9.400  10.358  14.033  0.1523  0.1535 -0.3093
26964W        W43225  16.466   7.051   5.597  0.1581 -0.0904 -0.0099
26965W        W43226   4.341   3.645   1.612  0.0804 -0.0124 -0.0580
26966W        W43227  11.621   4.474   1.237  0.2782  0.1558  0.2642
26967W        W43228  10.426  12.037  15.959 -0.2784  0.0691 -0.3279
26968W        W43229   8.192   0.453   3.774 -0.4041 -0.0176 -0.2637
26969W        W43230   9.464  16.637   0.099  0.0850 -0.1912 -0.0977
26970W        W43231  12.815   0.390  14.949 -0.0158  0.0277  0.0229
26971W        W43232  11.957  15.423   2.420  0.2536 -0.0563 -0.2480
26972W        W43233   1.128  10.302   3.549 -0.0654  0.0130 -0.3586
26973W        W43234   4.661  11.669   3.451 -0.0344  0.2377 -0.0650
26974W        W43235   4.230  17.015  12.707 -0.2042  0.2038  0.0363
26975W        W43236   9.898  14.877  12.944  0.3014  0.0222 -0.0596
26976W        W43237   1.679   7.162   0.702  0.0736 -0.2178 -0.0330
26977W        W43238   5.693   2.943  14.141  0.1270 -0.0876  0.1208
26978W        W43239   4.925   2.818  13.041 -0.2561  0.0058 -0.4395
26979W        W43240   5.321  13.585   4.083  0.0994 -0.0638  0.0597
26980W        W43241   7.339  14.224   0.303 -0.1123  0.2092  0.1644
26981W        W43242   9.903  16.851   1.982  0.1133 -0.1544  0.1320
26982W        W43243   4.248   4.682  12.862  0.3823 -0.1899  0.1837
26983W        W43244  17.118  17.233   3.068  0.1122 -0.5007  0.5091
26984W        W43245   1.687   8.538  12.569  0.0467 -0.2525 -0.0082
26985W        W43246   5.759  12.287   5.895 -0.0294 -0.0239  0.0212
26986W        W43247   4.719  10.088   0.391 -0.1507  0.0116 -0.0596
26987W        W43248  17.611   2.059  14.042  0.0468  0.0478  0.2086
26988W        W43249  10.694   6.233  14.058 -0.0856  0.1456 -0.0703
26989W        W43250  11.866   5.697   1.639  0.0379  0.2046 -0.0755
26990W        W43251   9.699  17.186  14.253  0.0283  0.2022 -0.3339
26991W        W43252   7.914  11.709   3.750 -0.1063 -0.1411 -0.2323
26992W        W43253  16.399   9.630   1.904  0.2288 -0.4703  0.0953
26993W        W43254  13.316  10.361   2.223 -0.4050  0.2511  0.2000
26994W        W43255   4.654   2.629   0.115  0.0830  0.1994 -0.0142
26995W        W43256   6.708  15.084   3.335  0.2121  0.0971  0.0072
26996W        W43257   5.369  13.873  14.445  0.0657  0.1557 -0.1107
26997W        W43258   9.657  12.052   4.788 -0.2463  0.0228 -0.4201
26998W        W43259  10.028  10.009   0.442  0.3749 -0.2040  0.1924
26999W        W43260  13.243   1.551  12.277 -0.2201  0.3377  0.0591
27000W        W43261   9.569  16.430   1.146 -0.3703  0.1432  0.1235
27001W        W43262   9.726  15.340  15.522  0.0083  0.2237  0.0037
27002W        W43263   2.194   0.655   4.701  0.0305 -0.1362  0.2259
27003W        W43264   6.432  17.620   3.846  0.0380 -0.1343 -0.0383
27004W        W43265  10.894  11.422  13.428 -0.2395 -0.1089  0.0147
27005W        W43266   6.055  14.706  12.787  0.2023  0.0087 -0.0847
27006W        W43267   2.694   6.381   1.267 -0.1389 -0.1701 -0.1586
27007W        W43268   5.913   0.323   2.263 -0.2623 -0.1732 -0.0514
27008W        W43269   6.145   2.283  14.170  0.1814 -0.2097  0.3448
27009W        W43270  14.704   1.386  14.819 -0.0571 -0.0274  0.0398
27010W        W43271   4.788   1.276   2.461  0.0393  0.0438  0.1960
27011W        W43272   8.966   5.950  16.726 -0.1099  0.2115 -0.1774
27012W        W43273   0.633  17.637  13.415 -0.2765  0.2780 -0.0569
27013W        W43274   7.385  10.421   2.463 -0.5701  0.1342 -0.0305
27014W        W43275  17.793  13.317   2.705  0.0939 -0.0452 -0.2809
27015W        W43276  10.173  16.790  14.067  0.1494 -0.1875 -0.1234
27016W        W43277   1.793   5.026   3.899 -0.0474 -0.1230 -0.3478
27017W        W43278  12.765  12.849  16.726 -0.0709  0.1839 -0.2222
27018W        W43279   8.471   3.030   0.507  0.1130 -0.0207  0.0048
27019W        W43280  17.730  17.701   2.254  0.0006 -0.1124  0.1238
27020W        W43281   8.325   6.443  12.508 -0.0465  0.2659  0.1622
27021W        W43282  13.313   4.163  10.648  0.6146  0.2218  0.0932
27022W        W43283   7.740   1.133  15.839  0.0312 -0.2433  0.1057
27023W        W43284  12.800  16.989  12.424  0.0285  0.3038  0.0446
27024W        W43285   4.352  14.035   2.185  0.0739  0.1468  0.0000
27025W        W43286   4.438  12.825   5.560 -0.2179  0.0049 -0.2570
27026W        W43287   5.492   0.483   3.610 -0.4580 -0.1078  0.2967
27027W        W43288   9.503   0.670   4.449 -0.0503  0.0064  0.0300
27028W        W43289  12.837  14.815  14.584 -0.0958 -0.0348 -0.1357
27029W        W43290   4.648   0.417  12.242 -0.0144 -0.0724 -0.0012
27030W        W43291  15.082  16.083  16.820 -0.0349 -0.1325 -0.1524
27031W        W43292   2.891  12.983  16.915  0.1787 -0.0752  0.1096
27032W        W43293   5.910  16.233  12.369  0.2238  0.0130  0.2799
27033W        W43294  14.671  14.698   3.414  0.0515  0.0032  0.0531
27034W        W43295   4.573   3.907  14.430  0.3611  0.1488 -0.0435
27035W        W43296  12.385   0.166  11.646  0.2375 -0.0088  0.0063
27036W        W43297  14.571   7.091  14.472  0.2937 -0.1852  0.0211
27037W        W43298   3.157   6.251   4.852 -0.2760 -0.4351  0.2169
27038W        W43299  15.577   4.748   5.726 -0.3457 -0.0654 -0.0515
27039W        W43300   4.937  14.489  16.610 -0.1293 -0.4860  0.3214
27040W        W43301  15.876  17.628  11.914 -0.0058 -0.0238  0.4703
27041W        W43302   2.422  14.411  14.140  0.0007  0.4976  0.1174
27042W        W43303  12.701  17.094   5.318 -0.0933 -0.0466  0.1259
27043W        W43304   4.109   7.654   5.684  0.1047  0.0517  0.3969
27044W        W43305   3.373  16.694  13.118  0.0928 -0.0521 -0.2122
27045W        W43306   9.474  10.517  14.594  0.1452  0.0591  0.2733
27046W        W43307   6.625   2.435   1.018  0.0128 -0.1013 -0.0890
27047W        W43308  12.357   8.630   1.702  0.1644  0.1999  0.3332
27048W        W43309   4.879  10.785   3.700 -0.1720 -0.0504 -0.5020
27049W        W43310  11.376   9.392  15.498 -0.0667 -0.0214  0.0711
27050W        W43311   1.320  12.637   3.145 -0.0908 -0.0159 -0.0239
27051W        W43312   5.301   6.194   5.382  0.1460 -0.2779 -0.1545
27052W        W43313   2.266   3.068  13.258  0.0857  0.0817  0.1156
27053W        W43314   1.120  14.981   2.663  0.5533 -0.2933  0.1693
27054W        W43315   8.187  14.762  15.004  0.0713 -0.0779 -0.0773
27055W        W43316   1.233  14.339  14.320  0.0538  0.1482 -0.2051
27056W        W43317  16.447  10.625  16.963  0.0117 -0.0022 -0.1076
27057W        W43318  13.349  12.225  12.061  0.3415  0.1002  0.0471
27058W        W43319   8.039   6.360   2.636  0.4821 -0.0428 -0.0101
27059W        W43320  10.364  10.463   0.670  0.0527 -0.0434 -0.2930
27060W        W43321   1.493  12.905  16.670  0.0588 -0.0992  0.3672
27061W        W43322   6.517   6.540   5.269 -0.0121  0.0624  0.3406
27062W        W43323  11.174   7.917  15.058 -0.2988  0.0856 -0.0893
27063W        W43324  10.285   9.431  16.071  0.0285  0.1872 -0.3435
27064W        W43325   5.938   1.980   2.530 -0.0588 -0.0118 -0.2171
27065W        W43326   5.659   0.691   4.000 -0.2772  0.0192 -0.0470
27066W        W43327  16.368   2.099   2.118  0.0365 -0.2757 -0.0132
27067W        W43328   0.907  11.251   5.996  0.1101  0.2408 -0.2096
27068W        W43329  15.716   6.051  14.248  0.5080  0.1356 -0.2241
27069W        W43330   3.172   3.388  13.417  0.0217  0.1832  0.3432
27070W        W43331   6.124   4.091  13.206 -0.1484  0.0258  0.1577
27071W        W43332  13.353   2.887  16.917  0.1603  0.0863  0.0100
27072W        W43333  10.428   4.397  12.122 -0.0561  0.1317  0.0805
27073W        W43334   9.038   5.279   5.157  0.1601  0.0970 -0.1437
27074W        W43335  10.409   6.777  14.094 -0.2198 -0.3185 -0.0214
27075W        W43336  17.670   4.100   4.134 -0.0319  0.1137 -0.0834
27076W        W43337   5.384   8.799   2.948 -0.1376  0.0603  0.0317
27077W        W43338   3.993   0.680   0.110 -0.0146  0.1088  0.0364
27078W        W43339   2.792  15.156  14.882  0.0194  0.0151 -0.0866
27079W        W43340  16.013   0.150  16.281 -0.2486  0.1866 -0.2748
27080W        W43341  14.310  11.791  12.652 -0.0275  0.0235 -0.3462
27081W        W43342   3.241   8.083  12.496  0.2328  0.0752  0.2533
27082W        W43343   1.589  17.596   1.136  0.1596  0.1204  0.0843
27083W        W43344  16.148  13.613  16.986 -0.2491  0.1630 -0.1649
27084W        W43345   1.882  12.560   2.561  0.3155  0.1501  0.1946
27085W        W43346  16.157  11.982   0.159 -0.1744 -0.0515  0.2241
27086W        W43347   8.347  13.039   3.195 -0.0033  0.0445 -0.2858
27087W        W43348  11.585   5.520  15.721  0.0539 -0.0362 -0.2120
27088W        W43349   2.745   2.280  10.558 -0.1111  0.0901  0.3007
27089W        W43350  10.019   3.360   3.338 -0.0591  0.0399  0.1595
27090W        W43351   1.097  15.557  14.962 -0.0328  0.2889 -0.2178
27091W        W43352   1.642   1.069   5.117 -0.0995  0.0292 -0.1129
27092W        W43353   1.446   2.234  15.352 -0.2348  0.3817  0.3707
27093W        W43354   1.528   2.185  12.153 -0.1649 -0.2612 -0.1261
27094W        W43355  11.773   0.472  13.103 -0.1281 -0.0430  0.1440
27095W        W43356  16.926   0.456  13.725  0.1583  0.2232 -0.0286
27096W        W43357  11.991  15.053  14.899 -0.1999 -0.0480 -0.1091
27097W        W43358   9.019   7.360  15.168  0.0082  0.0832  0.2706
27098W        W43359  17.149  10.800  16.508  0.1397 -0.0775 -0.2012
27099W        W43360  13.176   7.516   0.087 -0.0946 -0.0091  0.1941
27100W        W43361   4.324   1.474  14.896 -0.3050  0.0926 -0.4789
27101W        W43362   0.424   9.637   2.086 -0.1047 -0.1107  0.1819
27102W        W43363  14.370   1.308   2.855  0.2158  0.2466  0.1083
27103W        W43364   4.582  16.331   0.882  0.2476  0.1243  0.2264
27104W        W43365   6.147   2.167   4.798 -0.3216 -0.0757  0.0396
27105W        W43366   2.017  17.212   5.017 -0.2650  0.3200  0.2268
27106W        W43367   5.850   7.167  12.983 -0.1301  0.0795 -0.1047
27107W        W43368   8.517  14.405  14.958 -0.1455 -0.3055  0.1792
27108W        W43369   4.714   7.392  14.358 -0.0209 -0.1403 -0.2196
27109W        W43370  16.340  14.790  15.423  0.0696 -0.5318  0.0488
27110W        W43371  17.172  11.056  16.087 -0.2324 -0.0113 -0.1463
27111W        W43372  10.685   7.098  12.447  0.0727  0.2410 -0.0938
27112W        W43373   3.550   9.364   5.443 -0.0545 -0.1148  0.1362
27113W        W43374   2.793   6.992  14.181 -0.0683  0.2212 -0.2744
27114W        W43375  12.638   6.957   4.824 -0.3072 -0.2569  0.0993
27115W        W43376   4.576   4.363   0.404  0.2190  0.1267 -0.0042
27116W        W43377  15.231  14.250  15.681  0.1529  0.0341 -0.1150
27117W        W43378   8.349  10.905  15.859  0.1199 -0.2352  0.2290
27118W        W43379   9.592   0.873   2.858 -0.0306 -0.0664 -0.0503
27119W        W43380   8.933  12.886  11.826 -0.1477 -0.0654 -0.0256
27120W        W43381  16.074   2.587  15.833  0.0177 -0.0313 -0.2069
27121W        W43382   1.402   6.343   1.146 -0.1796 -0.2622  0.0724
27122W        W43383   3.692  10.089   0.156  0.4422  0.2810 -0.0886
27123W        W43384   1.767  11.443   5.006  0.2282  0.0853  0.3129
27124W        W43385  10.632   5.424  14.585 -0.2014  0.3749  0.3654
27125W        W43386   5.944   9.054   5.134  0.1811  0.1271 -0.0548
27126W        W43387  14.358  11.256   4.934  0.2013  0.0674 -0.2063
27127W        W43388   1.208   4.867   0.740 -0.1623 -0.0704  0.2352
27128W        W43389   6.235   6.019   0.809  0.2067 -0.0189  0.1304
27129W        W43390   1.268   5.392   1.573  0.0160 -0.0097 -0.0021
27130W        W43391  15.300   3.895  13.991 -0.2169 -0.2963 -0.2388
27131W        W43392   3.312  12.047   2.700 -0.0172  0.0309 -0.2200
27132W        W43393  12.965   7.576   1.071  0.3303  0.2198  0.0206
27133W        W43394  13.032   3.761   6.355 -0.2231 -0.1046 -0.0293
27134W        W43395   5.813  17.186  13.564  0.2448  0.0018 -0.0267
27135W        W43396   7.333   6.673  15.439 -0.1588 -0.2848  0.4731
27136W        W43397   1.705  13.740   1.437 -0.1222  0.0036  0.0255
27137W        W43398   6.217  13.911   2.752 -0.0686  0.2083  0.0940
27138W        W43399  13.329   6.253   0.215 -0.4081 -0.1508  0.1824
27139W        W43400  11.424   2.422  14.863  0.0276  0.0018 -0.0355
27140W        W43401  15.780  10.164  12.949  0.0159  0.0624 -0.1346
27141W        W43402   5.075  10.493   4.890 -0.1045 -0.0715  0.0671
27142W        W43403   5.626  10.111  13.530  0.3853 -0.0794  0.1129
27143W        W43404  10.296  15.326  12.045 -0.0952  0.0924  0.1666
27144W        W43405  11.366  13.295  16.404  0.1760 -0.4202  0.1512
27145W        W43406   9.034   7.948   5.658 -0.1044 -0.0622  0.1551
27146W        W43407   1.800   1.475   0.809  0.2216 -0.2291  0.0306
27147W        W43408   5.852   1.345  16.158  0.0800 -0.2491  0.0309
27148W        W43409  11.047   6.610  11.782  0.1354  0.1769 -0.1263
27149W        W43410   9.720  17.600   2.772  0.0871 -0.1326 -0.1654
27150W        W43411  15.089  15.306  12.603  0.2691  0.1457  0.1234
27151W        W43412   3.767  16.878   0.879  0.1295  0.2580  0.0543
27152W        W43413   5.191  17.167  12.013  0.0736  0.0398  0.1327
27153W        W43414  14.132   5.040  13.981  0.2937 -0.4099  0.0918
27154W        W43415   0.777   0.094  15.951 -0.1699  0.0333 -0.0864
27155W        W43416  14.206  16.958   0.072 -0.3634 -0.3521  0.0308
27156W        W43417   6.957  10.301   0.939 -0.0234  0.0178 -0.3321
27157W        W43418   5.080   7.142   0.224  0.0107 -0.0312  0.2377
27158W        W43419   0.633   0.439   5.552  0.1414  0.1357 -0.1044
27159W        W43420   5.022  12.575  13.338  0.0798  0.0107  0.0255
27160W        W43421   0.928  10.789   2.814  0.3251  0.2790 -0.2356
27161W        W43422   4.522   2.424  15.578  0.2872  0.1245  0.1181
27162W        W43423  13.129   9.464  11.880  0.2138  0.0141  0.0987
27163W        W43424   2.235   2.605  14.356 -0.0841  0.3019 -0.4208
27164W        W43425   8.575   6.914  15.894  0.0915 -0.2403  0.0583
27165W        W43426  16.593  10.511   6.236  0.1181  0.0634  0.2856
27166W        W43427  11.986   0.340  14.398 -0.1200  0.2093 -0.2686
27167W        W43428   8.680   0.110   0.544 -0.3098 -0.0538 -0.1152
27168W        W43429   3.219   2.181  12.630  0.2201 -0.0405  0.2268
27169W        W43430  11.029  10.581  16.103  0.0455  0.0448 -0.2799
27170W        W43431  16.974  15.394   3.382 -0.1079  0.0481 -0.2594
27171W        W43432   6.862   0.557  13.131  0.1628  0.2061  0.1077
27172W        W43433  12.522  16.247  15.497 -0.4034 -0.3566 -0.0530
27173W        W43434   1.433  12.548   2.160  0.0014 -0.1770  0.0612
27174W        W43435  13.158   0.498  14.579 -0.0245  0.2010 -0.1415
27175W        W43436  17.141  10.094  15.050 -0.1684 -0.1825  0.1174
27176W        W43437   2.682  11.811   2.112  0.1268 -0.1642  0.1271
27177W        W43438   6.899   5.447  15.901  0.2632  0.1093 -0.2710
27178W        W43439  16.135   6.973  16.215  0.1328  0.1852 -0.1165
27179W        W43440   2.377  13.071  16.968 -0.1329  0.3386 -0.1043
27180W        W43441   5.329  14.489  12.000  0.0026  0.0671 -0.1453
27181W        W43442  11.534  13.043  15.557  0.0716  0.2024  0.2209
27182W        W43443   9.480  14.818  16.052 -0.0904  0.3593  0.1299
27183W        W43444   4.465   4.952  12.500  0.0643  0.0458  0.1632
27184W        W43445  16.749  16.117  16.048  0.1458 -0.3294  0.1185
27185W        W43446  15.511  16.511   2.888 -0.2803 -0.2010  0.0878
27186W        W43447  11.576  17.054  14.957 -0.0095  0.0358 -0.2276
27187W        W43448   8.384   7.059   5.470 -0.0057  0.2339  0.1433
27188W        W43449   4.012  12.315   6.546  0.0324  0.1465 -0.0270
27189W        W43450   8.070   4.478  15.225  0.0591  0.0743 -0.1932
27190W        W43451  16.342  17.721   2.035 -0.1847  0.0038  0.1194
27191W        W43452  11.562  14.569   1.376  0.2941 -0.0901 -0.2878
27192W        W43453  15.748  10.213  14.320  0.0595  0.0840 -0.1581
27193W        W43454   8.055  10.856  13.049 -0.0883 -0.2663 -0.2692
27194W        W43455  17.766  16.376   4.078  0.1212  0.2256  0.4284
27195W        W43456  10.709  14.628  13.482 -0.0322  0.2674  0.2508
27196W        W43457   9.804   0.930  15.131  0.1925  0.0812 -0.2394
27197W        W43458   1.358   2.709  11.506 -0.0323  0.0738  0.0696
27198W        W43459   9.813   6.487  13.220 -0.1306 -0.1956  0.2771
27199W        W43460   2.215  11.144   2.580  0.1114 -0.0800  0.0011
27200W        W43461  10.041   0.638   1.956  0.2397  0.0102  0.0428
27201W        W43462  16.357  12.225   3.383  0.0112  0.0862 -0.2753
27202W        W43463   8.465  14.757   1.228 -0.0179 -0.1232  0.0208
27203W        W43464  15.167   9.926  15.999  0.2354  0.3066  0.0568
27204W        W43465  14.728  14.659   2.429  0.1062 -0.1302 -0.0931
27205W        W43466   9.042  14.862  13.659  0.2121  0.1027 -0.0570
27206W        W43467   0.815  14.553  16.075 -0.0215  0.2227  0.1455
27207W        W43468  10.072  12.007   2.365 -0.1148 -0.0008  0.0046
27208W        W43469  12.808   1.947   0.626  0.0768 -0.0191  0.2742
27209W        W43470   3.751   5.683  15.464  0.2603  0.0807 -0.0590
27210W        W43471  13.662   7.769  16.561  0.0837 -0.4187  0.0688
27211W        W43472  17.084   6.777   4.814 -0.1823 -0.0463  0.0950
27212W        W43473  14.878  12.250   2.711  0.2667  0.1824  0.1506
27213W        W43474  13.298  10.103  14.921  0.0025 -0.0391  0.0972
27214W        W43475  16.487  13.862  11.960  0.2979 -0.2637 -0.0269
27215W        W43476   5.198   7.734  14.942 -0.3732  0.1158  0.2187
27216W        W43477  14.212  15.872  16.939 -0.0559 -0.2196 -0.0802
27217W        W43478  11.041  17.197  14.944  0.0747  0.2398 -0.0544
27218W        W43479   2.927   4.342  11.992  0.0464  0.1422 -0.3005
27219W        W43480   3.445   5.887   0.518 -0.0919 -0.1654 -0.0152
27220W        W43481  12.120  11.434  14.154  0.1980  0.1028 -0.1140
27221W        W43482  10.705   2.780   5.468 -0.2015 -0.2805  0.0019
27222W        W43483  10.285  15.743   5.657 -0.2535  0.3243 -0.1282
27223W        W43484   3.645   8.977  13.819  0.3365 -0.0505  0.3030
27224W        W43485  10.538   9.532  13.003 -0.1947 -0.2192 -0.1511
27225W        W43486   6.283  13.260   5.961 -0.3790 -0.0971  0.1086
27226W        W43487  10.794   6.593  12.202  0.0639 -0.0171  0.0776
27227W        W43488   9.739  13.351  12.170 -0.0429  0.0758  0.3354
27228W        W43489   1.872   8.570   3.329  0.0450  0.0869 -0.0021
27229W        W43490  14.279  15.377   2.186  0.0225  0.1126 -0.1911
27230W        W43491   7.085  11.775  12.273  0.0147 -0.0311  0.0871
27231W        W43492   3.860  15.906   3.930 -0.2920  0.3709  0.0773
27232W        W43493  10.247   6.489   4.433 -0.0266 -0.0008 -0.1367
27233W        W43494  15.386   3.961  12.931  0.2173 -0.1365 -0.2508
27234W        W43495  14.180   6.796   0.483 -0.1870  0.0691 -0.0594
27235W        W43496   4.631   7.996  15.565  0.1553  0.1040  0.1239
27236W        W43497  12.561   3.322   3.481  0.1157 -0.5868 -0.1515
27237W        W43498   9.650   2.321  14.009 -0.1269  0.1405 -0.1504
27238W        W43499  13.839  10.170   5.750  0.0847 -0.0731  0.1842
27239W        W43500   6.082  14.185  12.672 -0.0924 -0.2635  0.1198
27240W        W43501   2.012   7.852   4.470 -0.0690 -0.2246  0.0365
27241W        W43502   2.635  17.568   0.793  0.0195 -0.4231  0.2743
27242W        W43503  16.269  16.271   4.601  0.2471 -0.0162 -0.0911
27243W        W43504   9.200   3.905  11.903  0.0805 -0.0600  0.2025
27244W        W43505   8.779  16.659   4.553  0.1056 -0.1088  0.1816
27245W        W43506  11.668  10.638   2.480  0.0955 -0.2115 -0.0336
27246W        W43507  13.684  10.131   3.731  0.2323  0.1528  0.0689
27247W        W43508   9.487   8.550   3.772 -0.1718 -0.1908  0.2910
27248W        W43509   0.278   9.486  12.251 -0.0333  0.1853 -0.2547
27249W        W43510  12.136  14.861  13.484  0.2913 -0.4142 -0.0167
27250W        W43511   3.306   0.779  12.345 -0.0379  0.1264  0.0585
27251W        W43512  17.248   2.149   2.570  0.1747 -0.1167  0.1724
27252W        W43513   8.411  15.335   2.397 -0.1359 -0.0563 -0.3120
27253W        W43514  15.101  12.953   1.503 -0.1877 -0.0444  0.0598
27254W        W43515  15.018  14.785  15.680  0.2995  0.0580  0.1060
27255W        W43516  10.398   7.218  13.389  0.3206 -0.1333 -0.1124
27256W        W43517  12.975   1.317  14.580 -0.2072 -0.3068 -0.4016
27257W        W43518   5.047  15.923   1.801 -0.0063  0.2940  0.1208
27258W        W43519   0.483   2.150  15.483 -0.1770  0.3557  0.2434
27259W        W43520   6.607  15.214  12.119 -0.0522  0.0426  0.1223
27260W        W43521   8.417   6.481  15.593  0.4207 -0.1711  0.3129
27261W        W43522   5.206   1.760  16.097 -0.0428 -0.0677  0.1541
27262W        W43523   2.666   4.877  14.232  0.0416 -0.1746  0.0893
27263W        W43524   0.327   3.463  12.738 -0.0368  0.3249  0.3244
27264W        W43525  13.487  10.408   6.503 -0.1322  0.0825 -0.1303
27265W        W43526  17.422  13.821  14.331 -0.1055 -0.3153 -0.1772
27266W        W43527  11.089   7.407   1.863 -0.3717 -0.0781 -0.0075
27267W        W43528   8.312   4.047   4.999 -0.1192  0.1897 -0.1296
27268W        W43529   1.205  10.684  16.479  0.0553 -0.2016 -0.0882
27269W        W43530   0.078  11.565   4.443  0.2251  0.0097 -0.2400
27270W        W43531   6.802   9.309   3.502 -0.1513 -0.0261  0.0973
27271W        W43532  14.925   0.540  14.593  0.2066  0.0395  0.0313
27272W        W43533   4.744   2.294   4.775 -0.1300 -0.0483 -0.3528
27273W        W43534   4.186   6.480   1.520 -0.2047 -0.1709  0.1845
27274W        W43535   7.416  16.583   5.463 -0.1037  0.2595 -0.1210
27275W        W43536   4.279   8.389   3.522  0.1485  0.0058 -0.3859
27276W        W43537   8.883   1.015  13.742  0.1004 -0.0675 -0.1600
27277W        W43538  11.645  17.595  14.983 -0.0530 -0.0310  0.2300
27278W        W43539   3.960   2.367   2.366  0.0372  0.0303  0.1487
27279W        W43540  14.342  16.766   1.209  0.0995 -0.3330  0.1401
27280W        W43541   4.480  10.020   2.249  0.1332  0.1356  0.0069
27281W        W43542   8.397  14.392   0.916  0.0005 -0.1705  0.3692
27282W        W43543   6.041  12.481   1.072 -0.1953 -0.0839  0.2019
27283W        W43544   3.479  13.782  15.950 -0.2360 -0.1911 -0.2491
27284W        W43545  16.191  10.580   2.908  0.2355  0.2374 -0.0759
27285W        W43546   4.304  16.450  12.808 -0.1222  0.0910 -0.0255
27286W        W43547  17.481  17.335   6.410 -0.0266  0.1915  0.1168
27287W        W43548  10.997   5.731   2.428 -0.3423 -0.0194  0.0157
27288W        W43549   3.597   3.104   1.674  0.0673 -0.0874 -0.1410
27289W        W43550   8.835  17.648   4.981 -0.3582 -0.1507 -0.0120
27290W        W43551  11.853  10.168  12.174 -0.0182 -0.0043  0.1348
27291W        W43552  15.246  16.943   0.492  0.3656  0.0922  0.0298
27292W        W43553   6.710   2.983  15.766 -0.1696 -0.0090 -0.1811
27293W        W43554   9.274  13.561  11.955  0.1651 -0.1410 -0.1200
27294W        W43555   7.638   9.439   3.992  0.2034 -0.2142 -0.0695
27295W        W43556  15.501   0.393  14.260 -0.2861 -0.2117 -0.0659
27296W        W43557  15.948   8.804  13.931 -0.1852  0.0403  0.0322
27297W        W43558  14.867  12.081  15.576 -0.0069 -0.0868  0.1160
27298W        W43559   5.278  11.704   5.822 -0.0955 -0.1382 -0.2333
27299W        W43560   5.249   4.937   0.889  0.1724 -0.1534  0.0245
27300W        W43561  16.603   0.616   1.644 -0.1503  0.0799 -0.1846
27301W        W43562   2.858  16.822   0.182 -0.0125 -0.2421  0.1963
27302W        W43563  12.939  14.593  16.813  0.2130  0.1073  0.1058
27303W        W43564  15.514   5.062   0.267 -0.1560  0.0742  0.1914
27304W        W43565   8.782   5.233  15.620 -0.0921 -0.2014 -0.1131
27305W        W43566   8.220  15.872   5.010  0.0788  0.0237  0.2403
27306W        W43567  12.203   4.838  16.980 -0.2026 -0.0348 -0.3748
27307W        W43568  14.560   1.248  12.457  0.3581  0.2220 -0.0401
27308W        W43569   9.715   5.636   0.072  0.0521  0.0538  0.1751
27309W        W43570   0.072   4.908   6.241  0.2879  0.0975 -0.0219
27310W        W43571   4.272   1.082   5.861  0.1612  0.2386 -0.0084
27311W        W43572  11.109  15.184   5.276  0.3042  0.1855  0.0337
27312W        W43573  17.224   6.205  15.859 -0.0762  0.1050 -0.1515
27313W        W43574   0.861  14.758  16.721  0.0372  0.0991 -0.2758
27314W        W43575  16.916   9.244  12.690  0.0229 -0.2073 -0.0453
27315W        W43576  13.629  11.762   5.863 -0.3192  0.3525  0.0088
27316W        W43577   2.380   6.983  13.063  0.0088  0.1760  0.2012
27317W        W43578   0.270   1.065  13.169  0.0672  0.0351  0.2288
27318W        W43579   9.750   8.236   1.648 -0.2104  0.0157  0.2959
27319W        W43580  13.834   0.857  16.471  0.0957  0.0306  0.1971
27320W        W43581   8.761   0.361   1.017 -0.0611 -0.0191  0.4052
27321W        W43582  16.292  11.962  15.677  0.1476  0.0315 -0.3200
27322W        W43583   4.417  15.557   2.111 -0.2154  0.1366 -0.0423
27323W        W43584  15.026  13.895  16.096 -0.0465 -0.0699 -0.2233
27324W        W43585   6.278   6.428  12.858 -0.0538  0.1729  0.0218
27325W        W43586  16.363   4.037   1.624  0.3520  0.1141  0.0159
27326W        W43587  17.556   5.423   3.912 -0.3797  0.2166 -0.1394
27327W        W43588  17.770  13.175  12.828  0.2211 -0.0676  0.0532
27328W        W43589   2.853  15.349  16.795 -0.2872 -0.0104 -0.0393
27329W        W43590  15.788  17.069  16.002 -0.1225 -0.1729  0.2746
27330W        W43591   0.970  11.203  16.070 -0.1358  0.0394  0.1739
27331W        W43592   6.605   0.912   2.108 -0.2279  0.0086 -0.0640
27332W        W43593  11.454   7.597  11.929 -0.0297  0.1104  0.0609
27333W        W43594   9.042  10.924   3.717  0.3959  0.0582  0.3748
27334W        W43595  15.676   6.493   5.010 -0.3846  0.1552 -0.1569
27335W        W43596  13.883  11.282   5.073  0.0213  0.1258  0.1873
27336W        W43597  16.667   2.034   5.469 -0.1355  0.0595 -0.2249
27337W        W43598   3.442   0.662  13.391 -0.3496 -0.1112 -0.0072
27338W        W43599   0.765  16.370  15.936  0.1183 -0.0837 -0.0002
27339W        W43600   1.163   9.348  14.804  0.2460 -0.0053  0.1207
27340W        W43601  11.296   1.144  11.814 -0.2635  0.1051  0.1395
27341W        W43602   5.486  15.530   3.509  0.0345 -0.1413 -0.1235
27342W        W43603  10.193   9.356   5.271  0.0682 -0.0710 -0.0084
27343W        W43604  17.426   5.062   3.619 -0.0275 -0.1660  0.0431
27344W        W43605  10.440  12.431  15.602 -0.1652  0.2512  0.3573
27345W        W43606   5.459  12.523   4.191 -0.1278 -0.0703  0.3564
27346W        W43607   9.555   0.098  14.442  0.1282 -0.1496 -0.2595
27347W        W43608  16.894  16.871   4.393  0.1444 -0.0795  0.0385
27348W        W43609   6.726  12.011  13.871  0.0146  0.2157  0.1407
27349W        W43610   6.003   7.828  15.327 -0.3096 -0.4072  0.0166
27350W        W43611   1.271  12.883   3.832 -0.1398  0.0535  0.2358
27351W        W43612  12.418   0.929  16.220  0.0343  0.1077  0.0735
27352W        W43613   5.381  12.587   5.421  0.0114 -0.2390 -0.0681
27353W        W43614  17.695   0.486   4.349 -0.0801 -0.2097 -0.1740
27354W        W43615   4.317  15.416  13.122 -0.0084 -0.0631  0.1321
27355W        W43616   1.315   1.747  15.441 -0.2024 -0.2874 -0.0007
27356W        W43617   8.017  10.352  13.329  0.1285  0.1994 -0.0515
27357W        W43618   0.856   9.877   5.987  0.0968  0.0756 -0.1409
27358W        W43619   7.611   0.168   1.799  0.2065  0.1302 -0.0235
27359W        W43620   9.245   7.904  15.798 -0.0581 -0.5091 -0.1833
27360W        W43621  17.167   4.744   5.050 -0.0578  0.2165  0.1159
27361W        W43622  16.990  15.200  16.075  0.1719  0.2412  0.0412
27362W        W43623   6.592   4.975   0.167  0.4930 -0.4946 -0.0485
27363W        W43624  10.560  10.198  16.851  0.1082  0.2899 -0.0232
27364W        W43625  17.119  15.172   1.089 -0.2519 -0.1222 -0.3102
27365W        W43626   4.149   8.888   2.462 -0.1302 -0.3429  0.0149
27366W        W43627  15.125   9.482   5.692  0.1126 -0.0314  0.1485
27367W        W43628  16.403  10.191   2.675  0.0854 -0.0988  0.1679
27368W        W43629  12.886  17.629  11.696 -0.2108 -0.0772  0.1834
27369W        W43630  11.604   7.798   5.202 -0.3005 -0.1963 -0.1479
27370W        W43631   8.848   6.266   3.182 -0.0546 -0.1223 -0.0801
27371W        W43632   4.228  16.889   3.982  0.3640 -0.1822 -0.0606
27372W        W43633   5.598   3.235   5.801  0.0195 -0.0119  0.2575
27373W        W43634   9.051  16.950   2.365 -0.0990 -0.1106 -0.1698
27374W        W43635   4.327   7.658   6.155  0.2846 -0.0615 -0.0140
27375W        W43636   1.052  10.769  12.547  0.1209  0.0061 -0.2490
27376W        W43637   8.737   7.218  11.894  0.2382 -0.1116  0.2133
27377W        W43638   0.476   6.597   1.973  0.0675 -0.3606  0.4087
27378W        W43639  15.045   5.275   3.653  0.1523  0.0482  0.3383
27379W        W43640  10.759  15.172   6.299  0.3353  0.0058  0.3408
27380W        W43641   0.806   3.732  15.878 -0.1716  0.0350 -0.2356
27381W        W43642   2.631  12.082   3.687  0.0338 -0.0548  0.0284
27382W        W43643  12.791  13.207   4.170 -0.0188  0.1617 -0.1149
27383W        W43644  14.950  16.451  16.099 -0.4550 -0.3167 -0.1945
27384W        W43645   9.972  11.550   5.762  0.1487  0.1227  0.0665
27385W        W43646  10.398   2.648   4.586 -0.2873 -0.2940 -0.0790
27386W        W43647  14.285   7.630   1.981 -0.1098 -0.0206  0.4623
27387W        W43648   8.628  15.329  16.392  0.0464 -0.0152 -0.3690
27388W        W43649   9.657   3.168  15.167  0.3435 -0.0358  0.1034
27389W        W43650   0.372   3.129   0.237 -0.0936  0.0884  0.2174
27390W        W43651   0.024   7.903   0.171 -0.0298  0.0825  0.1043
27391W        W43652  10.428  11.969  12.807  0.0987  0.2066  0.1601
27392W        W43653   9.901   6.608  16.843 -0.0117  0.0617 -0.2315
27393W        W43654  11.708   3.953   5.864  0.4594  0.0594 -0.0993
27394W        W43655  12.195   5.661  16.191  0.1910 -0.2097  0.0397
27395W        W43656   1.675  12.584  12.238  0.2015  0.2364  0.0172
27396W        W43657  17.243   4.225  13.892 -0.3593  0.3069  0.5105
27397W        W43658   1.718  10.066   3.116 -0.1693  0.1526 -0.2391
27398W        W43659  16.016  10.222   3.703  0.2071 -0.1574  0.0558
27399W        W43660  17.119  12.905   1.824 -0.0740  0.4227 -0.3500
27400W        W43661   1.216  13.953   5.644 -0.0055 -0.1533  0.0211
27401W        W43662  10.406  11.231  15.099  0.1884 -0.0423  0.0560
27402W        W43663   5.008   4.666   6.569  0.1096  0.0777  0.0754
27403W        W43664   7.016   6.009   5.985  0.2130  0.1914  0.0171
27404W        W43665   4.564   5.763   0.284  0.0394  0.0249  0.2532
27405W        W43666  13.990  15.669   0.377 -0.5216  0.0212  0.0477
27406W        W43667  12.609   1.426   3.128  0.0819 -0.1426 -0.0417
27407W        W43668   6.675  11.355  15.261 -0.0193  0.1364  0.0013
27408W        W43669   6.914   0.650  15.935 -0.0416 -0.2843 -0.0698
27409W        W43670   1.643   4.451   4.633  0.1340 -0.1964  0.3519
27410W        W43671   8.860   6.938   5.470  0.0823 -0.1661  0.2680
27411W        W43672  16.120  10.198  13.431  0.1806 -0.0385 -0.1285
27412W        W43673   0.488   2.852  14.931  0.1871 -0.1412 -0.0173
27413W        W43674   3.993  13.234  14.170  0.3880  0.2294  0.1974
27414W        W43675   7.641   8.722   1.821 -0.1457 -0.1636 -0.1614
27415W        W43676   1.393  10.171  14.353  0.1818  0.1059 -0.1641
27416W        W43677   8.629  14.892   4.520 -0.0113 -0.0720 -0.2937
27417W        W43678   0.339   4.767  15.135 -0.2345 -0.0802  0.0061
27418W        W43679  14.556   8.914  14.891  0.0457 -0.2755  0.1518
27419W        W43680   9.195  14.094  15.339 -0.0885  0.0077 -0.0465
27420W        W43681   3.884   3.974  12.869 -0.2423  0.3026  0.0449
27421W        W43682   9.849  10.379   0.699  0.2681  0.0231 -0.0278
27422W        W43683   5.465  16.242  15.586 -0.2084 -0.1685 -0.1080
27423W        W43684   7.120   8.512  16.063  0.1206  0.1166  0.0376
27424W        W43685   5.100  15.753  14.939  0.1438 -0.1147 -0.0868
27425W        W43686  13.230  10.180  16.489 -0.2336 -0.2518  0.0922
27426W        W43687   5.318   2.406   3.446  0.0882 -0.2539  0.0967
27427W        W43688  13.086  14.870  15.968 -0.0906 -0.1152  0.0081
27428W        W43689  12.354   2.694  12.937  0.0321  0.0421  0.3620
27429W        W43690   4.206  15.841  16.405 -0.1934 -0.1398 -0.1698
27430W        W43691   5.094   7.419  15.347 -0.2109  0.2653  0.1297
27431W        W43692  14.156  17.768  12.139 -0.3323  0.2216  0.2224
27432W        W43693  14.872   4.400  10.962 -0.2770  0.1113  0.2636
27433W        W43694   9.612   8.101  12.812 -0.1312  0.0465  0.1911
27434W        W43695   8.849   4.926  13.448 -0.0482 -0.3666 -0.0457
27435W        W43696   5.037  13.566  12.794  0.0181 -0.0815 -0.0400
27436W        W43697  15.729  11.199  10.905  0.2123 -0.2628 -0.0659
27437W        W43698   2.440  16.424  16.159  0.0297 -0.1517  0.0354
27438W        W43699  17.157  11.941  16.538  0.1726 -0.0796 -0.2870
27439W        W43700   6.257  17.095   2.670 -0.2081 -0.1791 -0.0209
27440W        W43701  11.600  13.608   5.248 -0.3786  0.2008 -0.3194
27441W        W43702  14.302  13.216  15.243  0.0161  0.2052 -0.0452
27442W        W43703  12.390   5.136   1.988  0.0826  0.2550  0.0498
27443W        W43704   3.348  14.555  15.482  0.2518 -0.4960 -0.0735
27444W        W43705  11.032  16.889   2.864  0.0420 -0.0178  0.1018
27445W        W43706  14.313   2.096  12.886 -0.0834 -0.1477  0.0722
27446W        W43707   6.004   1.086  13.917 -0.1027  0.1603 -0.1488
27447W        W43708   0.163   4.149   5.016  0.2430  0.0342 -0.1213
27448W        W43709   1.984   4.023  16.410  0.2863  0.1545  0.1605
27449W        W43710   0.577   7.926  14.682  0.1422 -0.4847  0.1294
27450W        W43711   8.269   5.364  12.969  0.4803 -0.1275  0.2667
27451W        W43712   3.002  14.823   3.267  0.1740 -0.0320 -0.1033
27452W        W43713   7.743   9.890  15.126 -0.0469  0.2361  0.2017
27453W        W43714  17.652   4.123   5.407  0.2591 -0.0802 -0.0823
27454W        W43715  11.895  17.758  15.950 -0.2903  0.1661  0.0032
27455W        W43716  15.997  16.247   2.595  0.2021  0.2432  0.1794
27456W        W43717  12.283   3.278   4.185  0.0317 -0.1093 -0.0192
27457W        W43718   5.697   5.124  12.724 -0.0689  0.0021  0.2223
27458W        W43719   2.125   1.648   6.370 -0.0360  0.0145  0.1610
27459W        W43720   4.756   3.850   1.203  0.2516  0.0919 -0.1381
27460W        W43721  10.555   8.081   3.048 -0.1012  0.0007 -0.0435
27461W        W43722   6.166   0.582  16.400 -0.0178 -0.1624  0.0402
27462W        W43723   7.515  11.307  14.142 -0.2703 -0.1134  0.1428
27463W        W43724  10.210   3.769   3.096  0.2177  0.2265  0.1808
27464W        W43725  15.228   9.664   2.475 -0.1162 -0.0027  0.1784
27465W        W43726   4.838   7.647   2.416  0.0200 -0.0639 -0.0480
27466W        W43727   5.534  11.630   5.423 -0.0707  0.1541 -0.0322
27467W        W43728   7.016   4.946   5.756 -0.1621 -0.1397 -0.3483
27468W        W43729  14.251   1.990   1.485  0.0813  0.1110 -0.2544
27469W        W43730   4.269   8.368   5.204 -0.0153  0.0999 -0.1544
27470W        W43731   8.666   8.412   2.165  0.0483 -0.3563 -0.0235
27471W        W43732  12.235   5.642  13.069  0.0736 -0.2362 -0.1847
27472W        W43733   5.802  13.992  14.219 -0.0869 -0.2190  0.0488
27473W        W43734  13.292  17.219   6.004 -0.2075 -0.1829  0.1039
27474W        W43735  15.676  13.361   0.856 -0.3091 -0.3014  0.0377
27475W        W43736   0.783  13.334  13.838  0.2835 -0.1650  0.3792
27476W        W43737  16.384  16.805  12.217  0.0997 -0.0969  0.0141
27477W        W43738   4.271   3.133   0.791  0.2455  0.1545 -0.2133
27478W        W43739   2.245   3.952   0.960  0.0521  0.3343  0.1311
27479W        W43740  17.822  11.135  15.869 -0.0494 -0.0986  0.1544
27480W        W43741  17.849  11.205   6.037 -0.1357 -0.2929  0.2263
27481W        W43742  17.306   7.618   4.807 -0.0364  0.0479 -0.0208
27482W        W43743  13.128  13.839  16.874  0.1559 -0.2904 -0.0804
27483W        W43744  11.375  15.685   3.616 -0.0207 -0.2135 -0.2023
27484W        W43745   9.138   5.904   1.319  0.3040  0.0212  0.0140
27485W        W43746   9.172   3.426   4.531 -0.3435  0.3269 -0.1370
27486W        W43747   8.950   9.398   1.302 -0.2231 -0.0322 -0.0400
27487W        W43748   5.709  16.599  12.631 -0.2701  0.0106  0.0450
27488W        W43749  14.594  15.388  12.469 -0.1227  0.2006 -0.0906
27489W        W43750  13.657  17.774   5.935  0.2754 -0.0120 -0.0290
27490W        W43751  13.854  11.060  13.508 -0.0084 -0.2384 -0.0856
27491W        W43752  10.250  12.006   4.007 -0.1558 -0.1949 -0.0286
27492W        W43753  15.490  13.597  16.162  0.2227 -0.1332  0.2743
27493W        W43754  16.852   7.875   4.753 -0.2205 -0.0129  0.0492
27494W        W43755   4.328  15.007   4.900 -0.1156 -0.1065  0.1661
27495W        W43756   0.909   9.572  15.291 -0.1671  0.3503  0.1296
27496W        W43757   3.329   6.332   0.218 -0.4348  0.0580  0.0810
27497W        W43758   2.407   5.312   2.622  0.1777 -0.2309  0.2644
27498W        W43759   2.832  12.608  16.408  0.1092  0.1377 -0.1069
27499W        W43760  16.534  17.373   5.425  0.0681  0.1728  0.2145
27500W        W43761   8.197  10.549   3.406  0.1541 -0.1863 -0.2211
27501W        W43762   0.836   7.880  16.856  0.0691 -0.0390 -0.1178
27502W        W43763  15.217   2.108   5.085  0.0112  0.2092 -0.0975
27503W        W43764   7.801   0.810  12.493 -0.2513 -0.1003 -0.2337
27504W        W43765  15.428   6.539  14.376  0.0429  0.0050  0.0386
27505W        W43766  11.482   5.401  13.569 -0.2146 -0.2453 -0.5189
27506W        W43767   2.364   8.461  12.392  0.1378  0.1748  0.1219
27507W        W43768  11.918   2.542  11.852  0.1921  0.2335 -0.0459
27508W        W43769   8.578  15.569   1.144  0.1750 -0.0734 -0.0269
27509W        W43770  13.834   0.309  13.644  0.1908 -0.2253  0.0267
27510W        W43771   2.670   6.895   3.539  0.1420 -0.1012 -0.3889
27511W        W43772   1.891   2.623   0.738 -0.3475  0.3417  0.0458
27512W        W43773   8.381   1.983  13.461 -0.0967  0.1903  0.0014
27513W        W43774   9.797   4.502   1.099  0.2184 -0.2339 -0.3172
27514W        W43775  14.304   6.978   4.926  0.2013  0.0858 -0.1134
27515W        W43776   9.347  11.097   3.349  0.1063  0.0774 -0.0958
27516W        W43777   7.719   9.510  12.864  0.0322 -0.1152  0.0282
27517W        W43778  11.034   4.041   1.069 -0.3199  0.1155  0.5726
27518W        W43779   9.388  16.786   5.208  0.1180 -0.2428  0.1990
27519W        W43780  12.241   8.144  13.387 -0.0639 -0.2557  0.0774
27520W        W43781  15.718  14.035  16.958  0.0811 -0.1641  0.3244
27521W        W43782   1.914   0.838  16.576 -0.0703 -0.1765 -0.0143
27522W        W43783   9.920  14.879   0.914 -0.1058  0.0960  0.3490
27523W        W43784  13.857   2.325  15.085 -0.0014 -0.0392 -0.1987
27524W        W43785   6.750  17.307   0.749 -0.1767 -0.0848 -0.0379
27525W        W43786  10.026  14.324  16.684 -0.1623  0.1706 -0.0479
27526W        W43787   8.495  12.791   4.522  0.0544  0.2404  0.1175
27527W        W43788   9.373  13.644   2.497 -0.3198 -0.1570 -0.0849
27528W        W43789   9.368   9.537  12.343 -0.1821 -0.0160  0.1246
27529W        W43790   2.291  10.574  14.153  0.0403  0.2556 -0.0541
27530W        W43791   4.083   2.060  16.440  0.1687 -0.2155 -0.0881
27531W        W43792  15.658  13.044   3.739 -0.0061  0.2545  0.3073
27532W        W43793   8.108   6.571   5.812  0.4171 -0.0535 -0.2923
27533W        W43794   7.848   8.893   2.263  0.3068 -0.2176  0.0158
27534W        W43795   9.980  16.177  12.083  0.1028  0.2221 -0.1312
27535W        W43796  10.781   1.342   3.372 -0.1558 -0.0060 -0.2086
27536W        W43797   7.647  12.283   1.627  0.0460 -0.0629  0.2178
27537W        W43798  15.884   1.647   1.376  0.0709 -0.0317  0.0021
27538W        W43799   8.844  13.601  11.766 -0.0200 -0.0105  0.1314
27539W        W43800  17.790   4.796   3.423 -0.2083 -0.2999  0.1114
27540W        W43801   2.565   7.073   4.842 -0.0182  0.1523 -0.1172
27541W        W43802   5.119   1.027  16.358  0.1098 -0.2688  0.0588
27542W        W43803  12.432   8.435   3.424  0.1916 -0.3012  0.4333
27543W        W43804  11.937  13.720  12.777  0.1068 -0.0919 -0.0908
27544W        W43805   4.649   8.030   3.489  0.1577 -0.1241  0.3140
27545W        W43806   3.358  15.868   2.602  0.2044 -0.0927  0.0374
27546W        W43807   5.651   2.803   1.024 -0.3217 -0.2056 -0.0377
27547W        W43808   4.924   6.565  16.423  0.0503  0.1333  0.0359
27548W        W43809   8.028  12.160  12.850 -0.1839  0.0069  0.0346
27549W        W43810  17.809  13.639  12.652  0.0461 -0.2125  0.1002
27550W        W43811   6.136   8.091   0.070  0.0890  0.2435 -0.1560
27551W        W43812  13.079   7.797   2.357 -0.1437  0.2355  0.1679
27552W        W43813   9.492   4.928   5.353  0.1567 -0.0608  0.0777
27553W        W43814  12.846  17.312   0.537 -0.1098 -0.1780  0.1221
27554W        W43815   2.400   5.774   3.653  0.0785  0.2049 -0.2759
27555W        W43816   6.228  13.464  13.103 -0.2166 -0.0207 -0.1839
27556W        W43817   0.960   5.953   2.672 -0.3010 -0.0070  0.3177
27557W        W43818  16.831  15.590   4.945 -0.0654 -0.0817  0.0593
27558W        W43819   3.408   2.449   3.192  0.1025  0.0600 -0.1322
27559W        W43820   5.438  16.274  16.093  0.0865  0.0992 -0.1265
27560W        W43821   1.842   0.677   1.264 -0.1469 -0.0441  0.0563
27561W        W43822   7.287  12.845   0.045  0.2434 -0.4217 -0.3624
27562W        W43823   3.369  13.826  14.333  0.2538 -0.2750  0.1774
27563W        W43824   9.760   1.440   5.616 -0.0558 -0.0588 -0.1359
27564W        W43825  16.395  17.452   2.434 -0.0976 -0.0195 -0.0171
27565W        W43826  14.058   0.795   2.898  0.0745 -0.6038 -0.1854
27566W        W43827   9.413   2.047   4.463  0.0673  0.2139  0.1108
27567W        W43828  14.097  10.643  15.212 -0.1685 -0.2651 -0.0864
27568W        W43829  15.267  17.493  14.882 -0.2497 -0.1562 -0.0901
27569W        W43830   6.789   5.530   0.977 -0.0249  0.0125 -0.0941
27570W        W43831   5.271  15.306   2.721  0.0760  0.2001  0.1805
27571W        W43832  16.103   6.343   4.805 -0.1418  0.0586  0.1621
27572W        W43833  17.226  14.240  16.183  0.1361 -0.2365  0.1474
27573W        W43834   2.857  15.896  16.895  0.3237  0.0982 -0.3613
27574W        W43835  16.388   3.399  11.649  0.1737  0.1191 -0.1336
27575W        W43836   4.246   9.638   3.633  0.1924  0.1908 -0.0574
27576W        W43837   3.882  13.257  13.704 -0.0336 -0.3143  0.1775
27577W        W43838  10.718   1.193   4.321 -0.0084  0.0013  0.0201
27578W        W43839  14.909  15.593  14.442  0.0367 -0.1316 -0.1074
27579W        W43840   6.432   3.579  13.850 -0.0298  0.0364  0.2425
27580W        W43841  13.412   9.432  13.658 -0.1556  0.3992  0.0694
27581W        W43842  15.770  13.593   3.573  0.5118  0.2829 -0.1610
27582W        W43843  12.974   7.813  15.298 -0.2673 -0.0167 -0.3196
27583W        W43844   2.068   6.516   4.954  0.0077 -0.1339 -0.2023
27584W        W43845   4.852  13.483   1.824  0.2826  0.0415 -0.0540
27585W        W43846  16.650  10.995   6.356 -0.2439  0.0247  0.0108
27586W        W43847  16.345  17.182   1.221  0.4137 -0.4047  0.1178
27587W        W43848  16.726  12.986  11.569  0.1611 -0.1301  0.0928
27588W        W43849  14.771  13.986  14.167 -0.1350 -0.3015 -0.0713
27589W        W43850  15.551  10.120  11.782 -0.1720 -0.1326 -0.0667
27590W        W43851  16.114   2.678   5.000  0.0298 -0.0035  0.0687
27591W        W43852   8.850  11.889  14.330  0.0160  0.0141  0.2067
27592W        W43853   5.878  13.872   0.212 -0.1231  0.1819 -0.1936
27593W        W43854   9.643  10.996  15.908  0.2824 -0.0060 -0.1368
27594W        W43855   5.486   7.168   2.117  0.1215 -0.0321 -0.0514
27595W        W43856  11.567   3.987   4.148  0.2343 -0.1338 -0.1931
27596W        W43857   8.476   0.028  15.246  0.1438  0.1186  0.1379
27597W        W43858   8.944  13.809   4.593  0.0654 -0.0806 -0.0855
27598W        W43859  10.977   0.839  16.685 -0.0130 -0.3568  0.2006
27599W        W43860   7.032  12.254  12.279 -0.1215 -0.2753  0.0130
27600W        W43861   5.879   5.832   1.858 -0.2949 -0.1726 -0.0452
27601W        W43862   1.238   7.637   3.841 -0.0050 -0.0627  0.1428
27602W        W43863   5.540  12.200  13.064  0.2252  0.0428  0.2745
27603W        W43864  12.721  15.428   4.771 -0.0051  0.0760  0.0462
27604W        W43865   1.730  14.401   0.964 -0.0617  0.0194  0.1717
27605W        W43866   4.612   9.937   2.731 -0.2338  0.2583 -0.0734
27606W        W43867   5.587   7.517   0.338 -0.0874  0.0513 -0.2066
27607W        W43868  15.947   2.211  11.776  0.1466 -0.2502  0.1785
27608W        W43869  10.172   2.198  15.988 -0.0319  0.3960  0.2040
27609W        W43870   0.664  13.633   3.757  0.0803  0.0635 -0.0315
27610W        W43871   6.635   3.145  16.602 -0.3522  0.0244  0.0448
27611W        W43872   2.083  14.677  15.373 -0.0015  0.0022  0.0682
27612W        W43873   3.858  10.435  11.913 -0.0241 -0.3863 -0.3724
27613W        W43874   8.684   9.472  12.785 -0.0755  0.0890  0.1922
27614W        W43875   2.931   0.086  15.724  0.1332  0.0111  0.0376
27615W        W43876  13.493   4.864   4.410 -0.0029  0.0419 -0.2026
27616W        W43877  10.109   9.403   4.791 -0.0802  0.2029 -0.0883
27617W        W43878   6.362  10.935  15.382 -0.3985  0.2070  0.1225
27618W        W43879  13.253   7.737   3.454  0.1844  0.0913 -0.0661
27619W        W43880   4.099  14.964  12.173 -0.0361 -0.2943  0.0235
27620W        W43881   1.865  15.289  14.866 -0.4399 -0.0551 -0.0840
27621W        W43882  13.178  12.450   5.579  0.3244  0.2117  0.1047
27622W        W43883   4.030  12.977  13.218 -0.3018  0.2604 -0.2538
27623W        W43884   1.703  16.122   4.585 -0.1623 -0.0187  0.1371
27624W        W43885  10.997  17.065   1.249 -0.1504 -0.1253  0.0093
27625W        W43886   3.447  17.447  12.234 -0.1725 -0.0343 -0.1133
27626W        W43887   8.795   3.331   4.922 -0.3814 -0.1354  0.0389
27627W        W43888   4.362   7.609  12.357  0.0865  0.2427 -0.1387
27628W        W43889   1.285   8.563   2.233  0.4028  0.0374 -0.3808
27629W        W43890   4.436   4.223   4.546  0.0962 -0.0015 -0.1706
27630W        W43891   8.785  13.613  14.547  0.1721  0.1084 -0.0403
27631W        W43892  11.208  15.590   1.835 -0.1580  0.2357 -0.3493
27632W        W43893  11.259   6.124   2.261 -0.0562 -0.0588 -0.3501
27633W        W43894   1.810   4.304  16.803  0.0544 -0.1664 -0.0925
27634W        W43895   6.581   5.864  13.495 -0.0885 -0.0129 -0.0438
27635W        W43896   6.902   1.404  14.765 -0.0307 -0.2974  0.2610
27636W        W43897   2.448  15.397  12.594 -0.4076  0.1005 -0.1449
27637W        W43898  14.815   1.966  12.882 -0.1713  0.0672  0.0729
27638W        W43899   0.286  15.951   4.250  0.1099 -0.0379  0.0076
27639W        W43900  11.406   3.100   4.203 -0.2100 -0.1599  0.0022
27640W        W43901   6.627   8.613  16.085 -0.1196 -0.0413 -0.1136
27641W        W43902  13.232   6.505  14.703 -0.1570  0.0663 -0.0653
27642W        W43903   0.417  17.598   3.262  0.1100  0.0181 -0.2614
27643W        W43904   3.699   1.392   4.164  0.3757  0.0314 -0.0278
27644W        W43905   4.110   1.971  12.266 -0.1135  0.2435 -0.0987
27645W        W43906   2.489   1.041   2.884  0.0411  0.2233  0.0379
27646W        W43907   7.731   5.864   5.391  0.0312 -0.1728  0.2464
27647W        W43908   6.242   4.249   3.282 -0.1601 -0.0947  0.0616
27648W        W43909  17.407  11.283  11.418  0.0911 -0.1321 -0.1561
27649W        W43910  17.737   9.524   1.613 -0.1880 -0.0098  0.3489
27650W        W43911   5.481   3.694  14.319 -0.0915 -0.1639  0.2283
27651W        W43912   4.913   2.994  16.087  0.0624  0.1163 -0.0046
27652W        W43913  11.259  16.462  15.270  0.1175 -0.1176  0.0627
27653W        W43914   2.040   0.353  16.185 -0.0335 -0.4153 -0.0889
27654W        W43915   8.979   9.834  15.960 -0.1721  0.0382  0.1450
27655W        W43916   3.808   9.159  16.902 -0.1782 -0.2489  0.1289
27656W        W43917   4.046   8.714   1.477  0.1900 -0.0968 -0.0693
27657W        W43918   2.898   3.940   2.500 -0.1244  0.0162 -0.0596
27658W        W43919   0.721   1.180   3.339  0.1374  0.0520 -0.1209
27659W        W43920   4.351   6.935   3.697  0.1307  0.1906  0.0214
27660W        W43921   7.057   2.854  14.107 -0.1406 -0.1005 -0.0297
27661W        W43922   6.062  12.264  16.795  0.1525  0.2164  0.0780
27662W        W43923   3.241   8.842  15.763  0.0615  0.3363 -0.1680
27663W        W43924   5.982   9.280   5.621  0.1752  0.0867  0.0805
27664W        W43925  11.468   0.493  11.462 -0.1760 -0.0518 -0.0967
27665W        W43926   4.999   6.232   0.876  0.3316  0.0493  0.1478
27666W        W43927  11.252   6.422   0.344  0.2582 -0.0930  0.1941
27667W        W43928  12.764   0.243   1.053  0.0934  0.0487  0.0799
27668W        W43929   6.128   1.438  12.454 -0.1225 -0.0461 -0.1614
27669W        W43930   9.881  12.395  15.490 -0.3485 -0.0753 -0.1060
27670W        W43931  16.642   8.378  14.568  0.1623 -0.0273  0.0743
27671W        W43932  15.604  14.404  16.642 -0.0214 -0.3152  0.0889
27672W        W43933  12.399  17.394  15.291  0.0320  0.1090  0.1282
27673W        W43934   1.359   6.742   0.231 -0.2244 -0.2648  0.3216
27674W        W43935   3.757   2.243   4.782 -0.0246 -0.2051  0.0790
27675W        W43936  12.753   9.661   0.839 -0.0036  0.1106  0.3238
27676W        W43937  13.205   4.964   2.639 -0.1093 -0.0036  0.2235
27677W        W43938  11.774   6.305   0.276 -0.0506  0.2840  0.0642
27678W        W43939  16.032  12.504  12.220 -0.1413  0.1863  0.0090
27679W        W43940   8.215  14.013  15.946  0.2254 -0.1256 -0.0205
27680W        W43941   6.977   5.244  16.365 -0.1126 -0.0565 -0.0952
27681W        W43942   6.096  10.263   5.711 -0.1128 -0.5975 -0.0598
27682W        W43943   0.875   3.264  15.965 -0.0071  0.2209 -0.2498
27683W        W43944   4.063   9.492   5.481  0.0833 -0.0725 -0.0632
27684W        W43945   0.074  13.014  14.703 -0.2095  0.0791  0.0727
27685W        W43946   1.974   7.676   1.332 -0.0510 -0.1994 -0.0911
27686W        W43947  15.475  10.140   5.048  0.0763  0.0094 -0.0124
27687W        W43948  15.076  15.645  16.624  0.0778  0.0279 -0.4626
27688W        W43949   3.512  15.564   4.059 -0.2105 -0.1889 -0.0510
27689W        W43950  11.883  12.227   3.049  0.2373 -0.0389 -0.3635
27690W        W43951   6.559   2.515   4.639 -0.0589 -0.1767 -0.1372
27691W        W43952   4.182  14.016   4.812  0.0620 -0.1624  0.0570
27692W        W43953  13.877   8.564   4.045 -0.1272 -0.0324 -0.0295
27693W        W43954  11.823   3.007   6.308 -0.0989 -0.2305  0.0415
27694W        W43955   7.304   7.060   3.432  0.1486 -0.0116  0.4893
27695W        W43956   9.337  12.282  12.511  0.2683  0.0845 -0.2139
27696W        W43957   1.089  13.941   2.874  0.2840 -0.1105  0.0883
27697W        W43958  15.587   3.477  11.332 -0.0022  0.0482 -0.1006
27698W        W43959   5.647   6.240  13.261 -0.3590 -0.0655  0.0542
27699W        W43960   1.505   6.840   1.204  0.0345 -0.1899 -0.0499
27700W        W43961   4.645   2.181   1.827 -0.4077  0.0082 -0.1617
27701W        W43962   4.164   5.094   4.248  0.1490 -0.1551  0.1058
27702W        W43963   5.902  15.697  15.520 -0.1499  0.4083 -0.0848
27703W        W43964   3.977   9.734  12.476 -0.2027  0.0553 -0.2312
27704W        W43965   6.197   7.525  12.332 -0.0574  0.1626 -0.1450
27705W        W43966   9.124  16.934   1.342  0.3715  0.0169 -0.3627
27706W        W43967  10.711  11.848  14.263 -0.0928  0.1677 -0.0061
27707W        W43968   6.403   4.349   1.619  0.1812  0.0753 -0.1977
27708W        W43969  14.839  11.356   5.019  0.1167  0.0872 -0.0121
27709W        W43970   1.998   2.082  15.360 -0.1275  0.3637  0.1118
27710W        W43971   9.921   7.402   0.014  0.1005 -0.1589  0.2187
27711W        W43972  10.055   0.623   1.449  0.3610  0.3959  0.2698
27712W        W43973  15.793  10.022   0.289 -0.0983 -0.1370 -0.0068
27713W        W43974   7.392   1.059  13.962  0.2084 -0.0396 -0.1836
27714W        W43975   1.515  10.531  13.097 -0.0131  0.0737  0.0232
27715W        W43976   2.680  17.225  11.137  0.1336 -0.2413  0.0495
27716W        W43977  12.132   0.399   5.143 -0.1168 -0.0772 -0.1294
27717W        W43978   9.954  17.407  15.866 -0.2708 -0.0878 -0.0653
27718W        W43979  16.774   6.016   5.584 -0.0891  0.0544  0.1926
27719W        W43980  16.185   4.120  14.401 -0.0004  0.1622 -0.1658
27720W        W43981   7.582   2.263  16.491  0.3375  0.4433  0.1117
27721W        W43982   5.244   5.741   4.483 -0.1465 -0.0188 -0.1598
27722W        W43983  16.247   8.157  10.953 -0.0155 -0.0828  0.3099
27723W        W43984   8.313  17.524   1.446  0.1511 -0.0814 -0.1576
27724W        W43985  14.549   1.315  13.466  0.2487 -0.2839  0.2562
27725W        W43986   2.774  17.630  16.104  0.1093 -0.4398  0.0617
27726W        W43987  12.121   4.786   1.728 -0.1200 -0.1560  0.0104
27727W        W43988   7.128   6.382  15.959  0.1028 -0.0699 -0.2534
27728W        W43989  16.667   6.915   0.118 -0.1490 -0.0994 -0.2006
27729W        W43990   4.736  10.298   6.470 -0.1548 -0.2252  0.0556
27730W        W43991  10.882  12.155   3.248  0.0381  0.1761 -0.1046
27731W        W43992  10.582   1.604  15.227 -0.2974 -0.2640  0.2004
27732W        W43993   2.885   8.765  14.304 -0.1168  0.0294 -0.2441
27733W        W43994  12.199   8.523   5.157 -0.0822  0.0520  0.2895
27734W        W43995   6.224   5.239   0.377 -0.0708 -0.1216 -0.1423
27735W        W43996   2.779  12.267   2.867  0.1654 -0.1963  0.1890
27736W        W43997   6.321  17.687  14.144  0.1142  0.0680  0.1706
27737W        W43998  10.523   3.226   1.230 -0.3792  0.0873  0.0417
27738W        W43999  13.080  11.302  15.680 -0.1665  0.2135 -0.0253
27739W        W44000  16.950  15.204  12.367  0.0763  0.0875  0.0813
27740W        W44001   5.921  13.016   0.378 -0.2926 -0.0982  0.1642
27741W        W44002   8.030  11.248  14.000  0.0030 -0.2274 -0.1653
27742W        W44003   8.184   5.877  16.731  0.0670 -0.1616 -0.1847
27743W        W44004   3.370  11.104   4.493 -0.1070 -0.0309  0.0201
27744W        W44005   7.327   7.507   3.793 -0.3841 -0.0496  0.0478
27745W        W44006  10.388  15.076  14.992  0.1559  0.0080  0.0888
27746W        W44007  13.625   1.003   2.262  0.1623  0.0971 -0.0474
27747W        W44008  12.973  10.327  12.615 -0.0637  0.1788  0.0654
27748W        W44009  15.061   4.798   3.595  0.1461  0.0148 -0.0479
27749W        W44010   9.268  16.232  14.059  0.1939 -0.1440 -0.0593
27750W        W44011   6.850  17.332  11.871 -0.0752 -0.1567 -0.0480
27751W        W44012  15.521   6.335   2.993 -0.4977  0.1118  0.0479
27752W        W44013  11.423   5.113   5.083 -0.1894  0.2704 -0.2144
27753W        W44014   8.533  10.062  16.461 -0.0899  0.2172 -0.0187
27754W        W44015   1.809  11.797   3.171 -0.1616  0.0312  0.0386
27755W        W44016   6.859  16.631   5.509 -0.1233 -0.2830 -0.0417
27756W        W44017   7.111   5.534  13.556 -0.1081 -0.1091  0.0789
27757W        W44018  11.626   3.675  16.203  0.4119 -0.3266 -0.0583
27758W        W44019  11.931   2.147  16.180 -0.0427  0.2264  0.2200
27759W        W44020   3.170   7.357   3.224 -0.0577  0.0862 -0.0900
27760W        W44021  12.182   8.488  13.798  0.2134 -0.2686 -0.2806
27761W        W44022  17.224   2.923  16.246 -0.1052  0.4013  0.0570
27762W        W44023   0.872   1.342   2.155  0.3226 -0.1183  0.2453
27763W        W44024   8.735   5.471   0.415 -0.0458 -0.3584  0.0133
27764W        W44025  11.913  13.983   5.630  0.0903  0.0449  0.0201
27765W        W44026  17.626   9.978  12.663  0.1351  0.1706  0.2708
27766W        W44027   9.143   1.736   0.043  0.0399  0.0914 -0.1070
27767W        W44028   8.256   8.816   5.118 -0.1638  0.0813 -0.3900
27768W        W44029   1.490   3.186   1.804  0.0051  0.3332  0.0633
27769W        W44030   0.299   1.308   2.451  0.0761 -0.0015 -0.2792
27770W        W44031  11.801   0.272   3.185 -0.0646 -0.0268 -0.0362
27771W        W44032   5.865   2.868  16.236  0.0376 -0.1758 -0.0049
27772W        W44033  15.468   6.937  13.942  0.2070  0.0447 -0.0338
27773W        W44034  14.357   9.780  13.166 -0.2027  0.0411  0.0579
27774W        W44035   8.454   3.829   2.814  0.0310 -0.1291 -0.1231
27775W        W44036   5.578   9.234  16.599  0.0666  0.2820 -0.1942
27776W        W44037   8.153  16.261  15.550  0.2498 -0.0104  0.0875
27777W        W44038   5.539   4.501   3.388  0.0486 -0.0170 -0.1697
27778W        W44039   9.089  16.543   0.980 -0.3015  0.1171 -0.1922
27779W        W44040   1.272  11.121   1.232  0.1492 -0.1708  0.0348
27780W        W44041   0.660  11.593   4.244 -0.2071 -0.1309 -0.4042
27781W        W44042   0.637  15.149   2.236 -0.1974  0.2861  0.0748
27782W        W44043   4.325  14.494  16.761 -0.0056  0.1472 -0.3521
27783W        W44044   0.387   2.688   3.724 -0.1405  0.0436  0.0986
27784W        W44045  16.029  13.550   3.044 -0.0453 -0.0181  0.1201
27785W        W44046   9.883  11.970  15.877 -0.1690 -0.1346  0.0500
27786W        W44047  17.430  16.777  15.407 -0.0647  0.0194 -0.1892
27787W        W44048   7.781  10.847  14.654  0.3309  0.2617 -0.1349
27788W        W44049   1.836   6.242   6.255  0.3749  0.0825  0.0818
27789W        W44050   9.178  17.202  12.080 -0.1258 -0.0088 -0.1143
27790W        W44051   1.416  16.020  12.509  0.1272 -0.0208  0.2762
27791W        W44052   5.886  16.324   2.565 -0.2434  0.0843 -0.0732
27792W        W44053   8.444  10.245   1.475  0.1650 -0.0307  0.0147
27793W        W44054   6.264  13.520  14.862 -0.0638 -0.0607  0.0555
27794W        W44055   9.045  10.554  14.815 -0.0640 -0.0377 -0.0331
27795W        W44056   4.573  12.160   1.537 -0.3020 -0.0980  0.0216
27796W        W44057  14.833  10.556  16.590 -0.3259 -0.0719  0.1839
27797W        W44058  14.253   7.274   2.342  0.1719  0.0669 -0.0849
27798W        W44059  12.712   0.161  15.605  0.1133  0.1013  0.0571
27799W        W44060  12.572   0.235   4.370  0.1075  0.0618  0.2620
27800W        W44061   1.090  14.931   2.117 -0.0494  0.0408 -0.1617
27801W        W44062   5.745  16.530  11.467 -0.1115 -0.3526 -0.1709
27802W        W44063   9.896   1.266  13.505  0.3444  0.5380 -0.0196
27803W        W44064   9.071   3.471  14.779  0.0109  0.0469  0.0738
27804W        W44065   6.989   1.588   5.129 -0.0342  0.1823  0.1965
27805W        W44066  17.070   3.943  13.492  0.2019  0.0308 -0.2190
27806W        W44067   5.432  10.292   3.549 -0.0039  0.1168 -0.0328
27807W        W44068   1.623  17.484  14.508  0.0755  0.2630  0.1679
27808W        W44069   1.445   2.105   5.579 -0.2959  0.3222  0.0996
27809W        W44070  10.808  14.872   3.570 -0.0545 -0.1642 -0.0911
27810W        W44071   7.342  11.050  13.130 -0.1268  0.2229 -0.2654
27811W        W44072   5.748   0.335   5.822  0.1716 -0.0666  0.0594
27812W        W44073   9.635   8.644  14.640 -0.1842 -0.1034  0.0093
27813W        W44074  10.004   1.347  14.005  0.1406 -0.1735 -0.0370
27814W        W44075  10.450  14.332  12.063  0.1481 -0.0376  0.2216
27815W        W44076   0.765  14.050  13.352  0.2828  0.1116 -0.0643
27816W        W44077  13.224   9.361  12.332 -0.1703  0.3255  0.2479
27817W        W44078  13.251  14.357   3.827  0.4369 -0.0458  0.2152
27818W        W44079  14.028   4.047  14.600  0.0092 -0.0324 -0.3980
27819W        W44080  14.740   1.331  14.155 -0.0248 -0.0919  0.1385
27820W        W44081  16.709   6.064   4.209 -0.2558  0.0104  0.2471
27821W        W44082  13.354  13.819   3.546 -0.1721  0.0454  0.5009
27822W        W44083   7.187   3.378  13.315  0.2309 -0.0858 -0.4024
27823W        W44084  13.473  17.577  11.384 -0.1548 -0.1712  0.2106
27824W        W44085  12.941  11.407   4.774  0.1157 -0.1663 -0.3953
27825W        W44086  12.937   8.238  15.575  0.1444 -0.0259 -0.3181
27826W        W44087   0.599  10.063  14.604  0.3015 -0.1180  0.1591
27827W        W44088   7.491   1.704  11.986  0.1999 -0.0066 -0.0765
27828W        W44089  11.659   4.895  12.377  0.1671  0.0467 -0.2242
27829W        W44090   9.868   4.937   4.711 -0.2392 -0.1013 -0.1586
27830W        W44091  12.678  17.673   0.256 -0.0157  0.1124  0.1497
27831W        W44092  13.587   5.434   2.924  0.0771  0.2337 -0.4828
27832W        W44093   5.183  15.165   0.548 -0.2511  0.1883 -0.1600
27833W        W44094  13.804   1.599  16.743  0.0396 -0.0155 -0.1248
27834W        W44095  17.793  11.937  12.178 -0.0624 -0.0443 -0.0209
27835W        W44096   4.023   0.743  11.659  0.0794  0.1169 -0.0704
27836W        W44097  17.358  17.218   4.979 -0.1576  0.1873 -0.4390
27837W        W44098   8.612   3.334   5.884 -0.2756  0.0204  0.1041
27838W        W44099   6.823  15.996   1.921 -0.1120 -0.1999 -0.1731
27839W        W44100  10.796  15.156  13.532 -0.2258 -0.0445 -0.4007
27840W        W44101   1.675  12.916   1.265 -0.1024 -0.2342 -0.0184
27841W        W44102  15.841   1.380  15.208 -0.0160 -0.1807 -0.2752
27842W        W44103  12.936  16.298   0.898  0.0460 -0.1038  0.1673
27843W        W44104  12.710   9.260  15.668  0.1377 -0.3304 -0.1523
27844W        W44105  14.499  15.574   0.337 -0.1493 -0.0986  0.2170
27845W        W44106  15.072  15.686   5.998  0.1905  0.1081  0.0199
27846W        W44107  17.730   7.417   0.717 -0.3708 -0.2011 -0.1012
27847W        W44108  16.599  14.895  14.496  0.0185  0.0817  0.1317
27848W        W44109  15.909   6.488  14.458 -0.0895  0.0478 -0.0603
27849W        W44110   6.280   0.731   3.846  0.2230  0.1641  0.0720
27850W        W44111  11.865  16.630   6.098 -0.3643 -0.1187  0.2369
27851W        W44112   9.798   3.098   1.972 -0.1926  0.1811 -0.1291
27852W        W44113   7.080   6.388  15.068  0.1227  0.2442 -0.0289
27853W        W44114   3.397   5.708  16.155 -0.4064 -0.0376  0.0967
27854W        W44115  17.465   5.556  15.026 -0.0095  0.0874  0.2292
27855W        W44116   2.802   3.999   0.017  0.0192  0.0196 -0.0258
27856W        W44117   9.529   9.317  16.764  0.0647  0.1326 -0.2022
27857W        W44118   4.149  13.665  13.858  0.1963 -0.1011  0.1981
27858W        W44119   6.040  17.083   0.581 -0.0552  0.1809  0.2894
27859W        W44120  13.558  15.365   1.999 -0.2233  0.1083 -0.0000
27860W        W44121  11.347   7.320   0.022  0.0372 -0.2068  0.1676
27861W        W44122  14.023  17.281   4.490 -0.1648  0.0019 -0.1373
27862W        W44123   2.352  11.203   1.078 -0.0191 -0.0840 -0.0266
27863W        W44124  17.164   7.224   0.062  0.0139  0.0041  0.0542
27864W        W44125   1.311  14.653   4.397 -0.0047  0.0968  0.1167
27865W        W44126   6.953   8.269  12.168 -0.1909  0.0254 -0.0862
27866W        W44127   4.485  13.197  16.540 -0.2473 -0.0375  0.0130
27867W        W44128  15.285   5.754  14.981  0.1053 -0.0960 -0.2340
27868W        W44129   0.033  11.064   4.237  0.0758  0.2283  0.1017
27869W        W44130  13.968   3.780   5.557 -0.0722 -0.0529  0.0017
27870W        W44131  15.859  13.789  13.919 -0.2949  0.0474 -0.0145
27871W        W44132  13.032   2.201  10.645 -0.2218  0.0568 -0.1086
27872W        W44133   6.174   0.612  15.515  0.1957 -0.0651  0.1307
27873W        W44134   2.384   0.294  12.380 -0.3989 -0.0975  0.2425
27874W        W44135   8.069   8.542   4.224  0.0388 -0.0573  0.2023
27875W        W44136  15.150   6.379  16.065 -0.1437  0.2357 -0.0454
27876W        W44137   1.535  13.741   2.990  0.1493  0.0591 -0.0698
27877W        W44138  15.512  10.914  15.745 -0.0535 -0.1019  0.1007
27878W        W44139   5.728   4.913   1.115  0.1391 -0.0863 -0.2098
27879W        W44140  14.013  17.423  16.987 -0.0520  0.1042  0.0434
27880W        W44141  13.525   2.352   3.159 -0.3275 -0.0084 -0.0475
27881W        W44142  13.153  12.582   3.306  0.0612 -0.1259 -0.0990
27882W        W44143   3.850   2.724   0.656  0.2002 -0.0378  0.2913
27883W        W44144   8.229  17.264   3.675  0.0377  0.4586 -0.0557
27884W        W44145  15.852  16.477  12.926  0.0339  0.1159 -0.1075
27885W        W44146   4.980   4.092   4.682  0.2044  0.3400 -0.1399
27886W        W44147  11.932   2.281  12.330  0.0044 -0.1009  0.0311
27887W        W44148   6.892  17.396   3.759  0.2349  0.1410  0.0018
27888W        W44149   7.723  14.160  14.312 -0.3292  0.2068  0.0628
27889W        W44150  14.968   6.919  14.036 -0.0839 -0.0672 -0.1980
27890W        W44151   0.619   9.795   4.178  0.1567 -0.0759  0.1308
27891W        W44152  16.934   2.143   3.226  0.0817  0.1646 -0.0019
27892W        W44153   6.472  17.174  12.421 -0.1304 -0.0872 -0.1454
27893W        W44154  10.869   8.661   0.459 -0.0098  0.0033  0.1716
27894W        W44155  15.395   7.579   3.321  0.1274 -0.2066 -0.0233
27895W        W44156   9.285   0.190  16.200  0.2230 -0.0825  0.3059
27896W        W44157   3.729   1.622   0.722  0.0368 -0.0800  0.3636
27897W        W44158   9.226  14.478  15.011  0.0340  0.0612 -0.1534
27898W        W44159  12.359   7.380  12.943 -0.1113  0.0473  0.0022
27899W        W44160  15.702   7.830  13.828  0.0681  0.0678  0.0745
27900W        W44161  13.960  16.229   5.302 -0.0094 -0.3110  0.1093
27901W        W44162   3.383   1.778  13.898  0.2584 -0.1376 -0.0924
27902W        W44163   7.856   7.918   0.510  0.1457 -0.1615  0.0956
27903W        W44164   3.979  14.518  11.980  0.1815  0.0498 -0.0319
27904W        W44165   2.753  12.376  15.504  0.0209 -0.0503  0.0130
27905W        W44166   1.232   3.293   2.327 -0.0282 -0.0041 -0.0766
27906W        W44167  13.402   0.503  16.171 -0.0875  0.0574  0.1702
27907W        W44168   6.859   3.982  14.525 -0.1153  0.1185  0.1205
27908W        W44169   2.958   1.598  12.393 -0.0905 -0.0850 -0.3695
27909W        W44170  17.061   0.682  12.857  0.0260  0.2058  0.0402
27910W        W44171  13.674  14.839  14.799  0.0331 -0.0328  0.0364
27911W        W44172   5.190   7.940  11.829 -0.0028  0.2590 -0.1958
27912W        W44173   7.894   5.090   3.950 -0.0883  0.2537  0.1310
27913W        W44174   9.543  17.014   4.488  0.1590  0.0193  0.0593
27914W        W44175  11.451  13.274   2.907  0.0275  0.3248  0.1269
27915W        W44176   9.439  11.941   2.869  0.0657 -0.2095  0.0211
27916W        W44177   5.928   6.985  12.226 -0.1814  0.0687 -0.0859
27917W        W44178   4.896  15.127  16.557  0.2098  0.0049  0.1588
27918W        W44179  17.315   3.760  15.732 -0.0026  0.0106  0.1909
27919W        W44180  13.001   6.459   0.976  0.2450 -0.3452 -0.2762
27920W        W44181  12.918   9.131   4.181 -0.2744  0.1834 -0.0609
27921W        W44182   2.918   3.871   3.007 -0.1127  0.2292 -0.2826
27922W        W44183   8.660   2.066  16.566  0.1019 -0.1186 -0.2804
27923W        W44184   4.004  15.751   5.396  0.3861 -0.0171 -0.1896
27924W        W44185   7.292  15.793  10.995  0.0039 -0.0632 -0.1780
27925W        W44186   6.568  11.580   1.853 -0.0932  0.0801 -0.0269
27926W        W44187   0.551   2.005  11.679 -0.1657  0.0221  0.3037
27927W        W44188   9.448   9.946  14.295  0.1137  0.0121 -0.2126
27928W        W44189   6.669  11.647   0.391 -0.1937 -0.0261 -0.0527
27929W        W44190  16.669  10.738   5.016  0.1673 -0.0564  0.0639
27930W        W44191  12.620   3.924   3.756  0.0224 -0.2279 -0.0678
27931W        W44192  11.263   5.400   3.536 -0.1128  0.1559  0.0513
27932W        W44193   5.803   2.187   1.721  0.0246  0.2007 -0.2256
27933W        W44194   5.792   5.673   3.916  0.0913  0.2536 -0.0411
27934W        W44195   8.221   6.476  12.040  0.2662 -0.0419  0.0442
27935W        W44196   3.537   7.921  12.855 -0.1325  0.0756 -0.0630
27936W        W44197  12.639  14.773   2.521 -0.1672 -0.0573 -0.1536
27937W        W44198  11.100   9.332   2.481  0.0832  0.1974 -0.1521
27938W        W44199  11.170  11.059   0.369 -0.1494 -0.0308  0.1231
27939W        W44200   3.884   0.772   2.687 -0.1710  0.5157 -0.0999
27940W        W44201   2.184  16.984   1.288  0.1472  0.2258  0.0690
27941W        W44202   2.955  16.264   4.976 -0.2551 -0.2006  0.0644
27942W        W44203   5.360  17.334  13.367  0.2139 -0.2825 -0.4001
27943W        W44204   9.825  11.535  12.286 -0.1075  0.1535 -0.0087
27944W        W44205   5.176   4.670  12.104  0.2058 -0.2275  0.4416
27945W        W44206  14.647   9.764   3.115  0.2399 -0.1653  0.0678
27946W        W44207  16.982   8.516   4.067  0.1078  0.1084  0.0304
27947W        W44208  10.508   7.024   3.279  0.0046  0.1389  0.1583
27948W        W44209   2.789   9.962  16.809  0.0597  0.2329 -0.0724
27949W        W44210  13.693   8.770   2.709 -0.0455 -0.0215 -0.2565
27950W        W44211   5.551   7.480  14.686  0.2753 -0.0856  0.0630
27951W        W44212  10.412  10.381  12.377 -0.2817  0.0618 -0.2539
27952W        W44213   6.760  10.094   3.170  0.0337 -0.0280 -0.2415
27953W        W44214   7.543  16.639   0.922  0.0647 -0.0678 -0.2352
27954W        W44215  11.272   4.612  13.126  0.0687 -0.0109  0.1805
27955W        W44216   6.972   8.720   0.639 -0.3548  0.2030 -0.0040
27956W        W44217  11.511   0.576  16.774  0.0136  0.1868 -0.0512
27957W        W44218  10.473  15.383  13.889 -0.0787  0.0196  0.0424
27958W        W44219   2.311  11.689   3.455  0.0127 -0.1627  0.4127
27959W        W44220   2.625  15.273  16.202  0.1173  0.0486 -0.0813
27960W        W44221  14.158  14.373   0.021  0.0139 -0.0428 -0.4194
27961W        W44222  11.630   4.712  15.850  0.2358  0.2154 -0.2424
27962W        W44223  14.517  17.220  13.983 -0.1330  0.2289  0.0054
27963W        W44224   7.041  10.447  16.470 -0.3145 -0.0831 -0.0070
27964W        W44225   5.358   7.415  16.854 -0.1407 -0.1930 -0.0650
27965W        W44226  17.620   3.640  14.040  0.1608 -0.0990  0.0823
27966W        W44227  14.595  14.603  15.998 -0.0717  0.0380  0.1496
27967W        W44228  12.989   1.973   3.773 -0.1970  0.1759 -0.0329
27968W        W44229   3.846   3.870  15.258  0.2270  0.2198 -0.1115
27969W        W44230  17.205   8.881  13.943 -0.0426  0.1528  0.1868
27970W        W44231  15.272   6.857   5.087  0.2779 -0.0218 -0.0581
27971W        W44232  10.788  10.537  16.511  0.3089  0.3698 -0.2577
27972W        W44233  16.040   0.961  14.466  0.2973 -0.1651 -0.2031
27973W        W44234  17.543   1.004   3.504 -0.2817 -0.1060  0.0424
27974W        W44235  12.033  16.877  12.998  0.2434  0.4168 -0.0447
27975W        W44236  11.627  13.026  14.569  0.0415 -0.0647 -0.3382
27976W        W44237  17.834   8.335  16.562  0.2149 -0.2470 -0.1576
27977W        W44238  17.792   7.275  14.831 -0.0477 -0.1831 -0.3275
27978W        W44239   9.065  17.093  15.765 -0.0080 -0.0084  0.1220
27979W        W44240   6.722  15.824   4.449 -0.0445 -0.2032  0.2560
27980W        W44241  10.865   7.965  11.485 -0.1583 -0.2858  0.2108
27981W        W44242   0.970   9.182   1.647  0.1712 -0.0559  0.0586
27982W        W44243   2.413   1.735   4.289 -0.1163 -0.1477  0.3107
27983W        W44244   9.542   4.806   3.281  0.0075  0.1117  0.1311
27984W        W44245  15.462   1.531   0.609 -0.1161  0.2834  0.2561
27985W        W44246   7.265   8.216  11.787  0.1568 -0.1976 -0.0051
27986W        W44247   0.791  12.113   4.409  0.1021 -0.2173  0.5897
27987W        W44248   1.022  16.732   1.766  0.0217 -0.1461 -0.0230
27988W        W44249   4.765  16.715   2.188  0.2189 -0.2719 -0.2255
27989W        W44250  14.461  16.657  13.659  0.1825 -0.1126 -0.3245
27990W        W44251  16.851   6.227  13.645 -0.1788  0.2951  0.0780
27991W        W44252   4.080  15.990   1.968 -0.0032  0.1600 -0.0395
27992W        W44253  13.118   6.669   4.871  0.0178 -0.0690  0.1342
27993W        W44254   8.431   7.775   5.015  0.2379  0.1330 -0.2916
27994W        W44255  14.495   2.245   2.905  0.2448 -0.0863  0.0524
27995W        W44256  14.913   9.959   5.795  0.1510 -0.3009  0.1355
27996W        W44257  15.825  16.088   1.651  0.0483 -0.0963 -0.1675
27997W        W44258  13.597  13.148   0.167  0.0648  0.2059 -0.1301
27998W        W44259   3.939   5.395   5.392  0.0022 -0.1977 -0.0979
27999W        W44260   3.915   2.506  16.452 -0.1200  0.3382  0.1928
28000W        W44261   4.736  10.348   4.411 -0.1705  0.1612 -0.0229
28001W        W44262   8.364   4.973  13.398  0.0439  0.0255  0.2253
28002W        W44263   1.065   2.367   1.218  0.1010 -0.1518  0.2435
28003W        W44264  11.420   4.001  11.987 -0.5810  0.2029  0.0909
28004W        W44265  17.798   9.431   4.570  0.0519  0.1157 -0.1158
28005W        W44266   7.589  12.836   4.777 -0.4570  0.0008 -0.0771
28006W        W44267  16.281   9.119   1.920 -0.1794 -0.2069 -0.0809
28007W        W44268   0.316   3.797  14.898 -0.2053  0.1406 -0.1692
28008W        W44269   9.758   4.221   4.193 -0.2382  0.1848 -0.1252
28009W        W44270  13.998   6.880  13.681 -0.1568 -0.3183  0.2161
28010W        W44271   0.726   8.315  15.008  0.0061 -0.2540 -0.2490
28011W        W44272   2.314   1.573  15.856  0.2139  0.0681  0.2476
28012W        W44273  13.765   1.695   5.315  0.3271 -0.0637 -0.1676
28013W        W44274  17.452  11.047  16.849  0.1872 -0.0064 -0.3082
28014W        W44275   6.500   0.612  12.092  0.3318  0.1823  0.1181
28015W        W44276   5.140   4.114   3.348 -0.4015  0.2266 -0.0761
28016W        W44277  17.034  14.953  11.930  0.1984 -0.0692 -0.2080
28017W        W44278   9.650   7.993  16.439  0.2241 -0.0993 -0.0357
28018W        W44279   2.785  16.789  15.118  0.3247 -0.5530 -0.0448
28019W        W44280  10.579  14.206   2.409 -0.1064  0.3568  0.1911
28020W        W44281   5.467  10.830   2.510 -0.3856 -0.2763 -0.3227
28021W        W44282   1.507  13.241   2.811 -0.1595  0.1468 -0.0581
28022W        W44283  11.245  14.729   3.405  0.4114  0.0405  0.0148
28023W        W44284  10.108   9.689  12.217 -0.1843 -0.3300  0.3720
28024W        W44285   8.391  15.817   3.598 -0.0523 -0.1539 -0.0029
28025W        W44286  15.655   4.814   0.756 -0.2119 -0.0883 -0.0896
28026W        W44287   0.455   5.136  14.764 -0.0033 -0.4046 -0.1249
28027W        W44288   8.760  11.574   5.115 -0.1876 -0.2230  0.0528
28028W        W44289   2.804   0.725   2.600  0.1530  0.1525  0.0715
28029W        W44290   4.220   0.978  15.764 -0.2532 -0.1675  0.1885
28030W        W44291   7.076   6.529  16.752  0.0779  0.1386  0.1700
28031W        W44292   0.487   0.213   3.446 -0.0381  0.1985 -0.0109
28032W        W44293   9.359  16.912  12.524 -0.0360  0.0897  0.1905
28033W        W44294   6.094  16.025   3.143 -0.2265 -0.0989  0.1068
28034W        W44295   6.348   7.307   0.688 -0.1841 -0.2140 -0.0194
28035W        W44296  16.943   7.120   0.925 -0.4772 -0.0325 -0.1338
28036W        W44297   9.722  16.867  13.275 -0.1776 -0.4348 -0.0688
28037W        W44298  13.480  12.608   5.194 -0.2598  0.0112  0.0536
28038W        W44299  10.035   3.887  13.365 -0.4045  0.1094  0.1548
28039W        W44300   8.820   1.550   3.266  0.0475 -0.1053  0.1673
28040W        W44301   3.233  12.347  14.059 -0.1106 -0.3013  0.1825
28041W        W44302  16.705  16.874   1.016 -0.0233  0.1396 -0.0393
28042W        W44303  16.850  12.134   3.571 -0.0713 -0.0008 -0.0749
28043W        W44304   1.196  14.686   0.825  0.0402  0.0194  0.4186
28044W        W44305   9.578   7.511   3.420  0.0765  0.2959  0.1491
28045W        W44306   2.378   1.094   3.391 -0.0080 -0.1105 -0.1354
28046W        W44307  15.046  12.201  13.963  0.1779 -0.1447 -0.0781
28047W        W44308   4.306  13.036  15.627 -0.1252  0.2065 -0.0635
28048W        W44309   4.327  14.978  15.869 -0.2272 -0.1891  0.0915
28049W        W44310   1.149  17.622  13.456  0.0067 -0.0534 -0.1108
28050W        W44311   0.624  17.510  14.206 -0.0264 -0.1354  0.0636
28051W        W44312  14.130   0.137   5.682 -0.0454  0.2314  0.0403
28052W        W44313  17.309   7.007  13.474 -0.1469 -0.0226  0.1345
28053W        W44314   7.074  10.628  13.547 -0.0253 -0.0746 -0.1470
28054W        W44315  16.301  13.873  15.098 -0.0947 -0.0509 -0.1041
28055W        W44316   0.278  16.162   6.262  0.1714 -0.0459  0.0443
28056W        W44317  12.808  14.839  12.556 -0.1116 -0.1490  0.0252
28057W        W44318   5.557   7.070  16.489  0.0434  0.0206 -0.0455
28058W        W44319   1.744  11.297   5.808  0.1707  0.0766 -0.1556
28059W        W44320   0.374  13.548   1.250  0.1038  0.0416  0.0412
28060W        W44321  10.732  15.529   0.436 -0.0755 -0.3813 -0.0368
28061W        W44322   5.286  16.631   0.733  0.0867 -0.2459  0.1389
28062W        W44323   0.279  16.387   1.640 -0.1715  0.1854 -0.0037
28063W        W44324  10.907   1.157   1.083  0.1281  0.1217 -0.1153
28064W        W44325   9.674   4.607  12.716 -0.2379 -0.0055  0.0353
28065W        W44326   2.749   9.309   1.853 -0.1124  0.1486 -0.0109
28066W        W44327  13.609   8.042  16.035 -0.0582  0.0545  0.0196
28067W        W44328   4.675  12.689  12.881  0.1762 -0.0536 -0.2885
28068W        W44329   8.647   7.836  14.768 -0.1112  0.3256  0.1369
28069W        W44330   9.194   6.287  11.823 -0.1729 -0.1270  0.0920
28070W        W44331   1.498   5.633   3.008  0.2394 -0.1053  0.0075
28071W        W44332  11.654  15.517  12.163  0.0406 -0.0026  0.2437
28072W        W44333  11.201   3.557   2.886 -0.1403  0.0176  0.0790
28073W        W44334  12.154  17.006   5.061  0.2023 -0.0885 -0.1529
28074W        W44335   6.172   9.399  15.996 -0.1709 -0.2408 -0.1054
28075W        W44336  11.038   0.264  15.898 -0.1972 -0.1601 -0.1177
28076W        W44337   6.685  14.997   4.030 -0.0782  0.4036 -0.0560
28077W        W44338   1.637   0.114  15.811 -0.1274 -0.1175 -0.1222
28078W        W44339   3.640   2.038   1.815 -0.0697  0.1007  0.1486
28079W        W44340   1.700   0.340  15.295  0.2286 -0.3295 -0.1754
28080W        W44341   7.899  13.121   0.762  0.4220 -0.1325  0.2096
28081W        W44342   6.113  16.777  14.516 -0.0649 -0.3287  0.3125
28082W        W44343  16.421  17.781  12.920 -0.0786 -0.2393  0.0113
28083W        W44344   7.505  14.598   5.017 -0.0257 -0.0472 -0.1246
28084W        W44345   5.693   5.462   4.831 -0.1778  0.1927  0.1442
28085W        W44346   6.832  16.964  12.140  0.3603 -0.2139 -0.1462
28086W        W44347   8.807  10.544   2.828 -0.0417 -0.3372  0.1222
28087W        W44348   8.005   3.000  14.495  0.1065  0.1029  0.2009
28088W        W44349   9.318  16.605   3.814  0.1066 -0.0329 -0.2099
28089W        W44350   2.030   3.350  14.651 -0.2567  0.0682  0.1603
28090W        W44351   8.202   8.302   4.950 -0.0440  0.1229  0.1999
28091W        W44352  10.799   4.792  12.031  0.1468  0.1483 -0.4660
28092W        W44353  12.785   9.958   5.176 -0.0807 -0.2019  0.0191
28093W        W44354   8.132   8.491  14.356 -0.0477  0.1203 -0.2103
28094W        W44355  11.222  12.103  13.068 -0.1769 -0.5224 -0.0943
28095W        W44356  14.606  17.472  12.159 -0.1540 -0.0570  0.1317
28096W        W44357   7.664  11.236   3.609 -0.2575  0.2142  0.1852
28097W        W44358   8.073   9.952   1.693  0.4059  0.0766 -0.2184
28098W        W44359   9.488   7.602   4.477 -0.2795  0.1823  0.0761
28099W        W44360   0.271  15.607  16.584  0.0499 -0.1300 -0.0168
28100W        W44361  12.106  10.951  15.204  0.1602 -0.1117 -0.1166
28101W        W44362   9.497  14.182  11.463  0.1192 -0.0961  0.0114
28102W        W44363  10.289  16.863  14.946  0.0317  0.1654 -0.0191
28103W        W44364   8.983  14.184   4.250  0.1954  0.0965 -0.0872
28104W        W44365   6.192  11.987  14.478  0.0664 -0.1942 -0.1236
28105W        W44366   5.229  10.533   1.402  0.0514 -0.1356 -0.2393
28106W        W44367  16.706  15.080   0.477  0.1104  0.0645 -0.1718
28107W        W44368  10.654   3.115  12.456  0.0431  0.0931  0.2066
28108W        W44369  11.504   9.546   0.772 -0.0364  0.1476 -0.1387
28109W        W44370  11.766   6.419  12.871 -0.1062  0.1774 -0.2946
28110W        W44371  16.948   5.742   3.335  0.1739  0.3194  0.2290
28111W        W44372  10.217  11.491   0.107  0.1006  0.2269  0.2118
28112W        W44373   6.166  15.750   2.741  0.1648 -0.0898 -0.0427
28113W        W44374   0.030  10.138   0.913  0.0590 -0.3407 -0.1705
28114W        W44375   7.038   8.913  12.089 -0.1756 -0.1353 -0.1033
28115W        W44376   7.603  11.096   4.983  0.0432 -0.1142  0.4212
28116W        W44377  16.587   2.835   5.669  0.0217 -0.2406  0.0758
28117W        W44378   0.246   9.163   0.919  0.2182  0.2453 -0.3009
28118W        W44379  17.286   2.551  16.637  0.2765 -0.0593  0.3650
28119W        W44380   9.340  14.863   5.320 -0.2697  0.4304 -0.0167
28120W        W44381   3.789  14.638  15.247  0.0481  0.1591  0.2623
28121W        W44382  15.714   7.049  11.724 -0.4219 -0.0793 -0.1414
28122W        W44383   7.720   4.616  12.077 -0.2127  0.2074  0.0599
28123W        W44384   0.798  15.858  16.017  0.0270 -0.1829 -0.0085
28124W        W44385  11.790   3.842   0.134 -0.3064 -0.2214  0.1148
28125W        W44386   3.670   8.224   0.726 -0.0132  0.0833  0.2678
28126W        W44387  11.957   2.487   4.865 -0.0145 -0.2854  0.1741
28127W        W44388   5.660   5.335   3.486  0.1528  0.1363 -0.1398
28128W        W44389   3.351   9.782   2.484  0.1777  0.1204 -0.5077
28129W        W44390  10.187   0.769  16.264 -0.1308  0.1543 -0.1537
28130W        W44391  13.769  17.489   3.836 -0.0666  0.1901  0.0255
28131W        W44392  16.888  13.683   3.399  0.2858  0.1463 -0.1429
28132W        W44393   2.798  12.353   1.562  0.0712  0.0614 -0.3766
28133W        W44394  13.594  15.981   6.039  0.2328  0.0217  0.1589
28134W        W44395   6.118   6.569   4.029  0.0045 -0.1865  0.1217
28135W        W44396  15.273  16.659   3.643 -0.1572  0.3208  0.4155
28136W        W44397   8.626   3.734  14.147  0.1081 -0.1241  0.0372
28137W        W44398   5.000  12.457  16.482 -0.0171 -0.0619  0.0896
28138W        W44399   6.367   0.764  14.537 -0.0676  0.1717  0.1891
28139W        W44400   3.232  17.645  15.939 -0.2268 -0.1739  0.1111
28140W        W44401   2.845   5.329  13.266 -0.1680  0.0500  0.0158
28141W        W44402   2.861   8.534  15.213 -0.1908  0.1029 -0.3167
28142W        W44403   1.300   1.187   3.756 -0.4472 -0.1163  0.3401
28143W        W44404   2.138  13.559   0.668 -0.0663  0.0668  0.0931
28144W        W44405  11.873   6.029   2.891 -0.0457  0.3473  0.3261
28145W        W44406   7.683   8.288   1.581 -0.2478 -0.0558  0.0967
28146W        W44407  12.275   4.756   2.233  0.2136 -0.1749 -0.2181
28147W        W44408   4.081  10.657   0.864  0.0532 -0.0000 -0.4257
28148W        W44409  14.543  14.168  16.767  0.1421  0.0467 -0.2819
28149W        W44410   3.701   6.704   4.415 -0.0368 -0.1062  0.0512
28150W        W44411  10.506   7.547   4.758  0.1405 -0.1618  0.2436
28151W        W44412  11.133   3.213  12.729  0.0803 -0.1871 -0.0313
28152W        W44413   7.811  10.126   2.695  0.1791  0.0567 -0.1715
28153W        W44414   5.617   3.090   0.615 -0.0255  0.0238 -0.1004
28154W        W44415   0.075  11.751   6.130 -0.1195 -0.0997  0.1521
28155W        W44416  14.896   8.483  15.052  0.0622 -0.1673 -0.5824
28156W        W44417   5.400  16.399   2.670 -0.0014 -0.3244  0.0659
28157W        W44418  16.818   4.621  15.804 -0.2124 -0.1141 -0.1596
28158W        W44419  16.419   1.190   2.582  0.2848 -0.1735 -0.1485
28159W        W44420   1.384  15.949   5.302 -0.0708 -0.1355 -0.1725
28160W        W44421   2.758  10.424   2.705  0.1412 -0.0860 -0.0783
28161W        W44422  14.742  15.322   0.702 -0.1540  0.0152 -0.0205
28162W        W44423  17.466  14.571   4.268  0.1573 -0.4215 -0.2215
28163W        W44424   4.347  10.131   1.726 -0.0851  0.0883  0.0067
28164W        W44425  15.872  17.032  14.274  0.0143  0.1240 -0.0177
28165W        W44426  16.593  15.373   4.552  0.0218  0.1675  0.1578
28166W        W44427  14.247  10.052   0.069  0.0511 -0.0315 -0.1255
28167W        W44428   2.724  12.953  12.861 -0.2732 -0.0989 -0.0864
28168W        W44429   0.198   2.565   1.285 -0.4186  0.2386 -0.2538
28169W        W44430   3.133   5.193   1.055 -0.0763  0.4045 -0.1326
28170W        W44431   0.538  16.065   5.215 -0.0383  0.2662 -0.0009
28171W        W44432  10.272   2.446  14.821  0.0288  0.1759  0.0456
28172W        W44433   4.294  10.173  14.132  0.0663  0.2110 -0.0257
28173W        W44434   5.008   6.668   5.736 -0.0447  0.2565  0.1441
28174W        W44435   3.683  16.740   1.414  0.0725 -0.1103 -0.2198
28175W        W44436   6.044   9.404  13.086  0.1001 -0.1532 -0.1636
28176W        W44437   0.283  14.530  12.766  0.0190 -0.0969 -0.1349
28177W        W44438   4.805  12.282   2.299 -0.1494  0.0991  0.1082
28178W        W44439  14.676   3.152  13.769  0.1204  0.1502 -0.0131
28179W        W44440  17.451   2.090  16.373 -0.3114 -0.0991 -0.2393
28180W        W44441  10.581  13.631   3.232 -0.0931  0.4800  0.0471
28181W        W44442   1.249   6.340   2.583  0.0490 -0.0033 -0.0064
28182W        W44443   8.806  15.974  14.323  0.1478  0.2051  0.0489
28183W        W44444  14.618   3.003  13.308 -0.0680  0.1355  0.2852
28184W        W44445   3.952   8.129   6.262  0.0164  0.0685  0.3505
28185W        W44446   0.982   7.805   5.304 -0.1544  0.0633  0.1919
28186W        W44447   9.672   8.198  15.936 -0.1733  0.2303 -0.0475
28187W        W44448   7.464   1.494  14.725  0.4950  0.0438  0.1989
28188W        W44449   6.400  12.162   4.614 -0.1999 -0.2661  0.0638
28189W        W44450   9.193   9.039  12.424 -0.2780  0.2535  0.2297
28190W        W44451  16.885   1.042  16.476  0.0316  0.4487  0.2558
28191W        W44452   6.638   5.488  16.987  0.2533 -0.1547  0.0412
28192W        W44453  15.264  10.600   5.037  0.1565  0.0024  0.0272
28193W        W44454   5.496   4.412  11.705  0.1538  0.0748 -0.1507
28194W        W44455   5.491  15.928   1.511  0.2270 -0.3522  0.5550
28195W        W44456   6.275  15.824   5.898 -0.3560 -0.2318 -0.0887
28196W        W44457   1.247   6.217   4.423 -0.1278 -0.0817  0.1135
28197W        W44458   9.151   0.684  16.101  0.0270  0.0565  0.3945
28198W        W44459  15.757  16.544  11.923 -0.0931 -0.2751 -0.2108
28199W        W44460   6.393   7.883   5.253  0.2631 -0.0269  0.1650
28200W        W44461  12.519  13.058   0.217 -0.1666  0.0409 -0.1781
28201W        W44462   8.785   7.358  14.460  0.0405  0.0892 -0.0688
28202W        W44463  15.200  10.116  14.148  0.0410  0.1946 -0.3868
28203W        W44464   6.533   5.265  11.775 -0.0294  0.1049 -0.0389
28204W        W44465   8.214   0.652  10.842 -0.1062 -0.1898  0.0455
28205W        W44466   9.926  14.770  14.183 -0.0827  0.0646 -0.1757
28206W        W44467  15.186   6.713   5.965 -0.0507  0.2034 -0.0618
28207W        W44468   8.528  10.353  13.633 -0.1047  0.3428  0.1790
28208W        W44469   0.152  14.888  12.429  0.1803  0.0314 -0.0078
28209W        W44470   2.815  13.373  13.772 -0.1221  0.2477 -0.0422
28210W        W44471   7.853  16.254   1.528  0.2300 -0.2741 -0.1439
28211W        W44472   3.934  12.375   3.374 -0.3540  0.3252 -0.1030
28212W        W44473   2.540  12.502  13.994 -0.2027  0.2969  0.1823
28213W        W44474   7.767   1.115  14.848  0.3683  0.0529 -0.2312
28214W        W44475   9.424  10.631  16.507 -0.3412 -0.1381  0.1946
28215W        W44476  12.924  17.363  14.710  0.0639 -0.0501  0.0893
28216W        W44477   6.266   5.106   4.336  0.1890  0.2345 -0.0205
28217W        W44478  15.340  16.195  16.422 -0.0685  0.1743 -0.2721
28218W        W44479  14.825  10.245  12.644 -0.1645 -0.1986  0.0600
28219W        W44480  14.290  10.777   5.048 -0.0033 -0.0176  0.1110
28220W        W44481  16.653  12.014  16.942 -0.1370  0.1033 -0.3445
28221W        W44482   6.061   7.463  16.137 -0.1371 -0.3247  0.3424
28222W        W44483   3.961   9.652   0.097 -0.0103 -0.0755  0.0798
28223W        W44484  10.658  12.404  14.508  0.0110 -0.1442 -0.0108
28224W        W44485   3.530  16.489  15.102  0.0960 -0.1580  0.1290
28225W        W44486  12.314   1.516  15.738 -0.2258  0.1132 -0.1242
28226W        W44487   6.988  17.733   4.680 -0.0042 -0.0019  0.0635
28227W        W44488   5.822   3.124  14.914 -0.1951  0.1085  0.0402
28228W        W44489  13.697   5.017   1.215  0.0115  0.1815  0.1942
28229W        W44490   9.641   6.415  15.089  0.0414 -0.1026  0.0984
28230W        W44491   5.394   6.973  12.416 -0.0989 -0.0515 -0.0902
28231W        W44492   1.749   9.247  15.178 -0.0562 -0.0369 -0.2110
28232W        W44493  17.043   9.151   4.839 -0.2582 -0.0380 -0.1662
28233W        W44494  12.339  13.856  16.489 -0.0095 -0.0461  0.2532
28234W        W44495   1.273  10.835   1.752 -0.0179 -0.2721 -0.1564
28235W        W44496   4.379   8.300   0.085  0.1686  0.1510  0.1856
28236W        W44497   0.834  11.712  12.742  0.1821  0.1205 -0.0053
28237W        W44498   6.557  11.305  16.678  0.1800  0.2157  0.0957
28238W        W44499  12.693  15.666  14.532  0.1200 -0.4429  0.1177
28239W        W44500  12.136  15.533  14.978 -0.2260  0.0061 -0.0402
28240W        W44501  12.208   3.365   1.829 -0.0277 -0.2572  0.1039
28241W        W44502  12.737   6.668  14.625 -0.1885 -0.1804  0.0312
28242W        W44503  17.594   8.013  13.319  0.3259 -0.1379 -0.3122
28243W        W44504   9.113   1.508   4.739 -0.3052  0.3226 -0.1362
28244W        W44505   2.357   9.256   1.474 -0.2129  0.0339 -0.2537
28245W        W44506   6.780   4.224   4.120  0.0384 -0.2446  0.4109
28246W        W44507  12.296   4.063  11.522  0.2049  0.1051  0.2918
28247W        W44508   6.268   5.133   3.397 -0.0750 -0.0059 -0.0922
28248W        W44509   6.503  16.933   0.357  0.4725  0.0192 -0.0034
28249W        W44510  15.219   6.829   2.428 -0.0883 -0.2332  0.1207
28250W        W44511   2.387  17.706  16.863 -0.1327  0.0850 -0.0564
28251W        W44512   9.587  15.577   4.302  0.0727 -0.2818 -0.0442
28252W        W44513   1.027   5.134  14.986 -0.1835  0.0666  0.2432
28253W        W44514  11.962   5.761  11.857 -0.0699 -0.3072  0.2051
28254W        W44515   0.125   8.972  15.410  0.1952  0.0404 -0.0552
28255W        W44516  10.257  17.312   2.710 -0.0774  0.1034  0.1495
28256W        W44517   3.287   5.767   2.508 -0.3414 -0.0255 -0.1515
28257W        W44518   9.870  15.646   2.205 -0.2236  0.1261  0.0664
28258W        W44519   5.159   6.809  15.468 -0.0399 -0.0160 -0.1547
28259W        W44520  13.212  13.979   2.569 -0.1390  0.1914 -0.1340
28260W        W44521  17.094  17.311  11.934 -0.1359  0.1299  0.2402
28261W        W44522   6.078  12.706   3.417  0.0088  0.2678 -0.3122
28262W        W44523   0.932   1.004   0.894  0.1323 -0.0509 -0.3513
28263W        W44524   3.443  11.449   0.187 -0.0167 -0.0866  0.1318
28264W        W44525   4.471   4.800   3.995 -0.1371  0.0216 -0.2792
28265W        W44526   6.259   6.456  16.346  0.0006 -0.1440  0.2213
28266W        W44527  12.434   9.190  16.655 -0.3231 -0.2155  0.2229
28267W        W44528  10.003   7.426  14.786  0.0856 -0.0690  0.0022
28268W        W44529   8.825   9.334   0.744 -0.0371 -0.0151 -0.1440
28269W        W44530   5.735   9.435   4.477 -0.1613 -0.0802 -0.2379
28270W        W44531   9.393   0.743   2.375  0.1081  0.3712  0.1904
28271W        W44532  11.324   8.700   0.738  0.1311 -0.0642 -0.0281
28272W        W44533   9.657  15.647   5.756 -0.1946 -0.0120  0.0659
28273W        W44534  11.748   6.825  12.432 -0.1544 -0.0289 -0.2232
28274W        W44535   1.630  16.902   0.531  0.1049 -0.0296  0.1992
28275W        W44536  17.002  10.978   1.652  0.0852 -0.1826  0.1060
28276W        W44537   4.316  15.197   1.655 -0.1150  0.0210  0.0128
28277W        W44538  12.096   8.018   5.240 -0.3778  0.0272  0.0254
28278W        W44539  14.944  15.024  16.148 -0.0402 -0.0038 -0.2813
28279W        W44540  13.988   5.593   0.826  0.2192 -0.2363 -0.0313
28280W        W44541  10.742  14.466  12.426 -0.0230 -0.0840  0.0163
28281W        W44542   9.282  12.239   4.453  0.1660 -0.2746 -0.2123
28282W        W44543  11.317   2.840   5.517  0.0562  0.0459 -0.0494
28283W        W44544   9.533  15.320  15.045 -0.0720  0.0465  0.1203
28284W        W44545   8.811  10.328  16.741  0.1357 -0.1812  0.0304
28285W        W44546   1.639   8.181   0.140 -0.0345  0.2964 -0.2393
28286W        W44547  12.039   1.290  12.427 -0.0215  0.1095  0.0355
28287W        W44548   2.095   8.040   4.942  0.0863  0.1504  0.0992
28288W        W44549  16.804   1.312  12.229  0.1115  0.2258  0.0019
28289W        W44550   3.528  13.665  12.843 -0.4292  0.2249  0.1653
28290W        W44551   5.629  13.992  16.126 -0.0331  0.1637 -0.0037
28291W        W44552   0.449  11.471   5.947 -0.1622  0.0326  0.4222
28292W        W44553   0.080   2.345  14.609  0.1237  0.0277 -0.2290
28293W        W44554   4.238   8.954   0.679  0.1717  0.0208  0.4822
28294W        W44555  10.326  11.190   3.607  0.0394 -0.5112 -0.0656
28295W        W44556   5.293  14.025  12.402 -0.1325 -0.0416  0.4135
28296W        W44557  12.302   2.079   2.412 -0.0569 -0.0711  0.1194
28297W        W44558  16.999   6.631  13.354  0.0002 -0.0835  0.1617
28298W        W44559   1.288  10.064  15.471  0.2775  0.4358 -0.2019
28299W        W44560   2.964   0.490   0.604 -0.2717 -0.1631 -0.0912
28300W        W44561  16.317   7.899   3.579  0.1734 -0.0516 -0.1136
28301W        W44562  15.125   5.866  15.895  0.1760 -0.2226  0.4241
28302W        W44563  17.468  11.287  15.521  0.0385  0.0335  0.1697
28303W        W44564   4.429  14.262   3.311 -0.2888  0.1525 -0.1247
28304W        W44565  17.280   5.523  14.020 -0.0336  0.0469  0.0796
28305W        W44566  11.254   4.348   2.447 -0.2750 -0.0177 -0.0783
28306W        W44567  14.026   8.620  15.909  0.0848 -0.0902 -0.2911
28307W        W44568   3.319  15.187  14.179  0.0341  0.3519  0.1887
28308W        W44569  11.369  16.340  13.546  0.0920  0.2526  0.3373
28309W        W44570  10.239   8.355  15.281  0.2079 -0.1703  0.0695
28310W        W44571   9.771  12.877   4.972  0.0582 -0.0687  0.2055
28311W        W44572  10.030   6.304  15.929 -0.0794  0.0154  0.1674
28312W        W44573  15.102   7.784  12.648  0.2380 -0.1457 -0.0264
28313W        W44574   3.437   4.419  16.390  0.0427  0.0136 -0.0530
28314W        W44575   8.212  12.762   1.130  0.2477  0.2612 -0.1912
28315W        W44576   7.073   2.744   4.022  0.1162  0.0320  0.1067
28316W        W44577   1.625  10.262  15.852 -0.2553 -0.0752  0.2880
28317W        W44578   9.529  11.338  12.671  0.2713  0.3549  0.1275
28318W        W44579  15.947   9.145  15.607 -0.0530  0.3802 -0.0133
28319W        W44580   4.802  10.278  11.134 -0.1193 -0.1729  0.1470
28320W        W44581  12.411  13.278   5.745  0.0923  0.1394 -0.1009
28321W        W44582   3.417   0.770   2.127 -0.2240 -0.2419  0.0716
28322W        W44583   7.499  11.524   5.290 -0.2064 -0.0956  0.1467
28323W        W44584  14.153   6.880  14.721 -0.1460  0.0344 -0.1304
28324W        W44585   9.972   3.503   0.451 -0.0673 -0.1689  0.1263
28325W        W44586   7.906   5.435  16.704 -0.0679  0.4005 -0.3726
28326W        W44587   0.795  11.599  12.218  0.1259  0.0201  0.1766
28327W        W44588   8.693   3.982  15.479  0.1750 -0.0428  0.0035
28328W        W44589   2.118  16.722  11.621 -0.2807 -0.0142 -0.0294
28329W        W44590  15.621  10.694  16.595 -0.1721 -0.2147  0.1194
28330W        W44591  13.742  17.489  12.200  0.0743  0.0881  0.1094
28331W        W44592   3.127   8.525  16.770  0.1358 -0.2243 -0.1869
28332W        W44593   9.567  12.803   2.630  0.1066  0.0348  0.0333
28333W        W44594   6.720  12.176   0.565  0.3020  0.1243 -0.1616
28334W        W44595   3.041   6.585  16.477  0.2733  0.0736  0.0451
28335W        W44596  14.472   4.359  12.455 -0.1118  0.0361  0.0482
28336W        W44597  11.457  11.618   5.902 -0.3975 -0.1925 -0.0864
28337W        W44598  14.577   8.178   5.395  0.0936 -0.3457 -0.0795
28338W        W44599  12.190   8.653  15.399 -0.2304 -0.1151  0.0702
28339W        W44600   2.491  13.817  16.268 -0.1638  0.1370 -0.0129
28340W        W44601  16.913  10.726  11.749  0.2098  0.1138 -0.1702
28341W        W44602  17.598  14.823   1.027  0.1563 -0.1326 -0.2244
28342W        W44603  15.564  11.946  13.072  0.0417 -0.0997 -0.2091
28343W        W44604   3.357   7.728  14.226 -0.0082  0.3264  0.1137
28344W        W44605   1.744   8.078   3.590  0.1280  0.2464 -0.0217
28345W        W44606   5.642   8.862   0.483 -0.0693 -0.2700 -0.0291
28346W        W44607   0.079  11.408   5.600 -0.0965  0.1464 -0.2203
28347W        W44608   1.990   1.647  12.819 -0.0230 -0.0952  0.2344
28348W        W44609  14.315   8.664   5.269 -0.2389  0.1629  0.2347
28349W        W44610  13.628   1.021   5.152  0.1040 -0.0729 -0.0766
28350W        W44611  16.807   8.714  16.888  0.3626  0.0537  0.1886
28351W        W44612  14.366  14.530  12.091  0.1436  0.0044  0.1869
28352W        W44613  14.090   0.030   4.644  0.0804  0.0179 -0.0271
28353W        W44614   6.222   5.139   2.355 -0.0716 -0.0242 -0.0393
28354W        W44615   6.538  12.012  14.941 -0.0111 -0.0839  0.0330
28355W        W44616  15.225   0.582   2.244  0.0774  0.0184 -0.1004
28356W        W44617  12.881   8.731  15.684  0.1169 -0.1308  0.1717
28357W        W44618  14.448  17.553  13.133 -0.0507 -0.1155  0.1624
28358W        W44619  10.603   9.802  12.083  0.2199 -0.1399 -0.0987
28359W        W44620   9.238   5.499   0.579  0.1587  0.3152 -0.2330
28360W        W44621  15.512   4.953   3.676 -0.0704  0.0297  0.0215
28361W        W44622  10.266  14.091   0.170  0.0458 -0.0289 -0.1064
28362W        W44623  14.696  14.411  13.960 -0.0356 -0.0963 -0.0776
28363W        W44624   7.379   8.387  11.336 -0.2267 -0.1141  0.1276
28364W        W44625  10.466   7.528   2.284  0.4916  0.1720  0.3334
28365W        W44626  16.480   6.365   1.924 -0.0189 -0.0370 -0.1557
28366W        W44627   5.955  14.076   1.257  0.2739 -0.2419 -0.2573
28367W        W44628   6.881  13.346   5.041 -0.1706  0.0554 -0.3275
28368W        W44629  14.035   1.125   1.492 -0.1679 -0.0678 -0.1651
28369W        W44630  11.488   4.721   4.731  0.2696  0.1813  0.2429
28370W        W44631  10.904   9.813   2.180 -0.2330  0.0140  0.1377
28371W        W44632   8.263  15.183  12.631 -0.0837 -0.0197 -0.2137
28372W        W44633   4.667   5.081  11.244  0.0187  0.0925 -0.0331
28373W        W44634  12.124   5.063  14.141  0.0456 -0.1740  0.0748
28374W        W44635   5.790  15.534   4.169  0.1768  0.1185 -0.0284
28375W        W44636   2.933  13.268  13.219  0.0992  0.1052  0.0882
28376W        W44637   0.862  12.032  13.299  0.0107  0.2207 -0.0110
28377W        W44638   3.780   0.417   2.106 -0.0258 -0.4224  0.0676
28378W        W44639   1.241   0.746   3.462 -0.2640 -0.1738  0.0411
28379W        W44640  17.032   5.379   3.730  0.0600  0.1364 -0.0547
28380W        W44641   6.894   3.630   0.702 -0.2450  0.2424 -0.0666
28381W        W44642   4.807   3.852  15.523  0.1241 -0.1408 -0.2524
28382W        W44643  16.209   8.841  15.275  0.0929  0.0221  0.2262
28383W        W44644  16.360  10.618   4.000  0.0480 -0.0199 -0.0591
28384W        W44645  16.841  16.500  14.690  0.3787 -0.0176  0.0034
28385W        W44646   1.861  14.350   1.744  0.1651 -0.2710 -0.1728
28386W        W44647  13.330   7.307   2.972  0.0427  0.1738 -0.0019
28387W        W44648  16.313   2.336  14.048 -0.1332  0.3286  0.1626
28388W        W44649   6.638   3.481   4.677  0.1254  0.0510  0.0122
28389W        W44650   6.438   1.146  13.590 -0.0503 -0.2022 -0.1766
28390W        W44651   4.684  11.618  16.966  0.1225  0.2526  0.0689
28391W        W44652   7.237   2.449  12.819  0.3150 -0.0699 -0.0756
28392W        W44653   5.390   4.202  14.281  0.1230  0.3234  0.0888
28393W        W44654   5.392   6.076   1.684 -0.0422 -0.1952  0.1148
28394W        W44655  10.485  16.082  11.614 -0.1840 -0.0159  0.4399
28395W        W44656  11.607   2.468   3.416 -0.3730  0.1664 -0.0084
28396W        W44657   9.315   0.348  14.940 -0.1847 -0.0890  0.1966
28397W        W44658  17.082  16.335   3.458  0.2131  0.0278  0.0173
28398W        W44659  15.919   7.555   1.023 -0.0815  0.1353  0.1538
28399W        W44660  14.784  14.385  15.358  0.1354 -0.1244 -0.1693
28400W        W44661   9.503   8.058  11.343  0.1898 -0.0720  0.1282
28401W        W44662   7.000  12.890   3.723  0.2673 -0.4387  0.1113
28402W        W44663   4.528   4.369  12.585  0.1603 -0.2202 -0.3955
28403W        W44664  17.464  12.111   5.995  0.0994  0.1838 -0.1836
28404W        W44665   8.984   7.525  13.353 -0.1474 -0.0203  0.0606
28405W        W44666  16.185   3.623   1.368 -0.1137 -0.2006  0.0858
28406W        W44667   8.197   1.239   2.136  0.0950  0.1551  0.1400
28407W        W44668  11.760  13.889  15.209  0.0693 -0.1575  0.0029
28408W        W44669  16.502   0.729  12.077 -0.0269 -0.0474  0.0741
28409W        W44670   6.537   3.511   2.379 -0.0218  0.0645  0.0217
28410W        W44671  14.850   9.659  15.704 -0.2073  0.1007 -0.0185
28411W        W44672   0.927   9.416  13.419  0.1485 -0.1898  0.2504
28412W        W44673  10.720   1.457   4.727  0.1080  0.1035 -0.0681
28413W        W44674   3.297   3.772  13.720 -0.0508  0.2502  0.0322
28414W        W44675  10.815   5.860   2.862 -0.1415  0.0697 -0.0341
28415W        W44676   2.051  12.909  16.579 -0.1011  0.0803 -0.0245
28416W        W44677   8.294   6.588  14.386  0.2094  0.2923  0.0221
28417W        W44678   6.614  10.646  10.776 -0.0261 -0.1321  0.2309
28418W        W44679   7.105   6.189   1.113  0.3295 -0.0587  0.1392
28419W        W44680   4.597   7.600   1.831  0.1507 -0.1769 -0.0885
28420W        W44681   4.672  16.646   3.975 -0.0366  0.2531 -0.3007
28421W        W44682   6.992  12.772   4.210  0.1585 -0.1874 -0.4407
28422W        W44683  10.036  12.141  12.387 -0.2751  0.1914 -0.3218
28423W        W44684   6.441  13.310   5.492 -0.1629  0.1789 -0.2900
28424W        W44685  17.165   1.820  12.237  0.1076  0.1461 -0.1712
28425W        W44686   8.584  17.064   1.614  0.3423 -0.2550 -0.0561
28426W        W44687  14.620   2.293   2.075  0.2401  0.1031  0.0386
28427W        W44688  13.647  14.805   0.218 -0.0453 -0.0086  0.3326
28428W        W44689   0.107  14.144  16.953 -0.2968 -0.1879 -0.0420
28429W        W44690   0.937  15.541  11.813  0.2713 -0.1209  0.1602
28430W        W44691   7.282   3.960  13.696  0.2109  0.0705  0.0941
28431W        W44692   0.959   4.040  14.354  0.1793  0.1560  0.1680
28432W        W44693  11.554   0.999   1.770 -0.1706 -0.0263  0.0319
28433W        W44694  10.345   2.935  16.355 -0.0639 -0.2109 -0.1180
28434W        W44695  11.248  12.129   3.782  0.0033 -0.2072 -0.0927
28435W        W44696   5.107  17.523   3.704 -0.1782 -0.1326  0.1555
28436W        W44697   0.628   5.546   3.598  0.2196 -0.0161 -0.2413
28437W        W44698  12.773   3.636   5.892 -0.0393  0.0402  0.1104
28438W        W44699  13.596   1.942   2.028 -0.1164 -0.1313  0.0673
28439W        W44700   8.879   8.654  12.891 -0.4564  0.0286 -0.2413
28440W        W44701   2.160   2.918   1.884 -0.2515 -0.0744  0.0414
28441W        W44702  14.456  10.218   3.143 -0.2433 -0.1464  0.2382
28442W        W44703  16.407  15.966   6.646 -0.0740  0.0930  0.1528
28443W        W44704   0.002  11.776  15.322  0.0101 -0.2183 -0.1221
28444W        W44705   0.226   0.234  10.553  0.1620  0.1439 -0.0065
28445W        W44706   0.907   9.769   3.723 -0.0022 -0.1379 -0.1244
28446W        W44707   9.120   3.099  15.145  0.1559 -0.2656  0.0411
28447W        W44708  15.323   5.429  13.429 -0.2803 -0.0372 -0.1797
28448W        W44709   4.609   9.327   4.499 -0.3691  0.1059 -0.0686
28449W        W44710  15.656   9.491  15.268 -0.0629  0.0291 -0.1163
28450W        W44711  12.550   6.126   2.306  0.0254  0.0988 -0.0486
28451W        W44712  15.805   4.737   1.658  0.1712 -0.2575  0.0069
28452W        W44713   0.179   4.547  14.017 -0.0806 -0.0077  0.0951
28453W        W44714   1.613   7.326   1.170 -0.1484 -0.0476  0.1383
28454W        W44715  13.163   0.204   4.628 -0.1043 -0.1925 -0.0702
28455W        W44716   8.262  11.703   5.411 -0.0568  0.2751 -0.1315
28456W        W44717  16.949   4.115   1.805  0.1614 -0.0272 -0.1950
28457W        W44718   5.463  17.220  12.860  0.1704 -0.2356 -0.0074
28458W        W44719  15.865   1.469   0.145 -0.5513  0.0230  0.0315
28459W        W44720   9.902   9.102  13.610 -0.0250  0.2922  0.0817
28460W        W44721   1.785  14.431  11.748 -0.0366  0.0704  0.2383
28461W        W44722  11.484  12.889   2.485 -0.0806  0.0320  0.2013
28462W        W44723  10.601   8.202  16.648 -0.2567  0.0609  0.0568
28463W        W44724  10.175  11.367   1.826 -0.1707 -0.0391 -0.3212
28464W        W44725   0.492  15.268  14.861  0.2967  0.0268  0.0061
28465W        W44726   1.627   3.821  16.105  0.1805 -0.0205 -0.0356
28466W        W44727   1.566   8.644  12.101  0.0627 -0.1397  0.0275
28467W        W44728   7.112   8.200  16.732  0.0391  0.1198 -0.2195
28468W        W44729   9.219  15.235   4.399  0.2037 -0.1458  0.0254
28469W        W44730   9.451  12.128  12.999 -0.0377  0.0338 -0.3029
28470W        W44731  11.447  11.106  12.291 -0.0269  0.2199  0.2772
28471W        W44732   2.800  17.797  15.265 -0.1546  0.1042  0.4169
28472W        W44733  16.721  13.322  16.886  0.1980  0.2244 -0.0572
28473W        W44734   7.596  17.275   6.002  0.0036  0.0704 -0.0195
28474W        W44735  12.280  15.237  11.024 -0.2137 -0.1450  0.1579
28475W        W44736   2.109   1.146   4.898  0.1606  0.2931 -0.0762
28476W        W44737  17.662   9.985   4.537 -0.0317  0.2934  0.0106
28477W        W44738  15.309  14.081   0.490 -0.2171 -0.1702 -0.0478
28478W        W44739   5.833   0.363   3.241  0.0892 -0.1720  0.3114
28479W        W44740   9.396   5.192   1.719 -0.2321 -0.1155 -0.0967
28480W        W44741   7.017   4.084  16.700 -0.0570 -0.1688 -0.0978
28481W        W44742   6.429  17.433   1.285  0.0038 -0.0254  0.2933
28482W        W44743   5.284  17.131   1.017  0.0274 -0.0567  0.0097
28483W        W44744   5.946   6.572   4.643  0.0469  0.0905  0.2081
28484W        W44745   1.407   8.412   4.246 -0.0679 -0.1331  0.0663
28485W        W44746  15.854  17.419  16.894  0.1192 -0.2445 -0.0423
28486W        W44747   2.386  15.113  15.286 -0.0262 -0.1961 -0.0208
28487W        W44748   2.671   5.215   4.335  0.1535 -0.3063 -0.0056
28488W        W44749  16.635   0.947  16.865 -0.2926  0.0198  0.1148
28489W        W44750   2.419   5.559  16.392  0.0382 -0.2061 -0.0786
28490W        W44751   7.186  15.018   3.253 -0.2393 -0.2187  0.2813
28491W        W44752  12.528  14.435  12.265 -0.3271  0.3205 -0.4262
28492W        W44753   8.660   1.254   2.769  0.0903 -0.0351 -0.1759
28493W        W44754   6.092   7.865   1.905 -0.0244 -0.0651  0.1726
28494W        W44755   9.842  17.339   4.100  0.3646  0.1519 -0.0250
28495W        W44756   1.811   1.131   1.533 -0.1881 -0.1309  0.5035
28496W        W44757   0.376   0.807   4.994 -0.3393 -0.1097  0.0091
28497W        W44758  15.612   0.615  12.877 -0.4309 -0.1473 -0.0302
28498W        W44759  16.104  11.659   5.331  0.0065 -0.1164  0.1637
28499W        W44760  15.354  12.384  12.097 -0.1447 -0.2580 -0.0450
28500W        W44761   0.118  16.497  12.649  0.2534  0.2201 -0.0034
28501W        W44762   1.629  14.413  14.578  0.2486  0.0891  0.0225
28502W        W44763  11.083  10.788  14.158 -0.1787 -0.0477 -0.1773
28503W        W44764  13.665  14.894  15.772  0.0368  0.3264  0.3494
28504W        W44765  17.026  13.889   5.611  0.1864  0.0920  0.0952
28505W        W44766   6.828   0.739  11.227  0.0440  0.1489 -0.1814
28506W        W44767   5.938   5.862   3.484  0.1531  0.0826  0.0599
28507W        W44768   5.768   6.882   5.120  0.1418 -0.0971 -0.1991
28508W        W44769   9.101  17.038   3.368 -0.0857 -0.3947  0.0737
28509W        W44770   7.789   5.298  15.786 -0.0346  0.1201 -0.0764
28510W        W44771  17.225   5.785  14.423 -0.0328  0.1329  0.2307
28511W        W44772   9.241  13.596  13.983 -0.1518  0.1960  0.0789
28512W        W44773  13.648   5.136   4.851  0.1027 -0.1455  0.1569
28513W        W44774   7.623   1.606   6.406  0.4356 -0.0433 -0.0361
28514W        W44775   1.891   8.013  16.049  0.5259  0.2543 -0.2262
28515W        W44776  17.260   7.007  16.487 -0.2308 -0.0724 -0.1138
28516W        W44777   0.752   4.003   1.522 -0.0901 -0.0461 -0.3155
28517W        W44778   1.146   3.315   3.669  0.2189  0.0856  0.2685
28518W        W44779  14.143  17.580  13.969 -0.0058 -0.3840 -0.0763
28519W        W44780   7.844   9.326   0.294 -0.1928 -0.0829 -0.1776
28520W        W44781  15.281  16.957  15.880 -0.0148 -0.0276 -0.4412
28521W        W44782  12.074  14.143  16.191  0.0991  0.4079 -0.1581
28522W        W44783  13.983  13.140  14.008  0.3572 -0.0801 -0.0052
28523W        W44784  16.710   8.104  12.384  0.3463  0.0767  0.0830
28524W        W44785  11.620   6.781   0.491  0.0955 -0.3628 -0.1446
28525W        W44786  12.911   0.567  12.057  0.4309  0.1209  0.1775
28526W        W44787  13.544   8.260   5.431  0.3801  0.2275  0.2880
28527W        W44788   9.296   9.207   4.306  0.1694 -0.2065  0.1605
28528W        W44789  13.901   2.687   3.514 -0.0421  0.2479  0.0308
28529W        W44790   0.383  10.708   6.180 -0.2786 -0.0099  0.0759
28530W        W44791  11.040   6.186   1.359  0.1552  0.1646 -0.0058
28531W        W44792  11.800  14.511  16.947  0.1254  0.0159  0.0981
28532W        W44793   6.658   9.060  12.362 -0.0269  0.0901  0.3226
28533W        W44794  14.232  12.278  12.627 -0.2196  0.0163 -0.0594
28534W        W44795  11.229   6.401  14.147  0.0207  0.0574  0.2684
28535W        W44796   7.695  12.910   5.792  0.0043  0.0102 -0.0031
28536W        W44797   1.246   2.237  13.011  0.0608  0.0522 -0.1484
28537W        W44798   3.532  12.747   5.175  0.0588  0.0492  0.0454
28538W        W44799   1.268  15.268   3.108 -0.0499 -0.0485  0.0873
28539W        W44800  11.197   5.836  11.371 -0.1017 -0.0416 -0.2121
28540W        W44801   5.638   3.521  12.375  0.2497 -0.0031 -0.0548
28541W        W44802   3.446   0.249   4.305  0.1654 -0.1597  0.0060
28542W        W44803  15.971   2.653  14.392 -0.3247 -0.0607  0.1251
28543W        W44804   9.591   8.655  11.226  0.0886 -0.1887  0.2363
28544W        W44805   7.738   4.099  12.104 -0.0050 -0.0857 -0.0338
28545W        W44806  10.386   5.608   3.007 -0.0225  0.1788 -0.1277
28546W        W44807   2.158   2.508  13.385 -0.1026 -0.1018 -0.1229
28547W        W44808  17.227   8.822  12.452  0.4064 -0.1757  0.4201
28548W        W44809  17.479   8.242  15.231  0.0233 -0.1933 -0.1321
28549W        W44810   7.789  15.805   2.746 -0.1459  0.0868  0.0420
28550W        W44811   3.312   6.204  15.333 -0.0352 -0.3249 -0.1113
28551W        W44812   2.235   5.641   0.149  0.0334 -0.0084 -0.1311
28552W        W44813  10.409   4.154  12.553 -0.1435  0.1089  0.1426
28553W        W44814   6.612  14.809  15.982  0.1240  0.4398  0.0459
28554W        W44815   7.305  15.009   4.703  0.1297  0.0123  0.4336
28555W        W44816   6.729   1.593   3.867  0.0937 -0.1673 -0.2072
28556W        W44817   8.685   5.072  13.009  0.1336  0.0069  0.0644
28557W        W44818  15.673  16.061  14.638 -0.1267 -0.0467  0.0279
28558W        W44819  16.186  10.167  16.903 -0.0417  0.2824  0.1669
28559W        W44820   5.451  17.216  14.163 -0.1319 -0.3279 -0.0455
28560W        W44821  11.999   0.676   4.315  0.0527  0.1724  0.3245
28561W        W44822  15.122  15.950   3.262 -0.1282 -0.0281  0.1755
28562W        W44823   5.355   7.082   0.792 -0.3192  0.1384  0.0589
28563W        W44824   0.586   9.987  12.208 -0.1624 -0.2512  0.4691
28564W        W44825   5.630   8.867   4.760 -0.0718  0.3405  0.1085
28565W        W44826   9.634   2.257   0.809 -0.0258 -0.2774  0.1483
28566W        W44827   7.707   4.276   5.266 -0.0506 -0.1369 -0.0521
28567W        W44828   9.654  16.329  16.115 -0.1555  0.2159  0.0772
28568W        W44829   5.202   5.003  12.940  0.0183  0.2354 -0.1741
28569W        W44830  13.128  11.528   4.355 -0.2459  0.0651  0.1817
28570W        W44831  15.942   8.718   1.781  0.1748 -0.2989  0.0175
28571W        W44832   1.996  13.566   3.041 -0.0114 -0.1587 -0.2362
28572W        W44833   9.662  13.146   1.143  0.2719 -0.2485 -0.2424
28573W        W44834   8.177   9.206  16.741  0.3394 -0.1222 -0.1293
28574W        W44835   5.788  17.045   4.413 -0.2549 -0.2523  0.1150
28575W        W44836  12.952   4.788  12.991 -0.2684  0.4438  0.0832
28576W        W44837  11.691  11.758   2.248  0.0049  0.1013  0.0222
28577W        W44838  14.587  12.817   3.466  0.2122 -0.3127  0.1862
28578W        W44839   5.619   3.624   0.368 -0.0547 -0.0324 -0.3672
28579W        W44840  11.608   6.289   1.231  0.0430 -0.0271 -0.2942
28580W        W44841   5.687  14.329   1.579  0.0209 -0.1236 -0.2685
28581W        W44842   6.959   1.300   4.681  0.0678 -0.1699  0.1758
28582W        W44843  14.757   3.462   5.214  0.0617 -0.3438 -0.0260
28583W        W44844   9.498   3.927  16.068  0.0281 -0.2107  0.1288
28584W        W44845  10.046  16.955   4.293  0.3167 -0.0403 -0.0981
28585W        W44846   2.511   7.519  11.960 -0.0189  0.0983  0.0571
28586W        W44847   5.756  13.706   4.730  0.1597  0.1104  0.3852
28587W        W44848  11.836   5.817  12.745  0.1344  0.4422 -0.1624
28588W        W44849   6.375  11.913  13.547  0.1057 -0.0042  0.0992
28589W        W44850   7.938  12.402  16.942  0.1458  0.0118 -0.0312
28590W        W44851   0.654  13.514  13.317 -0.0525 -0.1493  0.1134
28591W        W44852   4.419   4.375  16.866 -0.0934 -0.2429 -0.1996
28592W        W44853   5.300  10.724  16.684 -0.3409 -0.2589 -0.2302
28593W        W44854  13.710   3.620   2.039 -0.1785 -0.0972  0.3225
28594W        W44855   7.741   2.618  13.398 -0.0495 -0.4471 -0.0648
28595W        W44856   5.606   3.793   4.479  0.3038 -0.0959 -0.2607
28596W        W44857   7.145   4.253   6.079 -0.1623  0.0466 -0.0125
28597W        W44858  17.698   6.812  16.404 -0.0246  0.0436  0.2199
28598W        W44859   5.182  12.173   3.434  0.3549  0.2229 -0.1963
28599W        W44860   8.986  15.031   3.302  0.0181 -0.0040 -0.1261
28600W        W44861   2.799   4.166   6.040 -0.0831  0.3034  0.4504
28601W        W44862  13.785   4.247  16.067  0.0745  0.0381 -0.0538
28602W        W44863  15.511   2.168  15.758  0.1927  0.2255  0.0347
28603W        W44864  15.451   9.566  11.939  0.0752  0.1332 -0.0030
28604W        W44865  11.424  13.570   1.525  0.1396  0.0148 -0.2409
28605W        W44866   2.991  12.673   0.750  0.1328  0.0265 -0.0257
28606W        W44867   6.168   9.469   2.756  0.0136  0.1484 -0.2742
28607W        W44868   8.423  15.559   4.605 -0.2452  0.2135  0.1196
28608W        W44869   0.729  12.145   1.899  0.4077  0.2323 -0.1125
28609W        W44870  11.768  10.753   1.202 -0.1356  0.1449 -0.3594
28610W        W44871  17.709   7.421  12.364 -0.2451 -0.0784  0.3880
28611W        W44872  12.680   6.007   0.683  0.1491 -0.3319  0.0966
28612W        W44873   8.974  14.020  14.294 -0.0973 -0.1462  0.0178
28613W        W44874  10.508   7.720   5.327 -0.0420 -0.0318 -0.0929
28614W        W44875  12.147  17.588  14.916  0.0150 -0.0180  0.0807
28615W        W44876  13.487  14.255   5.424 -0.2214  0.2794 -0.0566
28616W        W44877   8.887  11.114  15.492  0.0974  0.2111 -0.0735
28617W        W44878  15.283   3.013  15.979  0.1980  0.1539 -0.0843
28618W        W44879  12.890   4.413   4.349  0.2023  0.0418 -0.1512
28619W        W44880   4.908   4.434   4.099  0.4118 -0.0097 -0.2108
28620W        W44881   6.788   6.823   5.658  0.0768 -0.0963 -0.2566
28621W        W44882   1.003  16.554  13.261 -0.0890  0.1557  0.0793
28622W        W44883  17.453   7.522  13.265 -0.2839  0.0709 -0.2131
28623W        W44884  14.757   2.223   0.475 -0.4059  0.4090  0.0108
28624W        W44885  15.365   8.004  15.697  0.0216 -0.0363 -0.2036
28625W        W44886   2.718   3.574   4.639 -0.1714 -0.0501  0.1023
28626W        W44887   8.308   5.884  12.831  0.0263  0.1131  0.1295
28627W        W44888   0.353   9.939   2.442 -0.0874 -0.0781  0.2347
28628W        W44889  12.377   9.355  12.988  0.1074 -0.4218  0.2469
28629W        W44890   6.927  10.858  14.035  0.2049  0.2216 -0.2619
28630W        W44891   3.357   8.255  15.378  0.3691  0.2403 -0.0283
28631W        W44892   0.759   1.742  12.444  0.2001 -0.2111  0.0039
28632W        W44893   3.519   8.331  16.349 -0.2826  0.1922  0.0634
28633W        W44894  13.455  14.303   2.817 -0.5057  0.2476 -0.0311
28634W        W44895  16.468   4.568  12.967  0.0843 -0.0025  0.1071
28635W        W44896  14.239  10.357   0.500  0.0847  0.3196  0.0715
28636W        W44897   0.266   2.090   4.155  0.2074 -0.2542 -0.1142
28637W        W44898  12.851   8.375   1.712  0.0677 -0.4241 -0.1778
28638W        W44899   0.910   4.837   3.999  0.2594  0.2097  0.0695
28639W        W44900   6.022  12.682   6.071 -0.0251 -0.0220  0.3486
28640W        W44901  15.831   8.644   4.653 -0.1313 -0.0554  0.2502
28641W        W44902   6.463  15.884   1.264  0.0704  0.1952  0.0764
28642W        W44903   9.389  13.265   2.884 -0.0079  0.2084 -0.1957
28643W        W44904  17.581  16.565   1.241 -0.2719  0.0569 -0.2304
28644W        W44905   5.508   9.656   0.264  0.0379 -0.0362 -0.1481
28645W        W44906  16.441   9.156  15.609 -0.0038  0.1467  0.0926
28646W        W44907   3.867  14.309   1.932 -0.2322  0.2542  0.3658
28647W        W44908   4.291  12.015   3.493  0.3672  0.0988  0.0591
28648W        W44909  17.693  10.421  12.882 -0.0031  0.1798  0.1300
28649W        W44910   4.679  14.894  15.408 -0.2444  0.4202 -0.1985
28650W        W44911   8.406  13.733   2.352  0.1706  0.2202 -0.2053
28651W        W44912   4.539  16.920   1.261  0.1463 -0.0085  0.0869
28652W        W44913  10.674  13.039  16.285  0.1142  0.1399 -0.2131
28653W        W44914   1.647   4.363   0.312 -0.2663  0.0321 -0.1861
28654W        W44915  11.668   5.262   2.917 -0.1912  0.0214 -0.3445
28655W        W44916  10.291   8.195   3.904  0.1235  0.2907  0.0529
28656W        W44917   5.083  11.204  16.862  0.2046  0.1854 -0.0281
28657W        W44918  15.537  17.403  12.260  0.3220 -0.1812 -0.0525
28658W        W44919  15.751   6.541  14.022 -0.3949 -0.1064  0.2604
28659W        W44920   4.430   8.867   3.259  0.3596  0.2971 -0.1894
28660W        W44921  10.141  17.287  12.048  0.1988  0.2035 -0.0799
28661W        W44922  14.983   0.073   5.195  0.0103 -0.0322  0.0159
28662W        W44923  11.959   5.879  13.940  0.3667  0.1591 -0.0356
28663W        W44924   5.376   1.869   5.385 -0.2628  0.0402  0.1734
28664W        W44925   3.295  10.387  16.858  0.2676  0.1289  0.3361
28665W        W44926   8.695  10.622  15.736  0.1127 -0.2879  0.1435
28666W        W44927   2.404   7.811   3.351 -0.0385 -0.1737  0.0509
28667W        W44928   3.094  14.245  15.994 -0.0547  0.1320  0.1265
28668W        W44929  16.846   9.594  14.348  0.1165 -0.0330  0.1140
28669W        W44930   6.438  13.108   0.590 -0.2998 -0.1541 -0.0606
28670W        W44931   3.533   4.192  15.364  0.2116  0.2637  0.0351
28671W        W44932  10.474  15.308   4.340  0.0686  0.1156  0.2114
28672W        W44933   0.379  13.373   4.199  0.2151 -0.0470 -0.0088
28673W        W44934   6.680   0.723  15.386 -0.0491  0.0195 -0.2687
28674W        W44935  16.251  10.672  13.723  0.1287  0.0045  0.1607
28675W        W44936  10.759  10.072   5.369 -0.1418  0.1013  0.0824
28676W        W44937   8.469  16.060  12.562 -0.0421 -0.2882 -0.1698
28677W        W44938  11.731   3.061   1.994  0.0636 -0.0605  0.0076
28678W        W44939  17.673  14.953  13.342 -0.1512 -0.0739  0.2170
28679W        W44940   1.703  10.988  16.867  0.2304 -0.0933  0.0575
28680W        W44941  14.926  16.179   1.152 -0.1597 -0.0530  0.0669
28681W        W44942   8.556   1.900  13.957 -0.1539 -0.0047  0.2150
28682W        W44943  11.617   7.216  15.846 -0.0998  0.1974 -0.0807
28683W        W44944  15.225  12.507   5.037 -0.1287  0.1369 -0.2938
28684W        W44945  17.164  14.270  14.418 -0.2195 -0.4264 -0.0561
28685W        W44946   6.296  12.209   3.347 -0.1553  0.2576 -0.1325
28686W        W44947   2.807  17.540   4.844 -0.1630 -0.0092 -0.2279
28687W        W44948   9.942  17.588  16.538 -0.0855  0.0319  0.0980
28688W        W44949  13.263  13.731   5.683  0.0898 -0.0634 -0.0231
28689W        W44950   1.073   0.067   1.088  0.3604 -0.4407  0.1218
28690W        W44951  11.999  14.442  14.499 -0.0562  0.2269 -0.0526
28691W        W44952   2.010   9.008  14.791  0.0115 -0.0144 -0.1860
28692W        W44953  11.589  17.442  12.786 -0.1834 -0.2063  0.0031
28693W        W44954   8.874  12.547  12.455 -0.1085 -0.0882  0.5603
28694W        W44955   6.355   4.108  14.243 -0.0105  0.0726 -0.0097
28695W        W44956  12.744   7.056   3.591  0.0957  0.0768  0.3435
28696W        W44957   6.579  16.276   3.170 -0.3059  0.1573 -0.0472
28697W        W44958   6.395   0.647   4.704  0.0367 -0.0777  0.2097
28698W        W44959  10.642  13.102  13.837 -0.1998  0.0516 -0.1677
28699W        W44960  17.598  12.877  13.782  0.4814 -0.3528  0.0032
28700W        W44961   6.170  13.157   4.385 -0.0764 -0.0428 -0.1675
28701W        W44962   0.426  11.867   3.508 -0.2858 -0.0032  0.0900
28702W        W44963   3.679  15.624   4.981  0.0409  0.2903 -0.2936
28703W        W44964   4.438   0.559   0.452 -0.1966 -0.2296 -0.0085
28704W        W44965   0.072   6.841  15.156  0.0647  0.0724  0.0981
28705W        W44966   6.128   9.277   1.924  0.1698  0.2283  0.4130
28706W        W44967   2.799   3.275  16.203  0.0579  0.1685  0.0508
28707W        W44968   6.904   1.864   2.402  0.0575  0.0145  0.2290
28708W        W44969  10.076  11.524  14.736  0.1451  0.1056  0.0328
28709W        W44970  11.215   4.562  15.136 -0.0196  0.0757 -0.0286
28710W        W44971   5.270   1.221   2.397  0.2411  0.0832 -0.0274
28711W        W44972  16.451  15.298   1.875  0.0413  0.0716  0.1160
28712W        W44973  12.280   2.745   0.250 -0.2334 -0.0518 -0.0938
28713W        W44974   4.634  11.311   3.799  0.0050 -0.1317 -0.1007
28714W        W44975   1.250  15.810   4.663  0.0294 -0.2756  0.1021
28715W        W44976  15.416  15.159  14.967 -0.0363  0.0934  0.2366
28716W        W44977  17.128  11.807   6.615  0.0133 -0.1882 -0.0698
28717W        W44978   3.217   8.291  15.887  0.1193  0.0148 -0.3260
28718W        W44979   2.711   9.859  12.142  0.1275  0.2546 -0.1100
28719W        W44980   4.874   4.028   3.781  0.0906 -0.0639  0.0385
28720W        W44981   8.657  13.662   4.153 -0.2869 -0.0365  0.2803
28721W        W44982   1.093  17.445  16.982 -0.0894 -0.2704  0.1496
28722W        W44983   1.163   8.052  14.877 -0.0594  0.0390  0.3090
28723W        W44984   3.660   4.562   1.638  0.0802 -0.0541 -0.1612
28724W        W44985  12.356   5.605   1.595 -0.0252  0.1820 -0.3775
28725W        W44986   1.420   8.075   6.222  0.0955 -0.0179  0.0195
28726W        W44987   1.346   0.495   3.919 -0.2635 -0.3738  0.1457
28727W        W44988   3.796   3.902  13.782  0.0070 -0.0430 -0.1092
28728W        W44989  14.536   8.007   1.219 -0.0341  0.1648 -0.0374
28729W        W44990  13.696  11.898  12.124 -0.1006  0.0854 -0.0646
28730W        W44991  11.661   9.815  13.970 -0.0537  0.0580  0.0775
28731W        W44992  10.419   8.052  15.639 -0.1428 -0.4570 -0.0196
28732W        W44993   4.184  10.788  12.176 -0.3288 -0.0503 -0.0190
28733W        W44994  11.287  11.839  12.680  0.2079 -0.0051 -0.1445
28734W        W44995   9.628  10.029  12.254 -0.1131  0.2192  0.1043
28735W        W44996  11.368   8.660  16.676 -0.0235 -0.0901  0.1341
28736W        W44997   2.732  14.239  13.794  0.0646 -0.0273  0.2692
28737W        W44998  13.190   3.070  15.006 -0.3484 -0.2304 -0.1597
28738W        W44999  15.273  10.219  15.111 -0.1680  0.1059  0.0342
28739W        W45000  11.029  13.808   3.447  0.3250 -0.1653 -0.1850
28740W        W45001  14.752   0.620  16.878 -0.3630  0.1230  0.1646
28741W        W45002  15.812   0.016   4.964 -0.2149 -0.0213  0.1756
28742W        W45003  12.694  14.009  14.007 -0.0968 -0.0347 -0.0771
28743W        W45004   8.939   7.794  15.397 -0.0216  0.0277  0.0415
28744W        W45005   7.112  14.575   4.017  0.0747 -0.2959 -0.2504
28745W        W45006   1.267   7.578   4.450  0.0698  0.2782 -0.1616
28746W        W45007  16.404   6.679  15.892 -0.2816  0.0808 -0.2034
28747W        W45008   9.940  13.348   1.921 -0.0608  0.0947 -0.2263
28748W        W45009   2.930   5.069  12.485  0.3011 -0.1265 -0.2432
28749W        W45010  12.680  12.384  16.023 -0.1830  0.2580  0.0822
28750W        W45011   0.750  16.752   0.970 -0.0560 -0.0677 -0.2915
28751W        W45012   0.969  15.032   4.251 -0.1800  0.1755  0.1271
28752W        W45013   4.051  14.961  12.697 -0.1527  0.2516 -0.2394
28753W        W45014   1.760  12.802  12.699 -0.0657 -0.1494 -0.3350
28754W        W45015   0.735  13.565  11.896  0.0341 -0.0547  0.1063
28755W        W45016  10.585  12.819   2.078 -0.2299 -0.0643 -0.1020
28756W        W45017   0.608   9.809   0.352  0.0380  0.2239  0.1632
28757W        W45018  16.160  15.114   4.514  0.2332  0.0521 -0.0888
28758W        W45019   7.960   7.334   1.280  0.1480 -0.2144  0.0191
28759W        W45020   7.824  10.712   1.314  0.1388  0.2280 -0.0787
28760W        W45021   6.560  15.901  16.052 -0.1040 -0.0306  0.2759
28761W        W45022  16.460   9.250  14.334 -0.2087  0.2818 -0.0024
28762W        W45023   4.589   1.442  15.399 -0.0882  0.1435  0.2791
28763W        W45024   9.691   8.716  11.734 -0.2855  0.1679 -0.0109
28764W        W45025   4.754   8.677  13.271 -0.2947 -0.0581  0.0001
28765W        W45026   9.089   2.756   1.315  0.0885 -0.0838 -0.1039
28766W        W45027   8.878  12.630   6.362 -0.1132  0.0312  0.2757
28767W        W45028  12.285   9.395  15.964  0.1477 -0.1195 -0.0303
28768W        W45029   9.298   4.928   3.751 -0.0613 -0.0041  0.1444
28769W        W45030   9.033   1.417  13.228  0.0413  0.0814  0.1205
28770W        W45031  17.414   9.256  12.662 -0.1839 -0.0128  0.1042
28771W        W45032  10.505   3.458   2.298  0.0355 -0.1645  0.0456
28772W        W45033  12.134  16.141   0.021  0.1091 -0.3644  0.3201
28773W        W45034  16.696   8.877   4.529  0.3944 -0.0942 -0.2278
28774W        W45035  11.536  17.280   0.265  0.0239 -0.3010 -0.1343
28775W        W45036   1.196  15.640   1.381 -0.1713 -0.0692  0.2566
28776W        W45037  13.968   9.236   4.577  0.2021 -0.2070 -0.0606
28777W        W45038  14.751   7.799   2.892 -0.1724 -0.2982  0.1054
28778W        W45039   7.627  16.300   5.805 -0.1600 -0.2950 -0.1924
28779W        W45040  14.120   3.706   4.739  0.0028  0.2953 -0.0485
28780W        W45041  13.122   6.089   3.781  0.0431  0.0071  0.1196
28781W        W45042   5.066   3.020   0.752  0.0243 -0.0564 -0.1373
28782W        W45043   5.240  15.676  12.570  0.1725  0.1054  0.1364
28783W        W45044  17.682  11.254  12.276 -0.0133  0.0321 -0.1196
28784W        W45045  13.225  10.090   1.663 -0.2940  0.0351  0.0165
28785W        W45046  14.032  11.182  13.073 -0.2557  0.1822 -0.1482
28786W        W45047  10.145   1.193   0.040 -0.1323  0.2774  0.1038
28787W        W45048   3.428   5.298  13.622  0.2222 -0.1148 -0.0868
28788W        W45049   5.604  10.133  12.216 -0.0232  0.2402 -0.0724
28789W        W45050  17.345  12.068  11.914  0.1316 -0.0147 -0.1023
28790W        W45051  16.641   2.143  14.483 -0.2967  0.3785  0.0813
28791W        W45052   5.152   5.739   3.983  0.2768 -0.0286 -0.2702
28792W        W45053  11.217  13.538   2.007 -0.2708 -0.1819  0.1467
28793W        W45054   2.522   3.785  15.601  0.1527 -0.2607  0.1042
28794W        W45055   3.631  14.845  12.897 -0.2004 -0.1046  0.2391
28795W        W45056   1.556  11.769  11.852 -0.0026  0.2581  0.1351
28796W        W45057  11.203   5.713   1.891  0.1035  0.2210  0.1584
28797W        W45058  10.282   3.432  16.220 -0.0055 -0.0645 -0.1513
28798W        W45059  17.554   2.158  13.367  0.0553  0.0061  0.0415
28799W        W45060   7.626   1.695   5.807 -0.0443 -0.0209  0.2546
28800W        W45061   4.841   5.406   4.447 -0.3372  0.0851  0.0462
28801W        W45062   7.045   9.091   2.373  0.0114 -0.1489 -0.1457
28802W        W45063   1.701  10.752  15.113 -0.0096  0.0326  0.2301
28803W        W45064  12.737  14.592  14.182 -0.1020  0.0800  0.0191
28804W        W45065  14.445  13.698  15.531  0.1004 -0.0504 -0.3415
28805W        W45066   4.179  15.393   6.368  0.1562 -0.1290  0.0359
28806W        W45067  11.265   0.828  13.452 -0.0568 -0.2310 -0.0976
28807W        W45068  17.008   5.084   2.740 -0.0184  0.0207 -0.1647
28808W        W45069  11.703   9.025  14.247  0.0360  0.0102  0.0185
28809W        W45070   9.462  10.773   4.575 -0.1634 -0.1219 -0.1283
28810W        W45071  15.858  16.613  13.953  0.0769  0.1265  0.4161
28811W        W45072  17.344   3.253   3.881 -0.0548  0.0267  0.0162
28812W        W45073  17.474   8.688   2.139  0.0273 -0.0048 -0.2619
28813W        W45074   0.708   6.541  16.329 -0.1990  0.0531  0.3522
28814W        W45075  11.030   4.049  14.398 -0.1686 -0.1662  0.3231
28815W        W45076   8.137   1.013   5.258  0.1726 -0.1024 -0.2791
28816W        W45077   4.557   4.028   1.812  0.0291  0.3332 -0.0118
28817W        W45078   8.898   4.312   2.030  0.1742 -0.1070 -0.1888
28818W        W45079   8.362   2.708   3.249  0.3598  0.0155  0.0637
28819W        W45080  12.748  11.710   5.108 -0.0284 -0.0239 -0.0909
28820W        W45081   1.337   6.483  14.008 -0.3415  0.1882  0.2242
28821W        W45082   5.211   7.793  13.307  0.0611  0.1736 -0.0064
28822W        W45083   3.401  15.650  13.358 -0.1640 -0.2205  0.1354
28823W        W45084  16.157  12.221   1.184 -0.1474  0.2616 -0.0094
28824W        W45085   3.710   1.030  11.424 -0.1657 -0.0836  0.2540
28825W        W45086  12.282   0.481  15.566  0.0956  0.1198  0.0736
28826W        W45087  16.080   2.079  15.190 -0.2732  0.1292 -0.0149
28827W        W45088  12.668  10.685   1.395  0.0956 -0.0543  0.2421
28828W        W45089  17.745  11.365   0.073  0.1507 -0.1009  0.0826
28829W        W45090   8.670   5.870  13.628 -0.1208 -0.1853  0.0199
28830W        W45091  11.991   9.181   0.747 -0.1555 -0.0265 -0.3498
28831W        W45092   4.298  14.466  13.421 -0.1365  0.1819  0.1234
28832W        W45093   6.172  10.285   5.224 -0.3316 -0.2400 -0.1394
28833W        W45094   6.563   8.446   0.708  0.2030 -0.0244  0.1960
28834W        W45095   8.861  12.062  12.526  0.2288 -0.1195 -0.0444
28835W        W45096  14.534   1.339  16.129 -0.1371  0.1784  0.0270
28836W        W45097   7.162   5.543  14.457 -0.2324 -0.0105 -0.2274
28837W        W45098   5.402   3.683  16.036 -0.2238 -0.2180 -0.0189
28838W        W45099  17.094  17.246  13.292 -0.2530  0.0337  0.1102
28839W        W45100   8.028   8.685  12.373  0.0262 -0.0259 -0.0686
28840W        W45101  13.402   6.137  16.191  0.1493 -0.2423 -0.1724
28841W        W45102   3.709   5.132  16.859 -0.0418  0.0700 -0.0074
28842W        W45103  12.409  12.115  12.979  0.0089 -0.3301 -0.2571
28843W        W45104  16.473  14.514   0.405 -0.3969  0.1105 -0.0148
28844W        W45105   3.227   8.598  14.611 -0.0318 -0.0929 -0.0716
28845W        W45106  16.921  12.411   4.429 -0.1474 -0.3078 -0.0024
28846W        W45107   4.212   6.790   2.565  0.1826 -0.3130 -0.0390
28847W        W45108   6.733   4.311   4.985  0.0454 -0.0819  0.1602
28848W        W45109   9.267   5.112  13.318  0.0942  0.2960 -0.0704
28849W        W45110  17.429  13.614   5.630 -0.0003  0.0160 -0.1501
28850W        W45111   5.213   6.214  14.525  0.1637  0.0121  0.1479
28851W        W45112  11.660  16.061  15.359  0.0769  0.2423  0.0497
28852W        W45113  12.158  14.813   0.110  0.1239  0.4753  0.0463
28853W        W45114  11.792   5.578   4.391  0.0801  0.2316  0.2593
28854W        W45115   9.386   6.439   1.332  0.2939  0.1402 -0.1664
28855W        W45116  14.435   6.779  14.098 -0.0461 -0.0271 -0.2194
28856W        W45117   0.780   7.855  12.144 -0.2782  0.0080  0.0340
28857W        W45118   5.831   3.572   4.084 -0.3657  0.0043 -0.1825
28858W        W45119   4.217   5.808   1.683  0.0003  0.1499 -0.0114
28859W        W45120   2.285   5.095  15.122 -0.0056  0.0436  0.3692
28860W        W45121  10.174   4.697   0.812 -0.2647  0.0956 -0.2800
28861W        W45122  11.146   9.704   4.134 -0.1564  0.1971 -0.0076
28862W        W45123  16.059   8.362   4.257  0.2874  0.1380 -0.1207
28863W        W45124  10.907   8.814   4.483 -0.1492 -0.0230 -0.3246
28864W        W45125  17.388   0.029   3.078  0.1265  0.0483  0.2423
28865W        W45126   0.049   6.635  14.680 -0.0262 -0.0879  0.0138
28866W        W45127   7.634  17.570  14.003  0.1042 -0.1240  0.3830
28867W        W45128  12.393   4.048   1.227  0.0264 -0.0203 -0.0365
28868W        W45129  11.569  12.528  12.092 -0.0516 -0.0655  0.1898
28869W        W45130   7.697  10.375  16.923  0.1040  0.1368  0.3733
28870W        W45131   5.180  10.310  15.477 -0.2729 -0.1899 -0.0876
28871W        W45132   8.483   7.094  11.469 -0.3407  0.0062 -0.4375
28872W        W45133  16.406  17.296  12.013 -0.2347  0.1754  0.2427
28873W        W45134  13.787   6.573  13.287 -0.5314  0.1436 -0.0252
28874W        W45135   8.545  17.377  14.075 -0.1526  0.0492  0.0122
28875W        W45136  10.172   3.061   0.740  0.0288 -0.4040  0.0657
28876W        W45137   2.021   5.999   4.975  0.1768 -0.2690  0.0216
28877W        W45138  12.146  12.744  12.821  0.2865 -0.1551 -0.1186
28878W        W45139  15.424   6.550   3.963 -0.0115  0.2366 -0.0760
28879W        W45140  14.636  17.215   1.115 -0.0824  0.1109 -0.4366
28880W        W45141  13.507   0.093   0.668 -0.3477 -0.0850 -0.0363
28881W        W45142  15.602   1.671   2.281 -0.1442 -0.0009 -0.1552
28882W        W45143  17.185   1.414   4.083  0.2047  0.3077  0.0294
28883W        W45144  13.699  17.205  10.678 -0.4005  0.1759  0.0166
28884W        W45145   3.631   2.057   3.070 -0.1436  0.0682  0.1293
28885W        W45146   9.578  15.298   3.422  0.0861  0.2522 -0.1481
28886W        W45147   8.830  11.026  16.007 -0.1270 -0.1785  0.3935
28887W        W45148   1.096   4.345   2.683 -0.0814  0.1914 -0.2188
28888W        W45149   2.834   9.547  12.643 -0.2373  0.2542  0.0690
28889W        W45150   4.469   8.089  12.531  0.0683 -0.1620 -0.1533
28890W        W45151   9.088  12.506   3.398 -0.0752  0.1816 -0.0338
28891W        W45152   4.996  16.395  15.341 -0.1256  0.0140 -0.1775
28892W        W45153   0.726  16.482   1.389  0.0479 -0.2560 -0.1901
28893W        W45154   7.677  16.747   1.448  0.1325  0.2179 -0.1775
28894W        W45155   6.967  12.071   4.173 -0.2615  0.1049 -0.0761
28895W        W45156   2.312   5.325  15.527 -0.1235  0.0471 -0.1093
28896W        W45157  16.907  13.999  16.518  0.2452  0.0586  0.1602
28897W        W45158   5.574  11.081  16.117 -0.0104 -0.1558  0.3792
28898W        W45159   6.992   4.340  12.935 -0.2115  0.0602  0.3896
28899W        W45160  11.652  12.704  14.171  0.1265 -0.1806  0.0959
28900W        W45161  13.629   9.235   2.529  0.0969 -0.0035  0.1210
28901W        W45162   1.740   6.867  15.458 -0.1472 -0.1481  0.0166
28902W        W45163   9.356   8.789  15.446 -0.1863 -0.1620  0.0156
28903W        W45164   1.529   1.306   3.349 -0.0785 -0.0512  0.1398
28904W        W45165  12.439  16.279   0.772  0.0609 -0.3033  0.3366
28905W        W45166  10.014  17.420   0.532 -0.1039  0.2881  0.1377
28906W        W45167   9.051  11.443  13.158 -0.1478  0.2180 -0.1036
28907W        W45168  11.692   8.933  13.335 -0.2049 -0.2168  0.4106
28908W        W45169  17.115  14.118   0.107  0.0156  0.0882 -0.2603
28909W        W45170  15.375   6.517  12.946  0.1298  0.1061 -0.0119
28910W        W45171  10.192  15.573   2.636 -0.3285  0.1150 -0.1649
28911W        W45172   4.343   3.812   5.394  0.0184  0.0867 -0.0120
28912W        W45173   5.479   0.409   0.910  0.1343 -0.4084  0.2170
28913W        W45174   2.363  17.526   4.683 -0.3729 -0.2315  0.3165
28914W        W45175  16.639  14.898   3.579  0.2096 -0.3204 -0.2136
28915W        W45176  12.519   6.455  16.065  0.2987 -0.2614  0.3401
28916W        W45177  15.377   7.200  15.881 -0.0913  0.0489 -0.2047
28917W        W45178   5.522  14.513  15.973 -0.1555  0.1844  0.0933
28918W        W45179  10.016  16.090   4.727  0.1232 -0.0283  0.0810
28919W        W45180  13.203   2.104   2.859  0.0762  0.2409 -0.1819
28920W        W45181   8.674   5.103   0.013  0.0582 -0.0327 -0.0887
28921W        W45182   7.014  13.661  16.448 -0.1921  0.2507 -0.0663
28922W        W45183   9.131   6.704  13.944  0.2929  0.2531 -0.1017
28923W        W45184   1.909  13.998  13.436  0.2614  0.2486 -0.1540
28924W        W45185   5.304  14.013   2.598  0.1268  0.0303  0.1775
28925W        W45186  14.620  17.017  16.721 -0.0935 -0.2182 -0.1550
28926W        W45187   5.924  15.241   2.871 -0.0706  0.1505 -0.0905
28927W        W45188   0.028   4.530  16.466  0.0634 -0.2686  0.3070
28928W        W45189   7.501   5.883  12.204  0.0608 -0.0844  0.0486
28929W        W45190   4.738   1.591  15.915  0.2566 -0.0466 -0.0546
28930W        W45191   2.767   0.063   0.427 -0.3022  0.1638  0.0668
28931W        W45192   6.882   1.794  12.005  0.1774  0.4163 -0.1354
28932W        W45193   6.303  11.093   4.750 -0.0815 -0.2645  0.1115
28933W        W45194  12.372   6.259  11.222  0.0049  0.0100  0.0847
28934W        W45195   0.756  10.014   3.314  0.1657  0.0428 -0.2664
28935W        W45196   9.987   5.983  14.705  0.0120 -0.2845 -0.0535
28936W        W45197   5.998  11.019  14.537 -0.0339  0.3592 -0.1491
28937W        W45198   2.125   6.560  12.855 -0.1555 -0.0140  0.1545
28938W        W45199   2.103   0.531  13.749  0.1344  0.1977  0.3173
28939W        W45200   3.487  13.648   0.147  0.1696 -0.0920 -0.1138
28940W        W45201   7.162   0.794  13.513 -0.0580  0.1076  0.1592
28941W        W45202   9.434   7.297   0.185  0.1866  0.1179 -0.2744
28942W        W45203   8.067  11.034   0.457 -0.0236 -0.1766  0.1924
28943W        W45204   1.289  16.031   0.586 -0.0566  0.2257 -0.1712
28944W        W45205   6.987   0.263  13.479  0.1792  0.1082  0.1106
28945W        W45206  12.477   3.206  16.545  0.0387 -0.1126 -0.1477
28946W        W45207   4.520   8.597   0.441  0.1700  0.0848 -0.1824
28947W        W45208  15.044  16.603   6.009  0.1586 -0.0780 -0.1291
28948W        W45209  13.066   6.869  15.538  0.2566 -0.3456 -0.0158
28949W        W45210  10.874  12.201   2.250  0.1795 -0.1089 -0.2186
28950W        W45211   6.274   4.331  12.737  0.0511 -0.1841  0.2871
28951W        W45212   4.043   6.079  16.820 -0.1780  0.3805  0.0007
28952W        W45213   8.378   4.708   4.563  0.1945 -0.0988  0.1621
28953W        W45214  16.030   3.329   4.555  0.1277 -0.1968 -0.0873
28954W        W45215  13.348   1.213  13.488  0.0411 -0.2042  0.1860
28955W        W45216  10.730  10.394  13.344 -0.2120 -0.1583  0.2169
28956W        W45217   3.675   2.113  13.594  0.0571  0.2356 -0.0674
28957W        W45218  14.465  13.158   2.398  0.2511 -0.2015 -0.1666
28958W        W45219   9.917   7.763   4.143 -0.0102 -0.0400 -0.0442
28959W        W45220   2.861   2.745   5.130 -0.0552 -0.0868  0.0798
28960W        W45221  14.348   9.596   2.816  0.0655  0.0672  0.0484
28961W        W45222  17.686  12.493   3.686  0.1126  0.0141  0.2311
28962W        W45223  14.271   5.281   3.207 -0.0244  0.0681  0.2700
28963W        W45224   1.183   1.848  12.063  0.0182  0.0026  0.2114
28964W        W45225  14.248   4.523   5.187  0.2678  0.0671 -0.0323
28965W        W45226  10.383   9.097  13.662  0.0066  0.3438  0.1847
28966W        W45227   2.626  14.111  15.069 -0.0248  0.3127 -0.2010
28967W        W45228  14.554  10.311   4.160  0.2660  0.0096  0.0341
28968W        W45229  14.172   0.227  16.289  0.4463  0.4149 -0.0240
28969W        W45230  15.559  14.096  14.279  0.0698 -0.1770  0.0154
28970W        W45231  12.146   4.420   3.494 -0.0548 -0.1380  0.0773
28971W        W45232  17.362  11.321   4.988  0.4195 -0.1757  0.0524
28972W        W45233   7.223   6.651  13.155  0.2573 -0.2509 -0.2120
28973W        W45234  13.235  12.668   0.852 -0.1124  0.1472  0.0198
28974W        W45235  16.672   5.914  13.286  0.0478  0.0538 -0.1329
28975W        W45236   6.554  15.895   0.623 -0.0667  0.2821 -0.1243
28976W        W45237   1.085  17.574   3.320  0.1180 -0.0474 -0.2356
28977W        W45238  12.721   3.765   5.107  0.0366  0.3726  0.2119
28978W        W45239  14.474   0.501   2.238  0.0178  0.0192  0.3315
28979W        W45240   1.446   2.826   2.220  0.2320 -0.1011  0.0510
28980W        W45241   2.287   6.544   6.212 -0.1207  0.2544  0.3676
28981W        W45242   7.405   2.325   0.392 -0.2292 -0.0584  0.0578
28982W        W45243  12.062  10.617   2.826  0.0606 -0.0693  0.0812
28983W        W45244   5.437  14.203  14.769 -0.0847  0.1255  0.0740
28984W        W45245  14.140  14.744   0.785  0.0098  0.0728 -0.0141
28985W        W45246   9.210   5.064  13.792 -0.1079  0.0016 -0.1278
28986W        W45247   8.031  14.059   0.121 -0.1851  0.2310  0.4172
28987W        W45248  14.425   7.949  13.704 -0.2361  0.0480  0.2800
28988W        W45249   2.699  12.186   0.261  0.1120 -0.0614 -0.0813
28989W        W45250   2.722   3.058  11.788 -0.1434  0.0335 -0.1697
28990W        W45251   1.422   3.726   0.959  0.0920  0.3574 -0.0636
28991W        W45252  13.907   4.369   1.414 -0.4985 -0.1640 -0.0683
28992W        W45253   5.961   8.136   5.134 -0.0344 -0.1706 -0.4774
28993W        W45254   5.721   4.820   1.676 -0.3533  0.0361 -0.0718
28994W        W45255  17.138  16.544  16.329  0.2204  0.2040  0.1676
28995W        W45256  13.517  13.661  14.935 -0.1160  0.1867  0.0323
28996W        W45257   2.985   2.338  14.630  0.3839 -0.0546  0.2010
28997W        W45258  16.763   5.313  16.778  0.0617 -0.2682 -0.1116
28998W        W45259   3.650   4.516   2.748 -0.1569 -0.0201 -0.0632
28999W        W45260   7.302   7.377   1.060 -0.2209 -0.0996  0.2353
29000W        W45261  17.231  12.953   2.780  0.0676  0.0086  0.0513
29001W        W45262  16.042  13.107  12.329  0.0574  0.1881  0.2866
29002W        W45263   3.902  15.134  15.991 -0.3067  0.0015  0.1313
29003W        W45264  14.883   9.471  13.729  0.0488 -0.2582 -0.1361
29004W        W45265   6.869   3.374  11.349  0.2114  0.0382  0.2475
29005W        W45266  17.551   6.319   5.515  0.1321  0.0367  0.1278
29006W        W45267  10.982  17.328  16.533  0.1730 -0.0052  0.0851
29007W        W45268  10.456   0.996  11.891 -0.0499 -0.4327  0.0174
29008W        W45269   7.924  11.879  14.116 -0.1500  0.0155 -0.2326
29009W        W45270   9.807   7.745   9.790 -0.1072  0.1480 -0.0706
29010W        W45271   7.707   6.549   4.557 -0.0369  0.0399 -0.3063
29011W        W45272   3.343  15.961  15.887  0.0323  0.0039 -0.0305
29012W        W45273   5.720  13.392  14.969 -0.0549  0.1993  0.0572
29013W        W45274  12.584   2.779  13.433 -0.0622  0.3095  0.1441
29014W        W45275   1.039   6.296  12.159 -0.2993  0.0832 -0.1168
29015W        W45276  13.966  15.120   5.573 -0.2256 -0.1964  0.0715
29016W        W45277  15.212  10.999   2.322 -0.0721  0.0121 -0.2790
29017W        W45278  12.801  12.903  15.784  0.1065 -0.0818 -0.2309
29018W        W45279  10.894  14.533  15.230 -0.1265  0.3151  0.0067
29019W        W45280  12.888  10.498  13.756  0.1977  0.0035 -0.1784
29020W        W45281  17.097   3.082   3.506  0.0015 -0.0086 -0.3752
29021W        W45282  17.480   3.285   1.814  0.0059 -0.2746 -0.0500
29022W        W45283  15.913   2.879   0.525 -0.1595 -0.1243  0.0780
29023W        W45284  16.797   5.811   0.709  0.3308  0.0968 -0.0480
29024W        W45285  13.242   0.840   4.213  0.0534 -0.0518 -0.0169
29025W        W45286  17.515   1.587   3.477 -0.1945  0.2854 -0.0466
29026W        W45287  16.985   0.744   1.271 -0.0121 -0.0617  0.1084
29027W        W45288  10.065   4.238  16.312  0.0962 -0.0222 -0.0278
29028W        W45289  12.117   3.325   3.043 -0.0144  0.0138  0.0597
29029W        W45290  15.498  11.971  14.119  0.0340 -0.2476 -0.0198
29030W        W45291   8.080  13.986   2.853  0.0763  0.1433  0.2036
29031W        W45292   5.008   9.461  13.874  0.1206 -0.0126 -0.2938
29032W        W45293  11.698  17.509   0.614  0.0199 -0.0332 -0.1747
29033W        W45294   5.799   6.060   2.855  0.1254 -0.0064 -0.0254
29034W        W45295  15.717  15.077   4.272 -0.2196  0.0980  0.0012
29035W        W45296  14.577   9.465  16.094 -0.0855  0.1434  0.1408
29036W        W45297   6.525  14.592   3.198  0.1500 -0.2770  0.2686
29037W        W45298  17.822  17.624  15.435 -0.5293  0.0602  0.0109
29038W        W45299   8.103   7.946   5.327 -0.0006 -0.1370 -0.0987
29039W        W45300   1.646   7.347  12.434  0.1031 -0.0165 -0.1549
29040W        W45301   1.829  15.120  15.363  0.1862 -0.0036 -0.0249
29041W        W45302   6.779   3.920   5.841  0.2442  0.1352 -0.0743
29042W        W45303   5.489  14.053  15.260  0.0600  0.0552 -0.3948
29043W        W45304  16.867   3.054  14.798  0.0255  0.1448 -0.2558
29044W        W45305  14.203  10.838   5.849  0.2701 -0.2857 -0.2144
29045W        W45306   9.549   1.569  13.651  0.2799 -0.0994 -0.0760
29046W        W45307   8.986  15.945   2.302 -0.0700  0.3062  0.0588
29047W        W45308  14.797  11.845  15.143  0.0015 -0.2308 -0.1655
29048W        W45309   0.316   2.441  13.990 -0.0338 -0.3399  0.0859
29049W        W45310  10.811   8.911  12.321 -0.2068  0.2483  0.3935
29050W        W45311  17.678  15.560   2.772 -0.0692  0.0360  0.0426
29051W        W45312   0.878   5.886   0.724  0.0514 -0.0312 -0.1919
29052W        W45313  12.858   2.298   5.994  0.0475  0.0503 -0.0654
29053W        W45314  10.860   9.376  16.415 -0.0704 -0.0735  0.2058
29054W        W45315  16.309   5.303   2.188  0.1024 -0.1222  0.0187
29055W        W45316  10.882   7.270   5.487  0.2467 -0.0004  0.0715
29056W        W45317  17.437  17.121  15.063  0.1688  0.0666 -0.0545
29057W        W45318  10.579   4.863   3.703  0.2563 -0.0232  0.0620
29058W        W45319  12.494  17.368  16.852  0.1215  0.2045 -0.0629
29059W        W45320  12.066  15.603   0.032  0.1117 -0.2631  0.0943
29060W        W45321   7.721  13.508  15.365  0.1863 -0.0203 -0.0299
29061W        W45322   0.148   8.866   3.951 -0.3638 -0.0264 -0.0089
29062W        W45323  15.351   6.547  12.424 -0.1684  0.0584  0.1838
29063W        W45324   8.078   7.906   0.984 -0.0390  0.0275 -0.2989
29064W        W45325   7.522   8.556   4.067 -0.1977  0.0410  0.1654
29065W        W45326   1.702   6.832  13.224 -0.2517 -0.1984 -0.0205
29066W        W45327  16.788   6.685  16.676 -0.2631  0.0776  0.0412
29067W        W45328   6.527   9.904  16.734 -0.0698 -0.0127 -0.1548
29068W        W45329   9.320  13.114   5.210 -0.4332  0.0682  0.0929
29069W        W45330   3.744  16.677  16.775  0.2286  0.3728 -0.1168
29070W        W45331   6.730  13.668  16.851 -0.3300  0.0568  0.0101
29071W        W45332   3.750  10.453   5.178  0.0137 -0.1956  0.1278
29072W        W45333   4.715  14.886   1.857 -0.0606  0.1767  0.2154
29073W        W45334   5.238  14.090   1.145 -0.1020 -0.2956 -0.0484
29074W        W45335  14.158  11.620  14.837  0.0226  0.1159 -0.4461
29075W        W45336   6.179  13.889   0.805  0.1759 -0.3225  0.0754
29076W        W45337  14.134   1.588  14.904 -0.2317 -0.0671  0.0533
29077W        W45338   4.945   2.011   0.720  0.1488 -0.1115 -0.3365
29078W        W45339  13.044  16.174  12.725 -0.2125 -0.0306 -0.0578
29079W        W45340   7.466   2.629   6.582 -0.1470  0.0673  0.1427
29080W        W45341  12.014   6.354  13.694 -0.1687 -0.0032 -0.0539
29081W        W45342  15.980  16.642   4.486 -0.1626  0.1129 -0.0231
29082W        W45343  10.272   0.209   0.163  0.1427 -0.1197 -0.3710
29083W        W45344  14.710   4.365   6.099  0.1112  0.0541  0.2487
29084W        W45345  15.684   3.052   4.803  0.0907 -0.0536  0.2445
29085W        W45346  14.829   6.294   3.627 -0.1046  0.0100 -0.2576
29086W        W45347   4.234   8.349   1.950 -0.0961  0.0689  0.2722
29087W        W45348   3.641  17.246   1.839  0.2753 -0.1309 -0.3556
29088W        W45349   7.326  14.144  16.359  0.0552 -0.0437 -0.1978
29089W        W45350   7.831   9.799   0.046  0.3245  0.1050  0.0900
29090W        W45351   5.241  14.507   5.910  0.0299  0.1788  0.3696
29091W        W45352   3.958   0.718   4.911  0.1142 -0.4029 -0.0155
29092W        W45353  15.006   8.573   4.567 -0.0234 -0.0958  0.1716
29093W        W45354  16.441   0.654   5.077  0.3420  0.1785 -0.1468
29094W        W45355   1.933   5.150  12.311 -0.1059 -0.1263  0.0813
29095W        W45356  10.746   5.334   0.611 -0.0767 -0.0918 -0.0918
29096W        W45357  12.273   3.040  14.952  0.0125 -0.0352 -0.0484
29097W        W45358   2.356   1.839  11.840 -0.0896 -0.0699 -0.0904
29098W        W45359   1.917  12.004   1.164 -0.1648  0.0945  0.2952
29099W        W45360  17.011  12.348  12.164 -0.2727  0.1931 -0.1708
29100W        W45361   5.315   5.407   3.012 -0.0851  0.3293 -0.1667
29101W        W45362  12.727  11.292   4.062  0.0598 -0.3267 -0.1313
29102W        W45363  11.387   5.206  16.631 -0.0017 -0.0232 -0.0915
29103W        W45364   0.587  14.528  13.218 -0.0468  0.0848 -0.0066
29104W        W45365  15.330  17.048  15.099 -0.1893 -0.1761 -0.2312
29105W        W45366   8.891  12.591  16.424 -0.6087  0.2182  0.0762
29106W        W45367  11.944  14.632   2.185  0.2874  0.2697 -0.3221
29107W        W45368  13.201   3.841  16.562  0.0167  0.1854  0.1520
29108W        W45369   1.884   3.895  14.756  0.1127  0.1905  0.0511
29109W        W45370   9.928   4.431   1.594 -0.1837  0.2614  0.0770
29110W        W45371  10.185   0.009  12.020 -0.0684  0.2663  0.1710
29111W        W45372   7.677  12.437  13.077  0.0653 -0.2741  0.2860
29112W        W45373   9.949   0.831   4.705  0.0132  0.1438  0.4039
29113W        W45374  15.994  12.643   4.878 -0.0498 -0.0874  0.0698
29114W        W45375   0.017   5.364   2.814  0.1266  0.1804  0.1561
29115W        W45376  11.720  11.072   3.830  0.3227 -0.1270  0.0231
29116W        W45377  13.653   1.970  15.510 -0.0231  0.0011 -0.1424
29117W        W45378   5.081  13.573   2.463 -0.0645 -0.3577  0.3569
29118W        W45379  15.043  13.693   5.581 -0.0344 -0.0481  0.0064
29119W        W45380  13.784  15.937   4.464  0.0074 -0.1012  0.0804
29120W        W45381   2.752  13.415   5.171 -0.2543  0.2159  0.0124
29121W        W45382  14.485   7.761   5.656 -0.1418 -0.0699  0.1135
29122W        W45383   7.369   0.905  12.263  0.0399  0.0124 -0.0735
29123W        W45384  17.338  11.989   3.808 -0.0067  0.1804  0.0292
29124W        W45385  17.767   1.090  12.752 -0.3249 -0.2579 -0.3125
29125W        W45386   5.352  15.175   5.300 -0.1325 -0.1816 -0.0559
29126W        W45387   6.789   0.140  12.138 -0.0009  0.1632 -0.0737
29127W        W45388   5.009   3.820   2.824 -0.0023 -0.0440 -0.2489
29128W        W45389  15.711  16.143   6.368 -0.2615 -0.0184 -0.0974
29129W        W45390  14.268   6.061   2.901 -0.3541 -0.3095  0.2982
29130W        W45391   1.512  15.624   3.809  0.1269 -0.0695 -0.4696
29131W        W45392   6.637   4.529   2.517 -0.0238 -0.1644 -0.3500
29132W        W45393  17.641  12.686  14.942 -0.0428  0.1870 -0.2460
29133W        W45394  16.691   0.867   2.195  0.5268  0.3072  0.0421
29134W        W45395   5.441   6.430  11.857  0.1575 -0.2300  0.0373
29135W        W45396  11.726  10.155   2.632 -0.0820  0.1909  0.0903
29136W        W45397  14.228   3.161   0.754  0.1056  0.1617  0.2485
29137W        W45398  17.317   6.592   1.533 -0.3316  0.1559 -0.0006
29138W        W45399  12.204  17.198   1.968  0.2073 -0.0890  0.1374
29139W        W45400   2.305  15.818   0.335  0.1104 -0.3210  0.1069
29140W        W45401   6.886  16.466  13.540 -0.0044  0.1685  0.1636
29141W        W45402  11.106  17.677  13.344  0.2280  0.2309 -0.1130
29142W        W45403   6.387  16.718   5.603  0.0133 -0.1575 -0.0026
29143W        W45404  17.666  17.416   4.605 -0.0136 -0.1718  0.2799
29144W        W45405  15.190   8.912   3.968  0.2376  0.2017  0.3584
29145W        W45406   8.136  17.224  16.222  0.2790  0.1275 -0.1115
29146W        W45407   4.511   6.276   4.320  0.1101 -0.0147  0.0132
29147W        W45408   1.731  14.760  12.665 -0.2829 -0.2213 -0.0106
29148W        W45409  10.193   5.632   1.366 -0.1055  0.1426  0.1118
29149W        W45410   3.772  16.884  12.916 -0.0734 -0.1633 -0.0504
29150W        W45411   1.354   9.482  13.797  0.1240  0.0177 -0.1425
29151W        W45412  15.299   2.579   3.165  0.0338 -0.0661 -0.0285
29152W        W45413  13.224  16.294   6.203 -0.2141  0.1534 -0.1241
29153W        W45414  12.217  12.146  15.971 -0.1732  0.1872  0.1879
29154W        W45415  10.050  10.611   5.393 -0.2578 -0.5120 -0.2631
29155W        W45416  12.199   1.735  14.794  0.4087 -0.0599  0.1936
29156W        W45417   9.791  16.555   5.597  0.0453 -0.0612  0.0130
29157W        W45418  11.254  14.707  16.496  0.0212 -0.0044  0.0313
29158W        W45419   2.464  10.098  14.388 -0.1961 -0.0684  0.2165
29159W        W45420   6.618   3.236   5.428 -0.0278  0.0942 -0.0500
29160W        W45421  17.451  16.900  11.882  0.1358  0.0952 -0.0587
29161W        W45422  10.707  14.327   4.723 -0.1043  0.0852  0.1114
29162W        W45423   7.830  10.858  15.146 -0.0354 -0.2287  0.0168
29163W        W45424   1.244   7.846  11.832  0.0695 -0.1141  0.0022
29164W        W45425  10.886  17.630  15.559  0.2006  0.3594  0.0879
29165W        W45426  11.210  14.557   0.260  0.1080 -0.1318  0.5318
29166W        W45427   2.364  13.925  12.590  0.0827 -0.1453  0.0120
29167W        W45428   9.961  12.666   0.506 -0.1225 -0.1883  0.3134
29168W        W45429   4.513   2.316   2.287  0.3125 -0.4009  0.1375
29169W        W45430  13.508   6.013  12.485  0.0105 -0.2373  0.0667
29170W        W45431   7.528   4.446   1.701 -0.1668 -0.0590  0.2367
29171W        W45432   7.855  12.650  13.593  0.1878  0.1168  0.0522
29172W        W45433  12.312   1.963  13.638 -0.0724 -0.0126 -0.1494
29173W        W45434  11.891   0.730   3.013 -0.2973  0.1809 -0.3323
29174W        W45435   1.947  10.688   2.573  0.0976 -0.0877 -0.0228
29175W        W45436   9.754  10.173   2.346 -0.0703 -0.2309  0.1138
29176W        W45437   2.437  12.652  14.442  0.0625 -0.1255  0.3197
29177W        W45438  13.901   7.059   0.085  0.1034  0.2234 -0.0627
29178W        W45439  12.223   1.610  12.060  0.0128  0.1614 -0.1234
29179W        W45440  15.049   9.669   1.684  0.1412 -0.0919 -0.0779
29180W        W45441   0.551   5.023   0.308  0.1316  0.1363 -0.2194
29181W        W45442   3.029   7.283   0.411  0.0663 -0.0560 -0.0639
29182W        W45443  17.596  17.076  13.207  0.2929 -0.0368  0.0624
29183W        W45444   0.325   4.269   4.261 -0.0549 -0.2303 -0.1157
29184W        W45445  12.735   9.774  11.792  0.2247 -0.0564 -0.1453
29185W        W45446   2.139  12.975  14.741  0.3455  0.1902  0.0484
29186W        W45447   5.936   2.014   4.313 -0.0060 -0.2207  0.0935
29187W        W45448  14.703  12.289  14.360 -0.1041 -0.0167  0.0814
29188W        W45449   8.568  15.070   3.021 -0.1526 -0.1367 -0.2974
29189W        W45450   4.308   7.672  14.581 -0.0970  0.1090  0.1456
29190W        W45451   8.125   0.278   1.965  0.0823  0.0061 -0.0865
29191W        W45452  14.598   8.789   4.656 -0.1965  0.1318  0.1035
29192W        W45453   4.659   5.712   5.593  0.0524 -0.0664 -0.1165
29193W        W45454   9.129  16.901   4.836  0.2337  0.0832  0.0484
29194W        W45455   9.470   5.403   3.858  0.1533 -0.3026  0.0781
29195W        W45456   1.725  13.229   5.052  0.0160 -0.1371 -0.0589
29196W        W45457   9.765   2.256   5.379 -0.3416 -0.1891 -0.2159
29197W        W45458   2.613   6.991   0.200 -0.1998 -0.1222  0.2759
29198W        W45459  16.216  15.869   0.341  0.2313  0.0773 -0.2437
29199W        W45460   2.965   9.017  14.932 -0.2449  0.2322  0.1296
29200W        W45461   2.140  10.306  13.436 -0.0077  0.1189 -0.0682
29201W        W45462   4.020   4.602   4.181  0.2367  0.1202  0.2287
29202W        W45463  13.805   6.288  16.525  0.0528 -0.3730 -0.0277
29203W        W45464   4.491   1.911  15.536  0.0954 -0.0158 -0.1207
29204W        W45465   8.293  16.954   4.590 -0.0569 -0.1049 -0.0892
29205W        W45466  10.972   7.001  13.000 -0.0962  0.2216  0.0378
29206W        W45467   0.949   3.145   1.951  0.1149 -0.0548 -0.1015
29207W        W45468   5.764  10.516  12.499  0.1461  0.2422  0.1475
29208W        W45469   3.023  12.832  13.936 -0.0375  0.0730 -0.0542
29209W        W45470  16.964  14.993  14.045 -0.0100 -0.1982 -0.1412
29210W        W45471   8.044  10.778   4.993 -0.1156 -0.0285  0.1109
29211W        W45472   8.538   6.875   3.052  0.2392 -0.2562  0.0842
29212W        W45473   0.480  11.529  13.349 -0.2143 -0.0838 -0.2362
29213W        W45474  11.452  15.169   2.126 -0.1429 -0.3695  0.3157
29214W        W45475  11.426   6.393   3.645  0.3361  0.1081 -0.2015
29215W        W45476   3.614  17.250  13.447  0.2029 -0.3284  0.4143
29216W        W45477   5.251   6.154  10.978 -0.0708 -0.1226 -0.0750
29217W        W45478   9.500   7.889   2.036  0.4520  0.0052 -0.1115
29218W        W45479  16.131  17.351   3.523  0.1096  0.0016 -0.2101
29219W        W45480  15.685   8.496  16.368  0.1683  0.0817  0.1715
29220W        W45481   1.962  14.489   3.144 -0.1211  0.3535 -0.0430
29221W        W45482   9.500   7.531   3.945 -0.0708  0.0820  0.0875
29222W        W45483   4.069  17.003   1.524  0.2994  0.2282 -0.2932
29223W        W45484   7.748   6.240   4.036 -0.4717 -0.0744 -0.0757
29224W        W45485   2.193  15.711   2.151  0.3491  0.0693 -0.0059
29225W        W45486   1.579  13.386  11.633 -0.0690 -0.1209 -0.0129
29226W        W45487   6.467  11.677   3.582 -0.0275 -0.1794  0.0226
29227W        W45488   5.166   9.844   2.807  0.2941  0.0969 -0.4794
29228W        W45489  16.214   2.503  15.355 -0.3619 -0.1811  0.2495
29229W        W45490   4.573   9.084   2.388 -0.0463  0.2320  0.2762
29230W        W45491   3.660  17.334  11.549 -0.1727  0.2761  0.1483
29231W        W45492   6.454  11.539  11.866 -0.0309 -0.1775 -0.1885
29232W        W45493  10.776  15.361   3.864 -0.1536 -0.3972  0.2787
29233W        W45494   1.862  13.026  12.088 -0.0535 -0.2418  0.0829
29234W        W45495  15.797   1.226  15.671  0.1538 -0.0507 -0.1021
29235W        W45496  12.985   1.290   0.169  0.1310 -0.0228  0.0639
29236W        W45497  14.789   0.900   1.664  0.0684  0.1097 -0.0520
29237W        W45498  10.828  16.170  13.474 -0.1567  0.2343 -0.2721
29238W        W45499   8.020   8.597  16.708  0.3457 -0.0540  0.2429
29239W        W45500  14.418   5.560   1.760 -0.1763  0.1782  0.1048
29240W        W45501   7.345   4.519  13.506  0.0649 -0.0233 -0.2669
29241W        W45502   3.676   8.187  15.759 -0.0387  0.1598 -0.1718
29242W        W45503  13.538   5.831   0.407 -0.2022 -0.1280  0.4249
29243W        W45504   6.252  14.860   5.997  0.2861 -0.2220  0.0213
29244W        W45505  17.771   8.188  11.878 -0.0853 -0.1248 -0.0677
29245W        W45506   8.881  16.134  16.650 -0.0930 -0.1046 -0.3815
29246W        W45507  15.896  14.355  15.299  0.2029 -0.3286 -0.0663
29247W        W45508  13.613   0.912  15.147  0.1680 -0.1115  0.1166
29248W        W45509   9.473  16.926  16.702 -0.2756  0.4264  0.3505
29249W        W45510   9.021   6.606   3.562 -0.0517 -0.0180  0.2702
29250W        W45511  13.445  17.460  12.982  0.0984  0.4488  0.3225
29251W        W45512   2.219  16.866   2.466  0.0439 -0.3227  0.0162
29252W        W45513   7.217  13.703  12.216  0.2168 -0.3956  0.0263
29253W        W45514  14.390   4.545   4.668 -0.1271  0.0579 -0.2301
29254W        W45515  16.261  10.942   4.786 -0.0958 -0.3973 -0.0209
29255W        W45516  15.505  15.539   3.093  0.1245  0.1718 -0.1397
29256W        W45517   7.693  10.407  14.397  0.0152 -0.0434 -0.2345
29257W        W45518  11.232  17.652   5.331  0.1289 -0.2581  0.0392
29258W        W45519  12.233  10.447   6.203  0.0008 -0.1816  0.3116
29259W        W45520   8.520   4.595   1.871 -0.1491 -0.4251  0.0218
29260W        W45521   4.829  15.710   6.256 -0.0908  0.2110 -0.1672
29261W        W45522   7.069  12.446  13.161  0.2054  0.1476  0.2187
29262W        W45523  12.580   1.860  11.865 -0.1542  0.1135 -0.1101
29263W        W45524  16.307   5.020  12.175 -0.0088  0.1244  0.2551
29264W        W45525   2.445  15.549  13.598 -0.3118  0.3256  0.2151
29265W        W45526   6.616   2.698   5.591 -0.2934  0.1717 -0.0146
29266W        W45527   0.953   9.401   4.530  0.0935  0.1921  0.2166
29267W        W45528   1.466   0.217   1.297 -0.0321  0.0649 -0.1660
29268W        W45529   4.513   7.190  13.376  0.1769  0.1216 -0.3278
29269W        W45530  15.869  10.614  12.053 -0.1283  0.1110 -0.0702
29270W        W45531  14.098   2.394  11.771 -0.3397  0.0607 -0.2191
29271W        W45532  14.168   3.031  12.624 -0.2065  0.1548 -0.4065
29272W        W45533   0.490   8.091  15.518  0.1175 -0.2061 -0.1542
29273W        W45534   7.754   9.997  11.470  0.1807 -0.0200 -0.2999
29274W        W45535  15.154   4.010   0.601  0.1636  0.0523  0.1160
29275W        W45536  15.151   7.700  16.061 -0.0748 -0.3163  0.0048
29276W        W45537   4.137  11.411   5.865 -0.0431 -0.5538 -0.1295
29277W        W45538  10.971  13.445   3.992 -0.0965 -0.0023 -0.1231
29278W        W45539  16.951   2.552   5.415 -0.1166  0.3072  0.1606
29279W        W45540  14.416  14.275   0.432  0.1758 -0.0708  0.1969
29280W        W45541  12.985   9.981  13.538 -0.2404 -0.3143  0.0525
29281W        W45542   2.064  13.873  12.088  0.0818 -0.0344 -0.3728
29282W        W45543   1.239   8.351   1.399 -0.3425 -0.1935 -0.0062
29283W        W45544   7.887  11.866   1.855  0.0654 -0.1089  0.2851
29284W        W45545  16.507  12.557  15.777 -0.2438 -0.2544  0.0163
29285W        W45546  13.916   4.210  15.539  0.0878  0.2211  0.0728
29286W        W45547   8.444  10.464  11.781  0.0311 -0.3340 -0.0332
29287W        W45548  17.600   9.058  16.357 -0.1224  0.0813 -0.0930
29288W        W45549   5.455  13.219  12.689  0.0856  0.0872 -0.0631
29289W        W45550   3.320   7.211  16.972 -0.0788 -0.1318  0.0492
29290W        W45551   8.396   3.380   5.354 -0.4273 -0.2063  0.2922
29291W        W45552  11.409   4.378  15.562  0.0449 -0.2730 -0.1569
29292W        W45553  14.616  16.937  11.855 -0.2261  0.2454 -0.0290
29293W        W45554  14.099  10.033   0.925  0.2228  0.0832 -0.0598
29294W        W45555  16.400   2.533   0.536 -0.1302  0.1696 -0.2252
29295W        W45556  14.076  12.257  16.133  0.1451 -0.1436 -0.1823
29296W        W45557   3.859   0.534   3.465  0.0811 -0.2475 -0.3983
29297W        W45558   4.731   4.975   2.284 -0.3291  0.2847 -0.1470
29298W        W45559   6.727   4.736   2.085 -0.0695  0.0300 -0.1052
29299W        W45560   7.698   3.977  15.103 -0.1556 -0.3021  0.2087
29300W        W45561   0.893  16.454  12.054  0.2460 -0.1167  0.0377
29301W        W45562   7.421   3.867   0.489  0.0606 -0.0941  0.3757
29302W        W45563   7.838   0.156  13.784  0.1896 -0.0718  0.1327
29303W        W45564  13.345  11.983   5.566 -0.0141  0.0638 -0.1504
29304W        W45565  15.308   8.214   0.785 -0.0606 -0.1027  0.0533
29305W        W45566  12.905  13.927   4.796 -0.2083 -0.2325 -0.0500
29306W        W45567  12.299   6.539  13.063 -0.0196  0.2282  0.3769
29307W        W45568   1.518   0.784   2.126 -0.4468 -0.1000  0.2306
29308W        W45569   0.597   5.757   4.069 -0.1078  0.2384  0.1964
29309W        W45570   7.966  17.244  14.244 -0.0140 -0.1277  0.3738
29310W        W45571  16.513   1.628   5.091  0.1856  0.0856 -0.0554
29311W        W45572   2.581  17.137  15.507 -0.2441 -0.0952  0.2856
29312W        W45573  14.824  11.315  11.789  0.1515 -0.1783  0.1814
29313W        W45574  12.206   2.253  16.598  0.0785 -0.1285 -0.2362
29314W        W45575  15.705   5.212   4.485  0.0237  0.0468  0.1186
29315W        W45576   4.058  12.056   5.470  0.0001  0.1065 -0.1510
29316W        W45577  10.294  11.152  10.889  0.2186  0.2164 -0.3041
29317W        W45578   7.816   0.687   1.903  0.0660  0.0380  0.3062
29318W        W45579  12.522  16.401  13.411  0.0301  0.0312  0.1120
29319W        W45580  15.901  15.390  16.303 -0.0585 -0.4674 -0.2301
29320W        W45581   1.306  13.333  16.668  0.1024 -0.1187  0.2447
29321W        W45582  10.928  11.786  11.911 -0.2681  0.0014  0.0882
29322W        W45583   9.528  12.591   1.302 -0.0654 -0.0878 -0.1797
29323W        W45584  15.966  10.026   5.072  0.1895  0.0372 -0.0130
29324W        W45585  14.422  12.830  14.255  0.0942  0.0474  0.1433
29325W        W45586   7.862   7.743   3.829 -0.1305  0.1898  0.1428
29326W        W45587  13.791   3.119  13.004 -0.3702  0.0082 -0.0114
29327W        W45588  11.967   0.182   4.436  0.2200 -0.2787 -0.0588
29328W        W45589  17.498   3.067  12.002 -0.0014 -0.0128 -0.1442
29329W        W45590   4.202   8.669  16.200 -0.0607 -0.0704 -0.0627
29330W        W45591  10.541  16.336   0.302  0.4261  0.1898  0.0479
29331W        W45592  12.437   1.388   2.596  0.1299 -0.2034 -0.1622
29332W        W45593   7.649   9.930   3.134 -0.1870 -0.4830 -0.0490
29333W        W45594   3.463  14.919  15.913 -0.0995  0.2379  0.1295
29334W        W45595  11.085   2.237   3.830 -0.1949 -0.1792 -0.2664
29335W        W45596   8.303   0.698   1.076 -0.1243 -0.0467 -0.0902
29336W        W45597  17.551  12.080   6.487 -0.0293  0.0180  0.0152
29337W        W45598   4.334   3.793  15.795 -0.0811  0.0336 -0.1431
29338W        W45599   7.168  13.288   1.357  0.3277 -0.1163  0.0580
29339W        W45600   7.704  11.217   4.096 -0.0229 -0.0756  0.4231
29340W        W45601   1.655   5.522  15.810  0.1454 -0.2717  0.0568
29341W        W45602  15.407   3.962   1.052  0.2840 -0.2508  0.4282
29342W        W45603  10.221  15.125  14.273 -0.0788  0.0998 -0.1302
29343W        W45604  13.881   1.468  13.517 -0.0185 -0.0978  0.0448
29344W        W45605  12.148   8.476  12.096 -0.0620  0.0970  0.2504
29345W        W45606   8.364  11.762  16.089 -0.1032 -0.1617  0.0709
29346W        W45607  17.421  15.198  14.042  0.0376 -0.0977  0.0616
29347W        W45608   5.069   8.926   5.523  0.0009 -0.0990 -0.0825
29348W        W45609  11.395   9.053  12.077  0.0535  0.2100 -0.2542
29349W        W45610   2.347   8.880   1.077  0.0489  0.0847 -0.0544
29350W        W45611  14.162  12.606   2.887  0.0301  0.1315 -0.0779
29351W        W45612  15.669  13.781  12.148 -0.1083 -0.1986 -0.1713
29352W        W45613   4.481  11.885  15.157 -0.0466  0.0494  0.3803
29353W        W45614  16.347  13.083  14.265 -0.0962 -0.2656 -0.0043
29354W        W45615   7.843  11.960   5.317 -0.1282  0.0154 -0.0620
29355W        W45616   8.198   3.613  11.565  0.2403 -0.2105 -0.0499
29356W        W45617   2.273  10.683  15.503  0.0435 -0.1052 -0.1608
29357W        W45618  11.323   4.146  12.454  0.0097 -0.1736 -0.1670
29358W        W45619   9.921   9.686  15.566 -0.1302 -0.1962  0.0942
29359W        W45620  12.606  17.391  13.104 -0.2509 -0.0444  0.2341
29360W        W45621   4.697   5.013  15.689 -0.0636 -0.0558 -0.2772
29361W        W45622   4.696   0.789   4.067  0.4285 -0.2890 -0.0766
29362W        W45623  12.992  13.888   3.089  0.1926 -0.0573 -0.0651
29363W        W45624  14.798   8.970  13.870 -0.1295 -0.2795 -0.0460
29364W        W45625   1.870   6.114  15.192 -0.0664 -0.2396  0.1764
29365W        W45626  11.720   2.445  14.430 -0.1823  0.1870 -0.1068
29366W        W45627  11.958  17.548   1.479 -0.0054  0.1871  0.1459
29367W        W45628   5.720  17.548   1.824 -0.3224  0.0254 -0.0307
29368W        W45629   2.123   8.198  12.838  0.3867 -0.3099 -0.1133
29369W        W45630   7.341   2.183  15.119  0.2571  0.3970 -0.1588
29370W        W45631   0.852  12.087   0.084  0.0260 -0.1176  0.2155
29371W        W45632   9.514   9.137  12.049 -0.2026  0.1942  0.1617
29372W        W45633   6.310  16.374  12.718 -0.1113 -0.2032  0.0828
29373W        W45634   0.300   7.392   3.912  0.0169 -0.0098  0.2662
29374W        W45635  11.346  11.399  16.108 -0.0231 -0.0338 -0.0682
29375W        W45636  16.096  10.542  16.619 -0.1983 -0.1866  0.1568
29376W        W45637   3.246  12.735  14.742 -0.1848 -0.2667 -0.0935
29377W        W45638   1.118  14.315   1.134 -0.0960  0.3327 -0.0973
29378W        W45639  13.987  11.011   1.951  0.2495 -0.0029 -0.2698
29379W        W45640   8.838   2.223   2.803 -0.2067  0.1325  0.1697
29380W        W45641  13.062  15.707  15.804 -0.0449 -0.3972  0.3543
29381W        W45642   2.592   7.411  10.989  0.1738 -0.1851  0.0601
29382W        W45643  15.557  13.405  14.127  0.0651  0.1370 -0.0715
29383W        W45644   9.911  14.108   4.516 -0.1410  0.1948 -0.0702
29384W        W45645   0.285   0.819  12.531 -0.0532 -0.0867 -0.0782
29385W        W45646  15.814  14.128   3.492  0.0050  0.0120  0.4000
29386W        W45647   0.348  14.919  16.875 -0.1193  0.0011  0.3998
29387W        W45648   8.216   1.802   3.766 -0.3161  0.2297  0.1046
29388W        W45649   8.159   8.123   1.441 -0.0737 -0.0270 -0.2306
29389W        W45650  14.911   0.538  13.665  0.2239 -0.2326 -0.0400
29390W        W45651   3.022  15.928  15.433 -0.1934  0.0866  0.2217
29391W        W45652  14.393  14.970  16.742 -0.1933 -0.1900 -0.4179
29392W        W45653   8.011  14.488  13.349  0.2489  0.0307  0.0204
29393W        W45654   3.355  15.468  16.772  0.1345  0.0891 -0.5130
29394W        W45655   2.263  11.934   4.323  0.0400  0.0965 -0.0877
29395W        W45656   2.173   4.166  13.575 -0.4093 -0.0683  0.0420
29396W        W45657   8.919  14.693   5.001  0.0916 -0.2602 -0.1245
29397W        W45658   8.308  17.134  12.370 -0.0535 -0.0587  0.0874
29398W        W45659  14.202  12.470   5.777 -0.2717 -0.1641 -0.1420
29399W        W45660  13.046   3.236   0.738  0.2976  0.0075  0.0909
29400W        W45661   2.198  15.487   3.473 -0.1355  0.1776  0.0707
29401W        W45662   1.676  14.804   4.867 -0.0482  0.4456 -0.5867
29402W        W45663  13.723   3.294  14.357  0.0288 -0.1396  0.1264
29403W        W45664   3.371   4.980   3.446  0.1161 -0.3068  0.1457
29404W        W45665  16.891   0.018  15.002 -0.0180 -0.1806  0.2080
29405W        W45666   0.542   5.537  15.091 -0.0838 -0.5315  0.2101
29406W        W45667  16.782  16.839  14.288 -0.1699 -0.0848  0.0412
29407W        W45668  12.399   8.781   3.033 -0.0673 -0.0013  0.1332
29408W        W45669   9.203   8.733   4.161  0.0984  0.0568 -0.1013
29409W        W45670   3.881   8.784   3.324  0.1401 -0.1804 -0.1563
29410W        W45671  11.732  16.119  12.853 -0.1446 -0.2806  0.1724
29411W        W45672  11.519   3.007   3.235 -0.1729 -0.0699 -0.1732
29412W        W45673   8.163   3.551   4.053 -0.3786 -0.0098  0.2505
29413W        W45674   5.978  16.541  11.986 -0.3486 -0.1493 -0.2287
29414W        W45675  11.808  15.413   5.194  0.0376 -0.0217 -0.2399
29415W        W45676   9.258  11.630   2.221  0.1187 -0.1435 -0.3015
29416W        W45677   3.241   3.156  13.885  0.0424  0.0235 -0.0365
29417W        W45678  14.012  12.802  12.593  0.0226  0.0154 -0.0776
29418W        W45679  10.611   9.666   1.813 -0.1614 -0.0025  0.1559
29419W        W45680   6.307   5.535   1.963  0.0433 -0.2291 -0.1593
29420W        W45681   9.635   9.478  13.714  0.3208  0.2268  0.0910
29421W        W45682  10.107   7.909  12.257 -0.0324 -0.0685  0.0331
29422W        W45683   1.449  16.243   4.936  0.2201 -0.3622  0.0294
29423W        W45684  16.175  14.369   3.284 -0.2796 -0.1817  0.3920
29424W        W45685  16.343  13.161  14.792 -0.1227  0.1069 -0.0574
29425W        W45686   3.070  15.210  15.928  0.3509  0.0169 -0.1980
29426W        W45687   9.214  16.891   0.487  0.2351 -0.1236  0.0430
29427W        W45688   1.985   5.498   2.360  0.0746  0.1031 -0.3758
29428W        W45689  11.217  11.037  15.272 -0.2433 -0.1106  0.0920
29429W        W45690  10.587  15.269  12.972  0.0787  0.0515 -0.1087
29430W        W45691  15.276  13.062   7.036 -0.1047  0.1141  0.0479
29431W        W45692  12.964   5.834   2.359  0.1473  0.0220  0.3957
29432W        W45693  11.775   9.383   4.812 -0.0997 -0.0282 -0.0468
29433W        W45694   5.315   5.856   4.951  0.2209 -0.0418  0.2816
29434W        W45695   5.595   5.551   5.327  0.0196 -0.3245  0.2546
29435W        W45696   6.532   4.492  14.511 -0.3823 -0.2108  0.0970
29436W        W45697   2.528   6.362   4.920  0.2625  0.2761  0.1812
29437W        W45698   1.731  16.098   2.772  0.4002 -0.1717  0.0588
29438W        W45699   0.567  10.411   6.603  0.0089 -0.2680 -0.2236
29439W        W45700   6.295  14.799   1.088  0.0133  0.0416  0.3569
29440W        W45701  10.203   6.979   1.311  0.1021 -0.0658 -0.0360
29441W        W45702  15.371  16.106   6.020 -0.0543 -0.2649 -0.0480
29442W        W45703   8.658   3.010  12.646 -0.2890  0.0592 -0.2260
29443W        W45704   0.278  16.963   2.947  0.0091 -0.1581 -0.3060
29444W        W45705  14.526   6.822  15.403  0.2569 -0.2237  0.0470
29445W        W45706   0.911   9.940   2.351  0.0221  0.0661 -0.1205
29446W        W45707   8.901   1.895   2.315  0.0850 -0.2770 -0.0051
29447W        W45708  15.419   8.944  15.727 -0.1036  0.1431 -0.1049
29448W        W45709   1.521   6.388  14.730 -0.1386 -0.1241  0.1377
29449W        W45710  14.825   7.211   3.807 -0.2231 -0.0025  0.1980
29450W        W45711   3.219   2.163   4.555  0.1092  0.4954 -0.0972
29451W        W45712   7.808   7.727  16.503  0.1229 -0.0503  0.0722
29452W        W45713   9.612  17.182   3.106 -0.1558 -0.0883 -0.1219
29453W        W45714  16.203  10.111   3.150 -0.1224 -0.1014 -0.1615
29454W        W45715   8.531   8.565  15.858  0.2504  0.0511  0.1601
29455W        W45716   5.590   0.039   5.276  0.0655 -0.2493 -0.0550
29456W        W45717  16.438   6.588   0.455 -0.1263 -0.2724  0.0047
29457W        W45718  12.146  10.210  13.403 -0.2654 -0.1254 -0.0086
29458W        W45719   4.224  15.793   4.867  0.3034  0.1478 -0.1664
29459W        W45720   7.868   9.032   5.446 -0.0357 -0.0884 -0.0056
29460W        W45721  11.586   2.665   2.539 -0.3093 -0.1623  0.0707
29461W        W45722   0.175   1.870  14.769 -0.0994 -0.0848 -0.2330
29462W        W45723   6.980  16.130  16.015 -0.3727 -0.0177 -0.2651
29463W        W45724  12.495   5.609   5.042 -0.0263  0.0362 -0.0768
29464W        W45725   6.474  13.758   1.903  0.0657  0.0280  0.1488
29465W        W45726  10.217   2.883  14.476 -0.0202  0.0183 -0.0791
29466W        W45727   8.589  13.101   2.772  0.1834 -0.1967  0.2864
29467W        W45728  11.810  14.514   3.368  0.2881  0.3429  0.1860
29468W        W45729   9.978   2.731   6.615 -0.0183  0.5048  0.1319
29469W        W45730   7.390   3.545  12.900 -0.2995  0.0828 -0.0270
29470W        W45731  10.798  16.774   5.866  0.1454 -0.1786 -0.2775
29471W        W45732  14.675   8.535   0.140 -0.2606  0.0230 -0.0169
29472W        W45733   4.791   0.488   3.037  0.0792  0.2359  0.2941
29473W        W45734   4.112   7.469   0.441 -0.0761 -0.4038 -0.0654
29474W        W45735   4.632  10.568   0.217  0.2273 -0.2470  0.0156
29475W        W45736  17.525   4.936   1.695  0.1638 -0.1675 -0.0595
29476W        W45737  16.732   5.475   0.277 -0.1653 -0.3636 -0.0004
29477W        W45738  15.901   7.094  12.542  0.0545 -0.1265 -0.2171
29478W        W45739   3.872   4.311  11.977 -0.0233  0.1381 -0.1315
29479W        W45740   2.861   9.101   5.461 -0.2250  0.2250  0.3295
29480W        W45741  11.545   2.526   5.111 -0.2999  0.3310 -0.0198
29481W        W45742   1.998   1.763   2.784  0.2783  0.0648  0.2361
29482W        W45743   5.170   3.079  12.083  0.2497 -0.1657 -0.1883
29483W        W45744  13.183   5.411   1.190  0.1074  0.2226 -0.0573
29484W        W45745   3.042   0.459  15.265  0.1783 -0.0806  0.2500
29485W        W45746  11.211   3.900   4.760 -0.1410  0.0447  0.3669
29486W        W45747   1.580  13.281  15.502 -0.0238  0.1001 -0.2224
29487W        W45748   7.333  10.885   2.156 -0.0124  0.3145 -0.2579
29488W        W45749   2.504   0.953  12.660 -0.0216  0.0207  0.1121
29489W        W45750   5.828  10.292   4.457  0.1036 -0.0737 -0.0601
29490W        W45751   5.891  13.226   2.461 -0.0438 -0.2021  0.2824
29491W        W45752  15.369   9.541   3.331 -0.0790 -0.0957 -0.0995
29492W        W45753   1.976  15.554  14.394 -0.1406  0.0029 -0.2820
29493W        W45754  10.931   8.179   0.201 -0.0943 -0.1305  0.3152
29494W        W45755  17.282   8.288   1.921  0.0417  0.1958  0.0953
29495W        W45756   6.876  12.937  12.945 -0.1871 -0.0370  0.2445
29496W        W45757   8.052   3.856  13.418  0.2201  0.1842 -0.2594
29497W        W45758   1.509   6.360   0.463 -0.0558 -0.0294 -0.0270
29498W        W45759   8.548   2.148  15.265 -0.0365  0.2959 -0.0640
29499W        W45760   4.513  11.810   3.980  0.0896  0.4729 -0.0719
29500W        W45761  13.351   8.174  15.155 -0.0964 -0.0344 -0.1614
29501W        W45762   3.817  16.769   4.484 -0.1631 -0.1321  0.1662
29502W        W45763   8.861  13.017  12.287  0.0143 -0.0464  0.0971
29503W        W45764   8.656   4.528  13.193 -0.1120 -0.0221 -0.1143
29504W        W45765   2.729  14.274   4.595  0.0467 -0.0258  0.2542
29505W        W45766  10.163   8.795   3.075  0.1062 -0.0029  0.0367
29506W        W45767  15.763  12.826   3.268  0.0883 -0.1564 -0.0175
29507W        W45768  15.025  10.971   0.870 -0.1870  0.2684  0.1486
29508W        W45769  16.508   5.047  12.745  0.0652  0.0913 -0.0682
29509W        W45770   3.321   0.623   4.073 -0.1093 -0.0181 -0.1681
29510W        W45771   1.273  16.531  11.740  0.1916 -0.0867 -0.0750
29511W        W45772   5.417  14.445   2.806  0.1578  0.2444  0.1058
29512W        W45773   8.909   4.219   0.929  0.1145  0.4049 -0.0068
29513W        W45774   8.342   4.010   2.202  0.1500 -0.4593 -0.1107
29514W        W45775   1.730  15.380   3.407 -0.2064 -0.0470 -0.0125
29515W        W45776  16.293   9.529   0.698  0.2033  0.2016 -0.0559
29516W        W45777   6.406   1.999   3.442  0.0148 -0.0166  0.0136
29517W        W45778   0.029  14.582  14.543  0.2047  0.1504  0.1503
29518W        W45779  14.226   7.474  13.361 -0.0084  0.1463  0.0472
29519W        W45780  16.501  17.037   4.078  0.1474 -0.0323  0.1031
29520W        W45781   9.502   1.270   1.213  0.0746 -0.0663 -0.0818
29521W        W45782   9.497  11.406   0.506 -0.1982 -0.0406 -0.0875
29522W        W45783  12.939  12.110  15.155  0.0019 -0.0823 -0.0200
29523W        W45784   3.965  14.146   5.275  0.1282  0.0477 -0.1088
29524W        W45785  14.270  10.979   0.690 -0.0655 -0.2686  0.1546
29525W        W45786   2.357  16.657  13.739 -0.0380 -0.1221 -0.3794
29526W        W45787  10.330   8.515   5.205  0.0843 -0.0195 -0.2141
29527W        W45788   5.875  10.426  14.204  0.4202  0.2165  0.1988
29528W        W45789  16.839  14.620  13.726  0.0799 -0.3003  0.0863
29529W        W45790  10.019   7.913  15.098  0.3384 -0.3799  0.0783
29530W        W45791   4.600   7.760   4.775  0.1561  0.1437  0.2330
29531W        W45792  15.567   8.183  13.507 -0.1157  0.0546  0.0851
29532W        W45793   2.169  15.139  15.827 -0.0435  0.0166  0.1884
29533W        W45794   1.462  17.301  13.161  0.0248 -0.1694  0.3103
29534W        W45795  16.831  15.892   3.106  0.1319  0.1811  0.3372
29535W        W45796   3.530  16.296  16.516  0.0958  0.1271 -0.0384
29536W        W45797  11.664   5.692  14.320  0.1509 -0.0771  0.2709
29537W        W45798   4.150   5.888  16.339  0.1539 -0.1287 -0.1006
29538W        W45799   2.591   2.320  11.905  0.1029  0.3222 -0.0651
29539W        W45800   6.706  13.692  14.749 -0.0874 -0.5288 -0.1460
29540W        W45801   1.165   9.466  12.103 -0.1646  0.3335 -0.3320
29541W        W45802   7.001   7.692  12.885 -0.2396 -0.0702 -0.2115
29542W        W45803  11.546   3.709  14.428 -0.1889  0.1048  0.1267
29543W        W45804  16.415   0.632   3.772  0.0813  0.2872  0.0478
29544W        W45805  10.787  12.655   5.956 -0.1100  0.0651 -0.1413
29545W        W45806   5.637   2.732   3.214 -0.0586  0.0059 -0.1192
29546W        W45807   5.978  12.694  13.258  0.0195 -0.0469 -0.0516
29547W        W45808   3.198   9.943   1.630 -0.0433  0.0247  0.0572
29548W        W45809   2.015  11.646   2.430  0.1103  0.2054 -0.2860
29549W        W45810   3.006  16.296   3.213  0.2027  0.1814  0.1869
29550W        W45811   6.053   1.389   5.123  0.1033 -0.2151  0.0063
29551W        W45812  16.860  10.881  15.609  0.1101 -0.0198 -0.0395
29552W        W45813   4.789   1.432   3.141 -0.0053  0.0791 -0.2545
29553W        W45814   7.017   1.359   0.539  0.0592 -0.0707  0.0047
29554W        W45815   2.261   0.941   1.452 -0.2239  0.5520 -0.0685
29555W        W45816   6.337   2.775   1.931  0.3031  0.2707  0.2231
29556W        W45817  16.385   1.054  12.486 -0.0135  0.0406  0.0855
29557W        W45818   7.910   1.855  12.336  0.2832  0.1243  0.1429
29558W        W45819  12.366  12.521   3.930 -0.0623  0.6525 -0.2465
29559W        W45820   9.478  10.956   1.441  0.2145 -0.0749 -0.0418
29560W        W45821   8.096  10.542   5.893 -0.1632  0.2315  0.0053
29561W        W45822  14.834   4.337  12.893  0.1301  0.1019  0.2368
29562W        W45823  17.180  13.330  13.709 -0.0037 -0.0880 -0.3590
29563W        W45824   3.647   0.542  12.617  0.0517 -0.0587 -0.1472
29564W        W45825  17.618   7.093  16.805 -0.2344  0.1726  0.1317
29565W        W45826   5.086  11.168  16.328  0.0006  0.2942 -0.1403
29566W        W45827   9.384   7.644   5.368  0.2805 -0.1117  0.0101
29567W        W45828  11.255   4.616   0.912 -0.1599  0.2437 -0.1340
29568W        W45829   8.685  12.985   3.531  0.1811  0.0923 -0.2335
29569W        W45830   0.463   7.528  15.483 -0.1865 -0.2138 -0.0646
29570W        W45831   4.662  10.078  14.924 -0.0364  0.6243  0.0052
29571W        W45832   8.553  10.982  11.546 -0.1312 -0.0399  0.0442
29572W        W45833   6.061  10.651   4.787 -0.2867  0.1054 -0.1106
29573W        W45834   6.583   6.152   2.697  0.0423 -0.2588 -0.0633
29574W        W45835   6.337  16.815  15.713 -0.0527  0.1751 -0.1538
29575W        W45836  16.875   8.158   2.812 -0.2228  0.1762 -0.0865
29576W        W45837   9.751   5.513  14.659  0.0327  0.2758 -0.3895
29577W        W45838   0.289   6.126   1.827 -0.2698 -0.3252 -0.0131
29578W        W45839  11.718  15.391  14.597  0.3557  0.2838  0.2412
29579W        W45840  11.125   4.463   1.379 -0.2633 -0.1586  0.2525
29580W        W45841   7.982   5.350  13.391  0.1498 -0.2345  0.0526
29581W        W45842  12.097  10.831  11.677  0.1054 -0.0854  0.1684
29582W        W45843   5.141  10.701   3.292  0.1001 -0.2625  0.1272
29583W        W45844   3.831   7.932  12.117  0.3170  0.1660 -0.2290
29584W        W45845   5.722   8.020  12.672  0.1191  0.1662 -0.0814
29585W        W45846  15.103  15.690   4.823 -0.1356  0.0856  0.0572
29586W        W45847   4.485   9.461   4.036  0.2618 -0.2127  0.1830
29587W        W45848   8.439   2.983   0.015  0.0807  0.3223  0.2826
29588W        W45849   2.077  11.940   3.829  0.0698  0.2523  0.0104
29589W        W45850   3.877   9.986  13.942  0.0232 -0.2339  0.0079
29590W        W45851  13.608   2.175   2.542 -0.1461  0.2368 -0.0350
29591W        W45852  17.216  14.343  12.926  0.0147 -0.4848 -0.0330
29592W        W45853   2.540  12.963  16.488  0.1181  0.1646  0.1779
29593W        W45854   5.293   0.083   0.381  0.0822  0.2110  0.3125
29594W        W45855  10.064  17.814   5.999 -0.0824  0.1271  0.0120
29595W        W45856   3.433   1.573   3.706 -0.0583 -0.1292 -0.0863
29596W        W45857  16.896   2.771  14.331  0.0384  0.0262 -0.1337
29597W        W45858   8.109   5.117   4.438 -0.0195 -0.0461 -0.2391
29598W        W45859   4.489   0.340  14.248  0.0807 -0.1073  0.1339
29599W        W45860   9.052   5.386  13.010  0.0929 -0.1010  0.2295
29600W        W45861  11.311   1.764   2.908  0.4561 -0.2381  0.3215
29601W        W45862  10.417   1.465   2.560 -0.2049  0.3368 -0.3658
29602W        W45863  17.768   5.779  11.463 -0.0674 -0.0205  0.0689
29603W        W45864   9.998   1.115   5.107 -0.2347  0.0706  0.1957
29604W        W45865  15.317   1.493  13.381  0.0012  0.1860  0.1808
29605W        W45866  11.419  10.609   4.022 -0.1496 -0.0766 -0.1069
29606W        W45867   9.207  10.555   5.001  0.0549  0.0175 -0.0691
29607W        W45868   1.079   4.508   1.149  0.2645  0.1833  0.0498
29608W        W45869  12.095  12.339  16.447 -0.1116  0.1542  0.2622
29609W        W45870  10.189  13.147   3.285 -0.0762 -0.4696  0.2525
29610W        W45871   4.105  17.088  14.658  0.3222  0.0485  0.3520
29611W        W45872   4.537   9.568  15.833 -0.2118 -0.2503  0.1788
29612W        W45873   1.713  16.745   0.057 -0.0008  0.0000  0.2159
29613W        W45874   6.797  14.809   1.025  0.1914 -0.2794  0.2046
29614W        W45875   8.390  16.581  13.693 -0.0878 -0.0569 -0.2333
29615W        W45876   3.443  13.748   0.675 -0.2453  0.2470 -0.2903
29616W        W45877  10.869   9.352   5.906  0.0738 -0.3014  0.1657
29617W        W45878   3.359  14.048  12.523 -0.0842 -0.0174  0.0280
29618W        W45879   0.729  11.180  14.182  0.1704 -0.1271 -0.1750
29619W        W45880   7.856  10.745   6.255  0.1631 -0.1235 -0.0095
29620W        W45881  10.679  12.675  13.560 -0.0912 -0.1867 -0.0214
29621W        W45882   4.862   5.414  16.952  0.2746 -0.1010 -0.0083
29622W        W45883   7.466  11.852   3.329  0.0412 -0.0006  0.0230
29623W        W45884  17.509  16.589  11.540 -0.2184 -0.1249  0.2486
29624W        W45885   6.471  15.249  14.536 -0.5201  0.1544  0.2324
29625W        W45886  10.174   2.806   3.539  0.2160  0.0787 -0.1258
29626W        W45887  14.700  11.347  15.055  0.1308 -0.2084 -0.0453
29627W        W45888   9.156   1.507   5.563  0.1722  0.2147  0.1336
29628W        W45889  16.000  16.396   3.084 -0.3321 -0.1519  0.2329
29629W        W45890   9.246  14.036  13.722  0.2540  0.2835 -0.3145
29630W        W45891  12.928   3.266  12.371 -0.3104  0.2575 -0.2606
29631W        W45892   4.012   1.363   3.795  0.2711  0.2591  0.0840
29632W        W45893  17.428  10.475  12.467  0.1757  0.0146 -0.1143
29633W        W45894   9.930   5.931   0.950  0.1062  0.0528  0.1774
29634W        W45895  11.184   1.406  16.385 -0.2576 -0.2346 -0.1569
29635W        W45896   0.468   2.056  13.102  0.0560 -0.0870 -0.1663
29636W        W45897   6.666   2.691   0.551 -0.2164  0.2862 -0.0271
29637W        W45898   9.678   3.981  15.552  0.0877  0.1834 -0.0268
29638W        W45899   5.529  15.264  12.602  0.0625  0.0328  0.2319
29639W        W45900   8.637   6.192   0.226  0.0064  0.0524  0.1778
29640W        W45901  16.175   2.985   1.805 -0.0453  0.0203 -0.2142
29641W        W45902  13.612   9.611  12.151 -0.2627 -0.0985  0.2105
29642W        W45903   4.244   9.027   4.290 -0.4582  0.1147 -0.2070
29643W        W45904   7.199   4.663  14.854 -0.1600  0.2259  0.2333
29644W        W45905   3.124   0.773   3.091 -0.0029  0.0248  0.2577
29645W        W45906  17.191  17.489   1.592  0.0431  0.5739 -0.1038
29646W        W45907   8.135  15.113  15.970  0.0042  0.3423  0.4314
29647W        W45908   5.340   5.845   0.779 -0.1832  0.2168  0.0559
29648W        W45909  13.312  17.636   2.333  0.4265  0.1325 -0.1366
29649W        W45910  16.761  17.436  11.610  0.0888 -0.1777  0.2036
29650W        W45911  14.822   2.432   4.916  0.1108 -0.0229 -0.1208
29651W        W45912  12.935  13.040  13.020  0.0079 -0.1348 -0.0808
29652W        W45913   7.147   9.451  16.076 -0.1112 -0.0547 -0.3117
29653W        W45914  11.071  10.314   1.866  0.0387 -0.0887 -0.1145
29654W        W45915   2.122  14.396   3.653  0.1453  0.0828  0.0076
29655W        W45916  12.153   7.948   2.275 -0.0177 -0.0447  0.1237
29656W        W45917  11.623   5.885   3.743 -0.0233  0.0785 -0.2098
29657W        W45918   7.217   5.039  15.231  0.0931  0.2271 -0.1705
29658W        W45919   6.879  14.071   5.568 -0.0526 -0.2916 -0.2397
29659W        W45920  14.658   3.084  12.405  0.2067 -0.1137  0.0041
29660W        W45921   7.708   4.292  15.605 -0.2295  0.1859 -0.2827
29661W        W45922  14.579   0.226  14.452  0.2245 -0.1292  0.2085
29662W        W45923  16.245   0.164  13.381  0.1094  0.0854  0.0145
29663W        W45924  11.917  14.309   1.735 -0.3056  0.0388  0.1023
29664W        W45925   7.488  15.512   4.139 -0.4688 -0.0310  0.0172
29665W        W45926  12.890  14.550  13.518 -0.1678 -0.2230  0.1677
29666W        W45927  11.354   5.619  12.660  0.0673 -0.3506 -0.0374
29667W        W45928   7.257  11.924  13.850  0.0776 -0.0076 -0.0627
29668W        W45929  15.590   6.976   4.656  0.2087  0.0816 -0.0021
29669W        W45930   0.707  15.476   4.161  0.1104  0.0286 -0.2247
29670W        W45931   1.448  10.187  16.337  0.0569 -0.2748 -0.1035
29671W        W45932   7.330   7.764  16.915 -0.1681 -0.1290  0.0018
29672W        W45933   4.134   9.600   4.464  0.3733  0.2751 -0.1066
29673W        W45934   0.883   8.472  16.869  0.1350  0.3912  0.1121
29674W        W45935   1.316  13.969  16.839  0.1343  0.0981 -0.0958
29675W        W45936   5.820  17.489   0.436  0.0293 -0.2692  0.2317
29676W        W45937  13.046   1.507   4.035  0.2951 -0.0688 -0.2239
29677W        W45938   2.391   4.015  14.010  0.0181  0.2690  0.0961
29678W        W45939  12.636   8.476  13.489 -0.5190 -0.4478  0.1920
29679W        W45940   0.262  16.416   5.536 -0.0736  0.1348  0.0620
29680W        W45941   8.413  13.842   4.579 -0.1840 -0.1249  0.1432
29681W        W45942  11.669   9.669   3.766  0.1273  0.2198  0.4317
29682W        W45943  11.378  14.666   2.380  0.2301 -0.2028 -0.1372
29683W        W45944   5.801   2.880   6.127  0.2036 -0.0499  0.2545
29684W        W45945   0.683  16.041  15.577  0.1557 -0.2507  0.1094
29685W        W45946   2.409  14.586   4.007 -0.0561  0.0719  0.0274
29686W        W45947   8.715   3.358   0.753  0.0840 -0.0999  0.2904
29687W        W45948  17.831  16.801   1.617  0.0113  0.0259 -0.0480
29688W        W45949   4.100   8.431  15.678 -0.1513  0.0182  0.1766
29689W        W45950   5.133  14.101  16.335 -0.1020 -0.1492 -0.2459
29690W        W45951   5.964  11.979  12.726 -0.1049 -0.3371 -0.0339
29691W        W45952   5.064   7.963   4.027  0.0875 -0.4111 -0.2656
29692W        W45953   2.754  11.415  15.662  0.1293 -0.2512  0.0657
29693W        W45954   5.746   3.529   3.488 -0.0735  0.0649  0.0751
29694W        W45955  12.421  12.616  15.644 -0.0017 -0.1349 -0.0134
29695W        W45956   6.501  15.050  15.042  0.1189 -0.1911  0.1368
29696W        W45957   8.851  10.614   0.643 -0.1006  0.1837  0.1418
29697W        W45958   8.506  14.465   3.671 -0.0285  0.0278  0.2058
29698W        W45959   8.189   6.190  14.708 -0.1544  0.0983 -0.2315
29699W        W45960  16.358  11.007  13.285  0.1140 -0.1816 -0.1182
29700W        W45961  17.051   3.326  15.651  0.0074  0.0000 -0.0156
29701W        W45962   0.623  10.787   4.911 -0.2841  0.0607 -0.2545
29702W        W45963   7.911  10.735  12.516  0.1699  0.0717 -0.1072
29703W        W45964  17.148  10.491   4.481 -0.0221  0.0322 -0.1398
29704W        W45965  14.376  15.997   5.500  0.1590 -0.0496  0.1829
29705W        W45966  14.962   0.296  15.995  0.0666  0.0667  0.3300
29706W        W45967   6.331  17.709  14.720 -0.0120  0.0538  0.1626
29707W        W45968  11.263   1.596   0.985  0.1252  0.0448  0.0509
29708W        W45969  12.152   5.309  11.464 -0.3161  0.0131  0.3679
29709W        W45970   7.763  15.235  13.986  0.0161 -0.1634  0.1959
29710W        W45971  12.431   7.946  15.228 -0.1533 -0.1405  0.0789
29711W        W45972   8.521   8.841  16.696  0.3779  0.3076 -0.0500
29712W        W45973   5.506   7.848   3.180 -0.1753 -0.0386  0.2373
29713W        W45974   5.610  11.173   4.011 -0.5440  0.0973 -0.3018
29714W        W45975  11.813  13.871   0.279 -0.0839  0.2958  0.0669
29715W        W45976   6.800  13.046   0.112 -0.1180 -0.0904  0.0033
29716W        W45977  11.851  11.824  15.850 -0.0763 -0.1611 -0.0468
29717W        W45978   5.066  12.020   1.576  0.0050  0.1645 -0.2169
29718W        W45979  14.696   3.646  15.699 -0.0709  0.1310  0.3055
29719W        W45980   7.518  15.313   0.599 -0.0494  0.0228  0.0812
29720W        W45981   4.214  12.638  15.246  0.1325 -0.0181  0.1308
29721W        W45982  12.931   0.258   4.059 -0.1734  0.2001  0.0536
29722W        W45983   5.039   5.938  15.878 -0.0276 -0.2967  0.1349
29723W        W45984   3.020   9.025   0.598  0.1343  0.1653 -0.2465
29724W        W45985   8.258  14.100   5.597 -0.5241  0.0796 -0.2087
29725W        W45986   8.988   1.526   1.873 -0.2150  0.1819 -0.2650
29726W        W45987   0.748   4.064   0.273  0.1316  0.1984 -0.2846
29727W        W45988  12.488  11.184  14.887 -0.2611  0.0841  0.1393
29728W        W45989  13.416  15.185  16.231  0.3307 -0.1327  0.2658
29729W        W45990   4.215  15.016   5.431  0.0264  0.1922  0.0237
29730W        W45991   3.476  10.082  12.819 -0.0057 -0.0224  0.2522
29731W        W45992  13.083   8.149   2.719  0.0770 -0.0772 -0.1614
29732W        W45993   3.968  11.014  14.228  0.0572 -0.0540  0.1668
29733W        W45994   3.534   2.416   2.709  0.1617 -0.0014  0.1910
29734W        W45995  17.234   4.193   2.757 -0.0213  0.0738 -0.0928
29735W        W45996  15.427   5.861  12.950 -0.0892  0.4645 -0.0160
29736W        W45997   7.919   4.746   0.508 -0.1186 -0.1936 -0.1252
29737W        W45998   6.103   1.599   0.923 -0.0632  0.4127 -0.2088
29738W        W45999   2.733   1.832   1.039  0.1040  0.1050  0.0777
29739W        W46000  16.288   7.390  15.539 -0.1660  0.2971 -0.1338
29740W        W46001   3.949  15.795   3.371 -0.1378 -0.3243 -0.4115
29741W        W46002  13.090   6.835   3.181  0.0876 -0.0572 -0.0039
29742W        W46003   6.816  16.354   0.439 -0.3629  0.0485 -0.3399
29743W        W46004  10.377  11.011   1.565 -0.0903 -0.1905  0.3730
29744W        W46005  14.925   6.683   0.307 -0.0625 -0.1147 -0.1222
29745W        W46006   2.533   5.971  16.686 -0.0505  0.3560  0.1215
29746W        W46007   4.673  12.589  15.613 -0.1450 -0.0984  0.1488
29747W        W46008   5.926  16.097   1.296 -0.3928  0.0216 -0.0811
29748W        W46009  11.034  11.755   4.148 -0.1837 -0.0648  0.1778
29749W        W46010  14.126  11.442   4.044  0.1025 -0.0988 -0.1929
29750W        W46011  14.241  11.366  11.683 -0.0824 -0.0727  0.0964
29751W        W46012   6.714  11.635   1.337 -0.0258  0.2735  0.0612
29752W        W46013  13.113   5.297   3.098 -0.3384 -0.1870  0.1526
29753W        W46014   3.006   7.471  11.901  0.5827 -0.1102 -0.1201
29754W        W46015   5.455   1.932   4.116  0.2835  0.3883  0.1796
29755W        W46016   4.719   6.501   4.728  0.0968 -0.1939 -0.0952
29756W        W46017   0.452   2.873   4.586  0.0027 -0.1215 -0.0109
29757W        W46018  12.224   7.143  12.466  0.3314 -0.0990  0.4727
29758W        W46019   3.487   3.076  12.541 -0.1004 -0.3391 -0.3763
29759W        W46020   4.608   1.886   3.261  0.1800 -0.1960  0.1415
29760W        W46021   5.681   6.552  14.290  0.4247 -0.0617  0.0303
29761W        W46022   9.377   2.301   0.046 -0.1813  0.2856  0.3671
29762W        W46023   7.412   4.999  12.168  0.2203  0.2462  0.0704
29763W        W46024  11.871  12.024   5.671  0.1486  0.2585 -0.1354
29764W        W46025   6.188   0.162  12.851  0.1039  0.0065  0.1222
29765W        W46026   9.539  10.516  13.133 -0.4086  0.0698 -0.2426
29766W        W46027   6.017  16.377   5.831  0.1015  0.0921 -0.0097
29767W        W46028   0.363  10.534   0.803 -0.1833  0.0443 -0.1273
29768W        W46029   7.250  11.183  16.867  0.0191  0.1292  0.0703
29769W        W46030  13.276  10.424  12.082  0.4134 -0.0665 -0.1020
29770W        W46031   5.434   9.275   4.941  0.2596  0.2847 -0.1153
29771W        W46032  10.810   0.951   1.541 -0.2931  0.3586 -0.0419
29772W        W46033   1.907   7.816   6.241  0.1469 -0.0119 -0.1490
29773W        W46034   5.742   8.807  11.688 -0.1861 -0.3648  0.3511
29774W        W46035   5.800   4.058  14.476 -0.2579 -0.1600  0.2261
29775W        W46036   4.935   0.641   5.837  0.0686 -0.2975  0.1509
29776W        W46037  10.997  11.018  16.832  0.1257  0.1083 -0.0326
29777W        W46038  13.654   9.928  16.404 -0.0292  0.2151 -0.0918
29778W        W46039  12.572  16.087   5.130  0.0255  0.0072 -0.0103
29779W        W46040  16.154  12.937   1.793  0.0171 -0.2941  0.3014
29780W        W46041  16.475   1.887   3.445  0.0508  0.0928 -0.2324
29781W        W46042   4.618   0.253   2.452  0.1724  0.2371 -0.1444
29782W        W46043   5.227   8.501   5.386  0.0205  0.0525  0.1750
29783W        W46044   0.543   5.233   5.448 -0.4542  0.0199  0.2071
29784W        W46045  14.620   5.271   2.217 -0.1256 -0.1467  0.1283
29785W        W46046  14.915  17.598   3.730  0.1091 -0.2823 -0.2272
29786W        W46047   1.972   6.291   1.841 -0.0844 -0.1972  0.0033
29787W        W46048   3.112   6.003   3.011 -0.1308  0.2296 -0.0764
29788W        W46049  17.153   5.040  16.545  0.1976  0.2378  0.4467
29789W        W46050   2.113   3.922  15.890  0.0134 -0.0463  0.0879
29790W        W46051  16.551  12.207  14.718 -0.0514 -0.0943  0.2561
29791W        W46052  16.248  14.324  11.833 -0.2011  0.3667 -0.1016
29792W        W46053   7.753   1.028   3.256 -0.1097  0.2772 -0.2589
29793W        W46054  17.362   5.522   3.411 -0.1723  0.0419  0.0352
29794W        W46055   4.248   0.831   3.652 -0.2433 -0.1086 -0.1641
29795W        W46056   1.267   2.131  16.536 -0.0446  0.3947  0.1559
29796W        W46057  15.364  15.197  16.712  0.0117 -0.1142  0.3961
29797W        W46058  15.913  16.994   4.864 -0.0517  0.4274 -0.2399
29798W        W46059   8.654  11.042   2.660  0.1647 -0.2324  0.1056
29799W        W46060  12.635   5.888   3.554  0.1261 -0.2136 -0.0473
29800W        W46061   0.788   1.456   0.858  0.1072  0.1164  0.3221
29801W        W46062   8.039   6.067   1.157  0.0680  0.1070  0.0876
29802W        W46063  14.007  11.742  13.046  0.0691  0.4753 -0.2365
29803W        W46064   7.546   5.992   0.997 -0.0993 -0.0069  0.0912
29804W        W46065  16.676  11.157   2.037  0.0581  0.1479  0.1768
29805W        W46066  17.668   8.775  16.766 -0.1680 -0.3685  0.2215
29806W        W46067  11.078   9.804  12.388 -0.0271 -0.0772  0.3046
29807W        W46068   3.059   0.972   0.316  0.0321 -0.3133 -0.5226
29808W        W46069   4.893  17.217  16.760 -0.3737 -0.1011  0.1250
29809W        W46070   0.100  13.367  15.106  0.0783  0.0063 -0.0252
29810W        W46071   8.401  13.629  13.294 -0.1380  0.0440  0.1260
29811W        W46072   3.653  14.384   3.526  0.1015 -0.0495  0.0955
29812W        W46073   5.079   7.929  15.396 -0.2788  0.0364 -0.2746
29813W        W46074  16.859  16.722   3.872  0.0657 -0.0767 -0.0799
29814W        W46075  11.659  15.738  14.977 -0.2321  0.2206 -0.0045
29815W        W46076  15.084   5.841   4.919 -0.3765  0.0416  0.1289
29816W        W46077  13.154  15.659   3.856  0.1792 -0.1820  0.2039
29817W        W46078   5.409  13.282   2.699  0.0506  0.0409  0.1871
29818W        W46079  13.765   6.602   4.949  0.1801  0.0736  0.1184
29819W        W46080  11.255   9.684  16.431  0.0574  0.1260  0.0627
29820W        W46081   7.317  10.474   2.976 -0.2441 -0.1061  0.2121
29821W        W46082   1.111   3.134  15.531 -0.1505 -0.0552 -0.4823
29822W        W46083   4.601   4.821   5.424 -0.1851 -0.1263 -0.0854
29823W        W46084  14.095  17.290   1.418 -0.2178 -0.0028 -0.2542
29824W        W46085   9.141  11.630  14.615  0.1332 -0.2526  0.1008
29825W        W46086   8.409  10.895  15.366 -0.0636 -0.0961 -0.3877
29826W        W46087   7.719   4.892   1.748  0.0571  0.1080 -0.2217
29827W        W46088   3.296  10.629   2.740 -0.1055 -0.2255 -0.0130
29828W        W46089  16.466   8.420   3.968 -0.2614 -0.0417 -0.1340
29829W        W46090   9.604   1.416  14.863  0.0279  0.0425 -0.1207
29830W        W46091   7.090   6.144   4.182  0.1369  0.2038  0.0324
29831W        W46092  11.316   7.767  14.080 -0.1015 -0.4548 -0.0112
29832W        W46093   9.678   0.426  16.053  0.0090 -0.0448  0.3046
29833W        W46094   7.679   8.190   5.583 -0.3352 -0.1888 -0.1044
29834W        W46095  12.859  12.435  15.523 -0.2881  0.2576 -0.1072
29835W        W46096   9.626   1.143  15.554 -0.2750  0.0129 -0.0013
29836W        W46097  16.204   6.955  14.571  0.0896 -0.3647 -0.1324
29837W        W46098   0.403   4.517   0.206 -0.1307 -0.2240  0.0417
29838W        W46099  14.285  16.894  12.561 -0.0320  0.1196  0.2037
29839W        W46100   9.801   4.502  14.681  0.0471 -0.3665  0.0434
29840W        W46101   3.356  12.916   0.942 -0.1501  0.1844 -0.0343
29841W        W46102   5.815   5.672  15.171 -0.1003  0.1392  0.0589
29842W        W46103  13.112   3.883  14.388  0.0730  0.3231  0.0198
29843W        W46104   6.654   1.980   4.807 -0.2954  0.0797  0.0187
29844W        W46105  15.997   7.605  12.631  0.0376 -0.1905  0.0225
29845W        W46106   6.999  10.882  11.758  0.0193 -0.1651 -0.4857
29846W        W46107   6.502   9.270  13.071 -0.0793  0.1536  0.1844
29847W        W46108  13.530   5.313   0.790  0.0815 -0.0699 -0.0984
29848W        W46109  12.422   2.779   4.105 -0.0982  0.0002 -0.1087
29849W        W46110  12.578   6.945  12.757  0.2817 -0.0098 -0.0199
29850W        W46111   2.961  15.793  12.697  0.0186 -0.1112  0.0727
29851W        W46112  11.938  16.239   1.416 -0.2311 -0.0986  0.0047
29852W        W46113   4.609  13.569  16.969 -0.0704  0.3120  0.0596
29853W        W46114  12.859  17.156  16.506  0.1104 -0.0321  0.0960
29854W        W46115   9.624   5.517  11.729 -0.0427 -0.0563 -0.1776
29855W        W46116  13.928  12.870   4.834  0.2742 -0.3482 -0.1847
29856W        W46117  11.004   4.428   3.432 -0.0063 -0.1815  0.1500
29857W        W46118   1.909  17.101   2.886 -0.2743 -0.1904  0.0702
29858W        W46119   9.063  13.097   2.572 -0.2763  0.2158 -0.1892
29859W        W46120   8.517  15.718   2.117 -0.1838 -0.1086 -0.2906
29860W        W46121   9.214   9.439  11.777  0.0498  0.2957  0.1071
29861W        W46122   7.198   0.197   6.118 -0.1780 -0.0219  0.1919
29862W        W46123   3.790  14.094   1.045 -0.1130  0.0674  0.0441
29863W        W46124  15.071  14.366   5.943  0.0945 -0.1793 -0.2461
29864W        W46125   4.768  14.433  13.224  0.2441 -0.1308  0.1973
29865W        W46126   1.142  16.117  15.653 -0.2206 -0.0085  0.0405
29866W        W46127  12.567   1.022   5.564 -0.0152  0.2328  0.1258
29867W        W46128  14.098  14.754   3.651  0.1817 -0.1048  0.2034
29868W        W46129  15.892   5.105  14.662 -0.0534 -0.1196 -0.2153
29869W        W46130  16.421   9.831   5.059 -0.3938 -0.1166  0.1741
29870W        W46131  17.163   3.490   1.422  0.1503  0.0875 -0.1666
29871W        W46132  17.346  17.386   0.656  0.1257  0.0500 -0.3070
29872W        W46133   7.889   7.369  12.212 -0.0127 -0.1975  0.1083
29873W        W46134   5.339  14.863  13.905  0.0616 -0.0135  0.2858
29874W        W46135  12.545   3.322  13.370 -0.3792 -0.1100 -0.0205
29875W        W46136   3.743   4.483   5.013  0.2692 -0.2668 -0.1470
29876W        W46137  11.742  14.121  11.873 -0.0213  0.3058 -0.0003
29877W        W46138  11.474  13.694  13.841 -0.1594  0.1139  0.0070
29878W        W46139  12.811   8.639   3.223 -0.3206  0.2575  0.2306
29879W        W46140  11.698  11.276  14.530 -0.1031 -0.6069 -0.2907
29880W        W46141   1.467   0.099   0.780  0.2322 -0.2011 -0.1791
29881W        W46142   1.488  14.678   1.387 -0.0206  0.2970  0.1192
29882W        W46143  14.112   7.700  15.109 -0.1772 -0.1013  0.1322
29883W        W46144  17.711  17.190  16.606  0.1772 -0.0656  0.2098
29884W        W46145   8.410   4.299  16.849  0.3466  0.0133 -0.2224
29885W        W46146   2.717   1.391  15.354  0.3298  0.1286  0.0500
29886W        W46147   2.546  16.142   2.970 -0.0998 -0.2410  0.2558
29887W        W46148   7.752  16.314  16.074  0.0501  0.3752  0.2588
29888W        W46149   7.988  16.165   3.083  0.5286 -0.1370  0.0777
29889W        W46150  15.821  12.816   0.849  0.0553  0.0041  0.0969
29890W        W46151   4.853  12.587   4.005 -0.2534  0.3116  0.1223
29891W        W46152  16.884   8.732   3.601  0.2165  0.2247 -0.0693
29892W        W46153  17.845   7.671   4.693  0.0636  0.0924  0.1389
29893W        W46154  10.028  16.079  13.953  0.0384 -0.2843 -0.3085
29894W        W46155   1.583   9.135  12.155 -0.1070 -0.2712 -0.4883
29895W        W46156  15.967   2.107   3.596 -0.3355 -0.2397  0.0265
29896W        W46157  13.522   2.261   1.133  0.2253  0.1825 -0.5520
29897W        W46158   7.994   9.021  15.338 -0.0892  0.1427  0.0349
29898W        W46159   1.383   7.032  16.417  0.0517 -0.0853 -0.1157
29899W        W46160   7.415  17.564   1.885  0.1744  0.2281 -0.1986
29900W        W46161  11.232  14.255  16.084 -0.1413 -0.2483  0.0726
29901W        W46162   1.166   3.807   3.551  0.0963 -0.0342  0.0138
29902W        W46163   6.010  11.774   0.347  0.1543  0.1343 -0.1993
29903W        W46164  11.689  12.173  14.321 -0.1556 -0.0746 -0.0352
29904W        W46165  14.812   2.443  16.388  0.1031  0.0689  0.0204
29905W        W46166   8.329  17.638  16.633 -0.1734 -0.4858  0.1921
29906W        W46167  12.479   0.768   4.275  0.0184 -0.1004  0.3189
29907W        W46168  15.696  17.801   2.776 -0.1759  0.0096  0.0300
29908W        W46169  11.684   5.477   5.470 -0.0335 -0.0066 -0.3193
29909W        W46170   7.329  13.274   2.142 -0.4247  0.1173  0.2373
29910W        W46171  13.279  12.794  16.791  0.1902  0.1592 -0.2390
29911W        W46172   0.331   9.549  16.893 -0.1609  0.0337 -0.0064
29912W        W46173  12.356   8.915  15.803  0.0095 -0.0827 -0.1040
29913W        W46174  16.956  15.822   3.607 -0.1506 -0.2890  0.3145
29914W        W46175   1.558  14.597  13.415  0.0145 -0.0837 -0.1538
29915W        W46176   7.633   1.344  15.348  0.2497  0.2773  0.1331
29916W        W46177  14.659   0.645   3.532 -0.1099  0.1345  0.0091
29917W        W46178   4.445   3.576  12.089 -0.0287 -0.2926 -0.1527
29918W        W46179  12.674   1.705   2.283 -0.1485 -0.2281  0.0677
29919W        W46180   7.761  17.208   4.610 -0.2615  0.2451 -0.3282
29920W        W46181   9.570   3.479  12.580  0.0622  0.1483  0.1656
29921W        W46182   2.962  10.128  13.905  0.2511 -0.0584  0.1082
29922W        W46183  14.993   5.545   2.598  0.1044 -0.0696 -0.0092
29923W        W46184  11.961   2.522  15.765 -0.0182  0.1846  0.0865
29924W        W46185   2.369  10.360   0.527 -0.0414 -0.3033  0.0306
29925W        W46186  10.629  16.768   1.786 -0.1280 -0.1470 -0.0044
29926W        W46187  12.361   3.322  16.046  0.0225 -0.2835 -0.0206
29927W        W46188  16.146  16.230   0.633 -0.1794 -0.0149 -0.6134
29928W        W46189   9.615   2.404  13.133 -0.0070  0.3548  0.0130
29929W        W46190   9.046   0.398   2.583 -0.3086  0.0157  0.1204
29930W        W46191   9.588   7.265  14.607  0.0642  0.0577  0.1726
29931W        W46192  12.978   5.863   0.223  0.0689 -0.1122 -0.0183
29932W        W46193  11.086  13.221   5.102  0.1317 -0.0339 -0.1760
29933W        W46194  17.538   0.417   2.248 -0.0876  0.4539  0.0532
29934W        W46195  12.150  16.190   2.845 -0.0919 -0.0104  0.0200
29935W        W46196   6.105   3.044  13.240  0.1829  0.1178 -0.1789
29936W        W46197   6.186   8.869  13.097  0.0655 -0.0064  0.2190
29937W        W46198   3.568  17.777  12.663  0.1474  0.0293 -0.2011
29938W        W46199  17.513  11.174   5.575 -0.3998 -0.1947  0.2457
29939W        W46200   3.402   6.520  13.586  0.1232  0.2281  0.1217
29940W        W46201  13.467   2.446   0.135 -0.0359 -0.0393 -0.2796
29941W        W46202   6.239   0.195  12.260 -0.0052  0.0757 -0.1419
29942W        W46203   0.554  17.357   5.019  0.0091  0.0710 -0.1212
29943W        W46204  10.592   2.702   1.461 -0.0964  0.0978  0.1288
29944W        W46205   7.580   1.635  15.797 -0.1467  0.3419 -0.1512
29945W        W46206   8.690  16.851   4.141  0.2527 -0.1447  0.1933
29946W        W46207  10.509  16.929   2.788 -0.0693  0.0441  0.1085
29947W        W46208  17.225   8.383  13.685 -0.2618 -0.0707  0.2367
29948W        W46209  10.857  16.543  11.777 -0.2795 -0.0194 -0.1808
29949W        W46210  12.590  12.014   2.157 -0.1013 -0.0408  0.1865
29950W        W46211   4.787   5.882   3.731 -0.0115  0.0251  0.3252
29951W        W46212  11.980   7.991   3.918 -0.2653 -0.0709  0.2506
29952W        W46213  15.341  16.256  11.785  0.0142 -0.2705  0.0864
29953W        W46214   7.444  13.506   3.315 -0.1019  0.0308  0.1650
29954W        W46215  17.389   4.107   3.411  0.1517  0.3477 -0.1175
29955W        W46216   2.549   2.038  13.406 -0.1002  0.0090  0.1126
29956W        W46217   9.763  16.243  15.280 -0.4108 -0.3527  0.0951
29957W        W46218  17.591  15.528   5.201 -0.2661 -0.1972  0.0903
29958W        W46219  13.993  16.728   5.139 -0.1204 -0.1183  0.1546
29959W        W46220   7.735   3.318  12.579  0.0514 -0.1864 -0.0326
29960W        W46221   3.311  12.274   1.463 -0.0870  0.0201  0.0116
29961W        W46222  11.557  17.412   3.626  0.2098 -0.1081  0.0979
29962W        W46223  11.306   6.243   1.771  0.0674 -0.0160 -0.0265
29963W        W46224  16.652  17.011  13.335 -0.0595  0.0060  0.3724
29964W        W46225  14.613  14.145  10.909  0.0543 -0.0447  0.1845
29965W        W46226  14.582   7.832  16.014  0.2155 -0.1577  0.3756
29966W        W46227   9.758   9.665  12.598 -0.0464 -0.6237  0.0900
29967W        W46228   5.994  14.932   5.158  0.0314  0.0601 -0.1764
29968W        W46229  10.689   7.159   5.027 -0.1496 -0.0796 -0.2598
29969W        W46230   0.716   5.449  15.679  0.0423  0.1339 -0.1000
29970W        W46231   8.665   1.188   2.247 -0.0799 -0.0706 -0.1616
29971W        W46232  13.277   7.888   3.995  0.1384  0.1070 -0.0586
29972W        W46233  13.581  15.585  15.395 -0.0514  0.2377 -0.1585
29973W        W46234  14.796  12.469  12.789  0.1726 -0.1489 -0.1081
29974W        W46235  17.625   2.956   1.354 -0.0478 -0.0064 -0.0460
29975W        W46236   9.801  12.466  10.830 -0.4070 -0.0593 -0.2468
29976W        W46237  10.559  15.395   5.404 -0.0868 -0.0678 -0.1542
29977W        W46238   9.281  16.272   5.380  0.2879 -0.1983 -0.2757
29978W        W46239   1.917   8.861  15.784 -0.0659 -0.0452 -0.0459
29979W        W46240  14.463   3.615   5.648 -0.3763 -0.1270 -0.1748
29980W        W46241   9.767   0.620  14.610  0.3544  0.3263 -0.1741
29981W        W46242  17.122   0.437   4.156 -0.1375 -0.0078  0.0807
29982W        W46243   6.425   2.122   4.331 -0.2816  0.1233 -0.1235
29983W        W46244   2.219  15.539   1.692 -0.2016 -0.0640 -0.0432
29984W        W46245  15.300   5.572   5.501  0.1802 -0.0221  0.0297
29985W        W46246   0.915  17.841   5.480  0.1901 -0.1057 -0.0256
29986W        W46247  14.103  14.371   3.992 -0.0988  0.1585 -0.0849
29987W        W46248   0.130   9.738   2.857  0.1704  0.2871  0.1928
29988W        W46249  15.264   1.959  12.593  0.1457 -0.0084 -0.4533
29989W        W46250   3.548  15.589   5.492 -0.1482  0.2827 -0.0016
29990W        W46251  14.816   3.078  16.253  0.1976  0.1840 -0.0617
29991W        W46252  16.974   5.340  11.813 -0.1841  0.1797  0.1343
29992W        W46253  17.009   4.544  11.989  0.0316  0.0937 -0.4767
29993W        W46254   6.325  14.298   6.017 -0.0525 -0.0347 -0.0401
29994W        W46255   4.580   1.924  14.153 -0.1410 -0.0870  0.0700
29995W        W46256  11.430   9.848   3.137 -0.0769  0.0188  0.0139
29996W        W46257  15.115   8.502  16.390 -0.0623 -0.1032  0.1629
29997W        W46258  13.572  14.802   1.293  0.1962 -0.2136 -0.1094
29998W        W46259  16.157   4.714  12.606 -0.2140 -0.0030  0.0249
29999W        W46260  16.055  14.826   3.010 -0.2868 -0.1009 -0.0537
30000W        W46261  10.016  14.381   6.622  0.1481  0.3316  0.0526
30001W        W46262   3.511   4.351   3.607  0.3217 -0.1106 -0.0384
30002W        W46263   2.612   7.789   2.461 -0.0968  0.0617 -0.0441
30003W        W46264   8.153   3.049  12.674  0.1669 -0.0665 -0.3440
30004W        W46265   1.390  10.764   0.799 -0.1322  0.2206  0.2370
30005W        W46266   5.008  17.239   0.474  0.4335 -0.0334  0.4090
30006W        W46267  14.230  13.202   4.561 -0.1019 -0.2801 -0.1296
30007W        W46268  10.862  15.691  13.957  0.2767  0.1320 -0.4970
30008W        W46269  16.431  11.018  15.904  0.2323 -0.1530 -0.1113
30009W        W46270   1.116  17.485   4.989  0.4569  0.0101  0.0158
30010W        W46271   0.630  14.758  15.033  0.0280 -0.0286  0.0276
30011W        W46272  13.714   6.733  15.042 -0.3176 -0.1769  0.1650
30012W        W46273   7.762   4.845  16.134 -0.2331 -0.1375 -0.0521
30013W        W46274   8.251  11.419  14.872  0.0722  0.2494  0.4012
30014W        W46275  10.273  11.589  15.748 -0.1420  0.1240  0.1696
30015W        W46276   5.808   2.630  16.806 -0.0294 -0.0993 -0.0815
30016W        W46277  12.855   5.542  16.161  0.1868  0.3408  0.0310
30017W        W46278   4.203  10.094  14.640 -0.1028  0.1593  0.2956
30018W        W46279   0.490  14.833  14.512 -0.0020 -0.0725 -0.0216
30019W        W46280   8.282   1.941   4.718 -0.1361  0.2305  0.2745
30020W        W46281  11.015  17.809  16.555  0.1972  0.0444 -0.0957
30021W        W46282   5.983   3.569  13.060  0.1224  0.1570  0.1222
30022W        W46283  15.376   1.693   0.056 -0.1273  0.2750  0.1160
30023W        W46284   2.045  15.124  16.885  0.1685 -0.2108 -0.1210
30024W        W46285   1.433  11.910   5.039  0.0050 -0.2231 -0.2342
30025W        W46286   4.633   1.770  14.640  0.2853 -0.3072 -0.0009
30026W        W46287   1.779   8.553   3.881 -0.0054 -0.1144  0.0531
30027W        W46288  14.053  15.131  15.563  0.2988 -0.0649 -0.1858
30028W        W46289  16.102  17.584  14.352  0.2388  0.1004  0.1817
30029W        W46290   1.876   4.759   5.042  0.0110  0.0673 -0.0162
30030W        W46291   3.044   0.377  11.889  0.0579  0.2780  0.2465
30031W        W46292  11.403  17.175   2.240  0.1595 -0.0854  0.1027
30032W        W46293  16.430  15.071   5.007 -0.0683 -0.1379  0.2944
30033W        W46294  17.536  14.717   3.321  0.1289  0.0193 -0.2527
30034W        W46295  11.918   5.937  15.530 -0.2202  0.1009 -0.0693
30035W        W46296  12.398   5.154   4.626 -0.1678 -0.1302 -0.0030
30036W        W46297   0.455  13.077   1.126  0.0553  0.0738  0.1625
30037W        W46298  11.617  11.578   0.144  0.2430  0.3545 -0.2169
30038W        W46299   7.461  13.213   3.788  0.0720  0.1039 -0.2686
30039W        W46300   4.455   7.136   2.287  0.4477  0.1553 -0.0582
30040W        W46301   1.712  12.937  14.383 -0.0320  0.1240  0.0668
30041W        W46302  13.214   5.595   3.953 -0.0088 -0.2539  0.1006
30042W        W46303  14.185   1.438  12.200 -0.2031  0.0671  0.1776
30043W        W46304   5.442   4.679  12.600 -0.1029  0.1592  0.5061
30044W        W46305   2.573   8.311   2.281  0.1732  0.0445 -0.0711
30045W        W46306   1.410   7.592  15.822  0.2170 -0.1222  0.1353
30046W        W46307   6.563   7.786   3.739 -0.2438 -0.3459  0.0692
30047W        W46308  16.319   9.280   5.173 -0.1892 -0.0112 -0.3651
30048W        W46309   7.424  15.886   5.673  0.0748 -0.4796  0.2226
30049W        W46310   5.231   8.191  13.701 -0.0535  0.1547  0.1809
30050W        W46311  11.550   4.479   4.211  0.0115 -0.0039 -0.1762
30051W        W46312   5.681   5.540  14.691  0.2010  0.0557 -0.2355
30052W        W46313  12.973  15.392   1.900  0.0343 -0.1519  0.2171
30053W        W46314  10.517  16.061  14.144  0.0397 -0.1863  0.1130
30054W        W46315  12.829  17.107  11.654 -0.1064  0.1123  0.0828
30055W        W46316   3.961  10.244  12.846  0.1775 -0.2043  0.1505
30056W        W46317   7.043   1.045   1.966 -0.2018  0.0191 -0.1034
30057W        W46318   2.912  14.256  14.242  0.2153  0.0556 -0.5196
30058W        W46319   3.645   0.216   1.248 -0.1668 -0.1609  0.1221
30059W        W46320   5.658   6.422  14.824 -0.1224 -0.0646 -0.0354
30060W        W46321  10.592  16.048   1.142  0.0686 -0.1389  0.1669
30061W        W46322   8.649   0.039   1.409 -0.0758 -0.0871  0.2987
30062W        W46323  17.344  16.296   2.168  0.0918 -0.0979 -0.0142
30063W        W46324   6.082   6.007  13.720  0.1749  0.0083  0.0057
30064W        W46325  11.588   8.253   4.197 -0.2011  0.1160 -0.2912
30065W        W46326   0.190   1.843  13.766  0.0551  0.0437  0.1074
30066W        W46327   9.557   1.323   2.645  0.0358 -0.0337  0.2219
30067W        W46328   4.984   0.928   2.085  0.0432 -0.0331  0.2926
30068W        W46329  10.112   5.817   3.368  0.0217  0.0434  0.1586
30069W        W46330   6.372   8.195   4.843 -0.1134 -0.0650  0.1208
30070W        W46331   1.316  15.896   2.457  0.0385 -0.1060  0.1959
30071W        W46332   6.624  10.003  12.849 -0.2642 -0.1079  0.0072
30072W        W46333   9.962   4.641  16.558  0.2217 -0.3412 -0.1489
30073W        W46334   6.728  11.948   5.333  0.1152  0.0920  0.1950
30074W        W46335   8.749   9.238   4.179  0.2297 -0.0808 -0.1721
30075W        W46336  16.034   9.348   2.611 -0.4344 -0.0459 -0.0826
30076W        W46337   5.308   6.104   2.780  0.1138  0.0536  0.2433
30077W        W46338   7.315  17.548  10.775 -0.1114 -0.0252  0.0634
30078W        W46339   3.349   6.318   3.544 -0.0747  0.0797  0.2916
30079W        W46340  12.982   4.623   1.542 -0.0007  0.2321  0.2818
30080W        W46341   8.967  11.590   6.836 -0.0594  0.0102 -0.1604
30081W        W46342   1.872   0.255  16.676  0.2147  0.2291 -0.0352
30082W        W46343   0.011   7.976  16.209  0.0319  0.0069 -0.1359
30083W        W46344  14.367   0.758   1.293 -0.1552  0.1870  0.0908
30084W        W46345  10.697  13.753   4.258  0.2167 -0.2949 -0.0846
30085W        W46346  14.285   8.050   1.666  0.1353  0.0353 -0.1215
30086W        W46347   8.957   3.217   3.014  0.1490  0.2263  0.0485
30087W        W46348  16.683   5.105   1.702  0.0988 -0.1459 -0.0323
30088W        W46349  15.899  16.773   2.612  0.3806  0.1063  0.1185
30089W        W46350   9.943   7.707  13.362  0.0463  0.2730 -0.4341
30090W        W46351   4.230   8.117   4.598  0.0780 -0.0187  0.4811
30091W        W46352   7.440  12.241  15.080  0.2122  0.1877 -0.0638
30092W        W46353   3.716   2.919   5.531  0.0779  0.0118  0.0193
30093W        W46354   8.478   9.778  15.737  0.0254 -0.1891 -0.0929
30094W        W46355   0.401   9.023  12.429  0.2073 -0.1480 -0.1497
30095W        W46356   2.185   2.278   0.580  0.1492  0.1442  0.1168
30096W        W46357   3.419   2.529   3.955  0.1315  0.2281 -0.2166
30097W        W46358   6.176   7.037   6.246  0.1108  0.2545 -0.1320
30098W        W46359   9.969  14.848  16.171 -0.1675  0.0081 -0.1148
30099W        W46360  16.857   7.925   6.230  0.1214  0.0188 -0.0856
30100W        W46361   3.854  14.778   0.107 -0.1027 -0.0507  0.1712
30101W        W46362  15.360  11.251  13.584  0.0325 -0.0418  0.3268
30102W        W46363  16.302   0.244   1.589 -0.2460  0.3167  0.1949
30103W        W46364  16.771  17.376  16.449  0.0374 -0.2626 -0.2443
30104W        W46365   7.741   5.391   1.757 -0.0433  0.2773  0.0759
30105W        W46366  17.336  13.481  11.585 -0.1310  0.2597 -0.3147
30106W        W46367   3.568  16.066   5.242 -0.0116  0.1282  0.2554
30107W        W46368  17.007  11.173   0.361  0.1683 -0.2794  0.0391
30108W        W46369  14.969  10.168  11.416 -0.2462  0.0601 -0.2014
30109W        W46370   7.492  14.451  14.636  0.3680 -0.0717  0.0154
30110W        W46371  16.515   0.922   1.279 -0.2715  0.2431  0.1340
30111W        W46372  11.161  14.930   3.949  0.1868  0.2446  0.0605
30112W        W46373   9.585   7.684  14.915  0.2569  0.0877  0.1913
30113W        W46374   0.135  17.326   0.029  0.0474  0.2813  0.0011
30114W        W46375   7.680  13.419   5.947  0.2431  0.3421  0.0453
30115W        W46376  14.656  17.336   1.749  0.3507 -0.1414 -0.0425
30116W        W46377  15.648   8.577   5.924  0.0602 -0.1119 -0.3023
30117W        W46378   4.434  10.131   3.427 -0.2574 -0.1315  0.1355
30118W        W46379  17.581  15.154   1.428 -0.0653 -0.1361  0.2933
30119W        W46380   3.534  12.568   0.486 -0.1518  0.2297  0.0096
30120W        W46381   9.086  17.078  16.435 -0.0175  0.1189  0.0338
30121W        W46382  16.416   8.519  13.227 -0.2069 -0.1456 -0.1679
30122W        W46383   2.546  15.495   0.751  0.3033 -0.0422  0.0971
30123W        W46384   5.819  12.995  13.724  0.0326  0.1611  0.1967
30124W        W46385  14.953  14.073   0.997 -0.3653  0.1109  0.1914
30125W        W46386   7.771   5.369   5.125 -0.3132  0.2073  0.0205
30126W        W46387   8.620  15.307   0.685 -0.0835  0.0123  0.0367
30127W        W46388   7.421   4.630   2.749  0.0435 -0.0444  0.1325
30128W        W46389   0.544  12.358  16.810  0.3967 -0.0498 -0.4515
30129W        W46390  13.261  17.425   1.472  0.1114 -0.1304  0.1183
30130W        W46391   1.961   4.254  11.815 -0.0675 -0.3007 -0.0418
30131W        W46392   1.793   9.938   2.626  0.0796  0.0892  0.4260
30132W        W46393  17.716   7.407  11.237  0.1165  0.0848  0.1383
30133W        W46394  15.651   5.257   1.613 -0.0036  0.0712 -0.1831
30134W        W46395  10.233  15.192  16.410  0.2132  0.0187 -0.4849
30135W        W46396   4.221   0.608   2.349 -0.2413  0.0138  0.0285
30136W        W46397   6.644  10.007   2.330 -0.0018 -0.1457  0.0949
30137W        W46398  14.133   9.720  11.886  0.0915  0.0331  0.0108
30138W        W46399   4.028  12.910  16.360 -0.0126  0.1378  0.2256
30139W        W46400   7.225  13.213  16.227 -0.2100  0.2698 -0.0350
30140W        W46401  12.082   4.333   1.004 -0.1155  0.5801  0.0443
30141W        W46402  15.648   0.818  16.544 -0.2753 -0.1585 -0.1238
30142W        W46403   8.593   3.739   3.653 -0.5819  0.2207  0.2345
30143W        W46404   9.516   5.341  16.658 -0.2312 -0.1950  0.1889
30144W        W46405   2.221  14.467  12.629 -0.2996 -0.1092  0.1831
30145W        W46406  13.430   0.237  14.207  0.0190  0.0649 -0.1333
30146W        W46407   7.195  10.461  14.231 -0.0812  0.0689 -0.1606
30147W        W46408  13.861  16.782   1.215 -0.1247 -0.2272 -0.2906
30148W        W46409   1.127   5.875  16.703  0.0801  0.0503  0.0132
30149W        W46410   6.430   6.007   1.767 -0.0337  0.3193  0.3623
30150W        W46411  13.712  14.555   5.015 -0.1333  0.0103  0.1362
30151W        W46412   6.653   4.037  11.358  0.1059 -0.0269  0.0430
30152W        W46413  10.860   1.313   5.525 -0.0339 -0.1017  0.0853
30153W        W46414   6.606   4.102  13.228 -0.3217 -0.1603 -0.2541
30154W        W46415   8.442   9.503   6.146  0.4324 -0.3075 -0.0207
30155W        W46416   5.720  11.419   3.181 -0.0848  0.0557 -0.3210
30156W        W46417   4.990   8.080  14.098  0.1674 -0.2720  0.1505
30157W        W46418   5.661  10.788   3.006  0.1148  0.1818 -0.0867
30158W        W46419  17.540   1.674  13.679 -0.0814 -0.1423  0.0356
30159W        W46420  16.042   0.145   0.662 -0.1004 -0.0453  0.0453
30160W        W46421  13.966   7.390  13.771 -0.0279 -0.0281 -0.2238
30161W        W46422  13.442   8.957   5.843  0.0378  0.2330  0.2640
30162W        W46423  14.552  14.367   0.916  0.1402 -0.2567 -0.0332
30163W        W46424  10.458  17.655   3.044 -0.2338  0.0632  0.0732
30164W        W46425  12.109  12.753   3.104  0.1407  0.0039  0.1024
30165W        W46426  14.160   0.278  14.766 -0.2411 -0.0233 -0.1280
30166W        W46427  13.531   6.632   5.400  0.0863  0.0991 -0.1731
30167W        W46428  14.641   2.772  12.848 -0.1401  0.1029 -0.1560
30168W        W46429  11.426  15.373  13.142 -0.2679  0.0724 -0.0177
30169W        W46430   4.647  17.032  13.514 -0.3907  0.1421 -0.3329
30170W        W46431  11.202   2.239  12.917 -0.2215  0.3145  0.3167
30171W        W46432   1.768  10.793   4.251 -0.0477  0.4610 -0.2342
30172W        W46433   3.930   7.068   2.211  0.0298  0.1100  0.0317
30173W        W46434   7.103  10.736   4.875  0.3990 -0.0813 -0.1445
30174W        W46435  12.695  12.742   0.989  0.1047  0.0744 -0.0294
30175W        W46436  13.185   9.707  16.317 -0.0343  0.3605 -0.1422
30176W        W46437   6.441   2.783  14.873  0.1252  0.2587  0.0407
30177W        W46438  15.525  14.020   2.153  0.3193 -0.1804 -0.2492
30178W        W46439  14.099  13.611  13.042 -0.0460  0.0618 -0.1786
30179W        W46440  13.542   8.118  10.568  0.1979 -0.0113 -0.3196
30180W        W46441   5.374  15.167   2.090  0.0412 -0.1656  0.0929
30181W        W46442   2.206   4.562  15.084  0.0748  0.2135 -0.0892
30182W        W46443   7.600  16.570  16.720  0.0334 -0.2460  0.1322
30183W        W46444  11.997   2.412   0.023 -0.1792  0.4282 -0.1387
30184W        W46445  12.766  10.161  16.979  0.3304 -0.2200  0.0901
30185W        W46446   3.062   6.792  12.522 -0.0081  0.1485 -0.0141
30186W        W46447  13.428   1.884   1.567 -0.4751 -0.1432  0.2021
30187W        W46448   1.776  11.777  15.929  0.1901  0.1528  0.0557
30188W        W46449   7.372   6.049   2.000  0.1993  0.0895 -0.2612
30189W        W46450   5.471  10.675  15.279 -0.1172 -0.3396 -0.2689
30190W        W46451  16.633  11.148   3.561  0.0945 -0.1885 -0.1029
30191W        W46452  16.223  13.779   3.526 -0.0280  0.3526  0.2961
30192W        W46453  15.840   3.776   2.954  0.2022  0.1982 -0.0571
30193W        W46454   2.012   5.177  15.961 -0.0819 -0.0355  0.1103
30194W        W46455   9.016   5.833   2.413  0.0152  0.0230 -0.0436
30195W        W46456  11.173  14.344   1.151  0.1553  0.0781 -0.2515
30196W        W46457   9.074   6.691  11.643 -0.1448  0.1087 -0.0325
30197W        W46458   7.821  10.224   6.160 -0.3710 -0.0114  0.3912
30198W        W46459   7.686  17.625  15.113 -0.0632  0.0101  0.0531
30199W        W46460   9.561  14.249   0.020 -0.2477 -0.0308  0.0608
30200W        W46461  14.054  14.221   3.094 -0.0439  0.2510  0.0508
30201W        W46462  15.763  14.323   3.014  0.1867  0.1145  0.2811
30202W        W46463  11.560   3.942  15.570 -0.2887  0.0486  0.1002
30203W        W46464   0.306  16.946  16.712  0.0461  0.3380  0.1938
30204W        W46465   0.905   3.639  12.581  0.1556  0.0777 -0.1006
30205W        W46466   3.202   9.334  15.303 -0.2677  0.0052 -0.0791
30206W        W46467  15.051   9.754  15.231  0.4063  0.2060 -0.0131
30207W        W46468  10.974   0.281  14.882  0.0631  0.1422 -0.1987
30208W        W46469   5.002  14.082   4.639  0.0892 -0.1199 -0.0708
30209W        W46470   9.820   8.656   4.628  0.2323 -0.2344 -0.0714
30210W        W46471   1.685   6.803  16.751 -0.0487 -0.0772 -0.0434
30211W        W46472   0.357  16.650   4.318  0.3036 -0.2361  0.2557
30212W        W46473  16.184   6.028   1.635  0.0739  0.1810 -0.0934
30213W        W46474   2.171  14.004  15.920 -0.0056  0.1979 -0.2075
30214W        W46475  14.908   1.577  16.387  0.1545  0.1618 -0.0994
30215W        W46476  13.816  12.209   1.426  0.1131 -0.1732  0.1928
30216W        W46477  13.198   9.993  11.599  0.3384  0.1905 -0.1019
30217W        W46478   1.058   8.835   1.272  0.0495 -0.0973  0.2920
30218W        W46479   9.916  17.121  13.804 -0.2297 -0.0487  0.2453
30219W        W46480  14.546   4.000  11.668 -0.2630  0.2881  0.0054
30220W        W46481  10.568   6.632  14.847  0.0555 -0.0358 -0.1429
30221W        W46482  15.404  12.486   3.223  0.0039  0.0743 -0.1409
30222W        W46483   8.325  13.531   1.941 -0.1140 -0.0379 -0.1207
30223W        W46484   6.299  14.207   5.318 -0.1334 -0.2245  0.4365
30224W        W46485  10.084   3.731  14.478 -0.2256  0.3157  0.1291
30225W        W46486  14.909   6.451  16.503  0.0216 -0.0497 -0.0925
30226W        W46487   9.440   8.357   0.805  0.3103  0.0411  0.0305
30227W        W46488  15.834  12.113   1.524  0.1491  0.2077 -0.0580
30228W        W46489  13.846   8.618   2.218  0.0976  0.0629 -0.0588
30229W        W46490   1.570   0.851   0.062 -0.1238 -0.1179  0.0070
30230W        W46491  14.741   5.033   3.289 -0.1131  0.1158 -0.0048
30231W        W46492   1.366  10.040  13.814  0.0340  0.2095  0.0971
30232W        W46493  13.847   1.574  11.285 -0.0245 -0.3060  0.1141
30233W        W46494  11.657   3.947   1.848 -0.3128 -0.5197  0.1073
30234W        W46495  14.182   9.529   5.030 -0.2366  0.0131 -0.0248
30235W        W46496   8.427   4.392  12.241  0.3563  0.2425  0.3128
30236W        W46497  10.846   3.941  16.241 -0.2395 -0.3656  0.1128
30237W        W46498  13.332  17.696   3.277 -0.2196 -0.1462 -0.3026
30238W        W46499   8.208  10.236  16.801  0.3960 -0.0444 -0.2783
30239W        W46500   8.497   2.032   5.801 -0.1087  0.2108  0.0648
30240W        W46501   4.262   3.947   2.980 -0.0294  0.1549 -0.2630
30241W        W46502  17.150  13.119   0.129  0.1697 -0.0140 -0.1472
30242W        W46503   7.086   9.137  11.687  0.3631 -0.1534  0.0587
30243W        W46504  14.322  12.241   1.284 -0.3152  0.2539 -0.2487
30244W        W46505  12.125  12.395  13.270  0.0012  0.0933 -0.0292
30245W        W46506   6.088  10.858  12.081  0.0508 -0.3840 -0.1372
30246W        W46507   4.016   7.830  12.629  0.1346  0.1533  0.3443
30247W        W46508   0.056   2.955   1.789 -0.0207 -0.1314  0.5759
30248W        W46509  14.727   7.403   2.544 -0.0566  0.1759  0.2135
30249W        W46510  11.085  15.070  12.879  0.1760  0.1945  0.0993
30250W        W46511   4.891  13.750  11.366 -0.0768 -0.1718  0.0768
30251W        W46512  15.610  16.755   0.210 -0.1751 -0.0723 -0.1025
30252W        W46513  14.609  15.272   3.251 -0.0771 -0.1598 -0.0477
30253W        W46514   6.023   7.229   0.298 -0.0957  0.1810  0.1644
30254W        W46515   0.220   4.728   4.772 -0.0408  0.1359 -0.1854
30255W        W46516  15.204   3.375  16.389  0.3130 -0.0357 -0.0261
30256W        W46517   9.214   5.208  16.000 -0.0259 -0.1349 -0.1234
30257W        W46518   2.541  11.584   2.607 -0.0025 -0.1970  0.2934
30258W        W46519   4.232   4.646   3.531 -0.1120  0.0154 -0.2033
30259W        W46520   3.382  15.691   0.338  0.1611 -0.0467  0.0877
30260W        W46521  12.873   7.966  12.499  0.2462 -0.0209  0.0408
30261W        W46522   8.224  11.816  15.198 -0.2545 -0.0419  0.0190
30262W        W46523   9.933  16.170  15.710 -0.2187 -0.3566 -0.1922
30263W        W46524  16.124  12.715   3.614 -0.1077  0.0925  0.0791
30264W        W46525  12.960   1.205  12.438  0.2009  0.0153 -0.0155
30265W        W46526  10.216   3.657   4.558 -0.2720  0.3209  0.0529
30266W        W46527  15.097  12.818   4.414  0.0368  0.0266 -0.0322
30267W        W46528   0.693  13.320   3.378  0.4733  0.0557  0.0635
30268W        W46529   7.374  15.898  16.144  0.1381  0.1083  0.0048
30269W        W46530  12.682  11.180  11.371  0.2019 -0.1597 -0.2153
30270W        W46531  16.084  15.753  13.504 -0.3193 -0.1386 -0.1060
30271W        W46532  10.176   1.979  16.715 -0.0425  0.0926  0.3272
30272W        W46533  14.314   4.072  15.133 -0.0362 -0.2397  0.1363
30273W        W46534  11.796  12.641  15.542  0.0317 -0.0756  0.1405
30274W        W46535   6.404   1.336  14.769  0.1526 -0.1936  0.0906
30275W        W46536   9.813   5.409  12.698 -0.1266 -0.1603  0.2461
30276W        W46537  11.828   1.496   3.328  0.1498  0.2463  0.1291
30277W        W46538  10.552  14.168   1.898 -0.1447  0.0390 -0.0689
30278W        W46539  17.655   1.576   1.661  0.2894 -0.0787 -0.1019
30279W        W46540   4.441  12.606  16.394 -0.0172 -0.0400 -0.0262
30280W        W46541   4.470  11.953  12.382 -0.3304 -0.0900 -0.0154
30281W        W46542  14.768  17.755   4.167  0.3983  0.0441 -0.3540
30282W        W46543   0.874  13.426   0.879 -0.0123 -0.3619  0.0524
30283W        W46544   4.109  14.498  16.127  0.2064  0.0219 -0.0896
30284W        W46545   1.636  15.218   5.075 -0.0140 -0.1962  0.0415
30285W        W46546  11.749  16.036  15.812  0.2123 -0.0574 -0.3023
30286W        W46547   0.850   9.495   5.004 -0.1909  0.3277  0.0746
30287W        W46548   3.265   2.511   0.661  0.2229 -0.0735  0.2851
30288W        W46549   6.105  10.419   1.826  0.0426  0.3460  0.0303
30289W        W46550  12.088   9.343  14.093 -0.1219  0.3970 -0.0941
30290W        W46551   4.310   5.688   5.177  0.0131  0.2374 -0.0767
30291W        W46552   7.384  12.873  15.596  0.0162  0.0252 -0.0303
30292W        W46553  16.460   9.925  14.235  0.0484  0.2464 -0.1892
30293W        W46554   9.335   4.030  11.364  0.0236  0.2219 -0.2703
30294W        W46555  16.949   4.773  12.804 -0.1268  0.3246  0.1602
30295W        W46556   5.178  13.839   5.928  0.1794 -0.1757 -0.1097
30296W        W46557  13.101   9.711   1.249  0.5305  0.0409 -0.0679
30297W        W46558   9.381   6.519   2.468  0.1450 -0.1728 -0.2459
30298W        W46559   8.644  15.006  12.939 -0.1683  0.1372  0.2669
30299W        W46560  14.106   9.349  13.396  0.0669  0.0634 -0.1000
30300W        W46561  10.867  17.504   0.778  0.0745  0.0136  0.2576
30301W        W46562   6.762   4.727   4.266  0.1072  0.4665 -0.1364
30302W        W46563  10.395  13.829  15.816  0.1499  0.1592  0.1891
30303W        W46564   2.831   7.130  12.226  0.0891  0.1105  0.1330
30304W        W46565   1.861  12.190   4.538  0.1849 -0.0874 -0.0013
30305W        W46566   6.927  14.971  12.865 -0.1301 -0.2085 -0.1365
30306W        W46567   0.368   0.639  16.533 -0.1620  0.1623 -0.0336
30307W        W46568   0.937  11.150   5.453 -0.1745 -0.0786 -0.1287
30308W        W46569   0.632   5.739   1.880 -0.1161  0.0799  0.1240
30309W        W46570   8.920  17.083   0.846 -0.1873 -0.0132  0.0182
30310W        W46571  14.302   6.499  13.407  0.0210 -0.2440 -0.2943
30311W        W46572   1.904  10.278   2.289  0.0397  0.0994 -0.1482
30312W        W46573   1.418  11.047  15.467  0.0083 -0.1872  0.2906
30313W        W46574   8.964   8.403   3.899  0.1932  0.1412  0.4575
30314W        W46575  10.343  11.930   1.018  0.3123 -0.2267  0.1262
30315W        W46576  12.687   9.199   3.362 -0.2507 -0.2070 -0.2587
30316W        W46577   1.341   2.552  13.909  0.1449 -0.2362 -0.0784
30317W        W46578   6.620   2.367   1.956  0.0823  0.2068 -0.1652
30318W        W46579   1.016  13.128   4.799  0.0663  0.1517  0.5248
30319W        W46580   5.533   1.666  15.119  0.1619 -0.0262 -0.2156
30320W        W46581   0.849  10.953   3.794 -0.1126  0.0687  0.0852
30321W        W46582   8.761   2.666   6.555  0.3474  0.0162  0.2475
30322W        W46583   7.402  11.478   4.760  0.0085 -0.0588  0.2743
30323W        W46584   6.513   4.521  11.453  0.1695 -0.0679 -0.0386
30324W        W46585  16.184  12.304   0.588 -0.1056  0.1729 -0.2233
30325W        W46586   8.826   6.670  15.084 -0.2477 -0.0442  0.4408
30326W        W46587  15.822  15.076   1.951 -0.1614  0.0028 -0.1253
30327W        W46588   2.179   9.642   5.411 -0.1835  0.1735  0.1071
30328W        W46589   7.565  11.186   0.511  0.0569  0.3034 -0.0578
30329W        W46590   0.971   0.693   0.076 -0.0430 -0.2024  0.0170
30330W        W46591  13.116  17.541   2.827  0.0226 -0.0640 -0.1840
30331W        W46592   1.974   2.413   1.587 -0.1470  0.1347 -0.1367
30332W        W46593   2.023  14.484  13.676  0.0993 -0.1014 -0.2154
30333W        W46594  17.325   2.956  14.551  0.1424 -0.0186  0.0650
30334W        W46595   5.367   0.639   0.451  0.1807  0.0511 -0.0666
30335W        W46596  13.847  15.164  12.831  0.0481  0.0765  0.0802
30336W        W46597   5.516  17.112   0.520 -0.1317 -0.1671  0.0829
30337W        W46598  14.465   0.475   5.873  0.1325 -0.2799 -0.0519
30338W        W46599   8.470  17.665   2.019 -0.0700  0.1796 -0.1585
30339W        W46600  14.956   1.546   4.035  0.0476  0.0991  0.1553
30340W        W46601   9.384  11.180  14.116  0.2477 -0.0811  0.5804
30341W        W46602   8.593   6.738   4.376  0.1291  0.1630 -0.1023
30342W        W46603   7.527   8.687  13.591 -0.3074 -0.0420  0.0733
30343W        W46604  12.225  11.897   3.304 -0.0400 -0.3292  0.0215
30344W        W46605   1.205   9.167   5.166 -0.0385  0.0060  0.1460
30345W        W46606   0.535   0.784   1.204  0.0375  0.1422 -0.0588
30346W        W46607   3.665  11.842  13.509 -0.1543  0.0194 -0.1838
30347W        W46608   0.923   3.381   4.060 -0.2909 -0.1663 -0.0338
30348W        W46609  10.952   1.335  16.828  0.0632  0.4881 -0.1480
30349W        W46610   7.652  16.849  14.512 -0.0227 -0.2802  0.1392
30350W        W46611   6.123  17.605  13.660 -0.1717  0.0422  0.2320
30351W        W46612   4.805  16.444   0.462  0.2044 -0.0904  0.0923
30352W        W46613   5.957  16.092   1.781  0.1726  0.1252 -0.0145
30353W        W46614  11.571   6.844   1.248  0.2194  0.0908 -0.1323
30354W        W46615  11.454   7.432   4.405 -0.2747 -0.2829  0.2368
30355W        W46616  13.997   2.753   5.060  0.2645  0.1625  0.1943
30356W        W46617   5.632  12.008  16.957 -0.0810 -0.1540 -0.4243
30357W        W46618  13.118   4.577   2.026  0.4884  0.1381  0.3508
30358W        W46619   3.097   8.574  11.998  0.1719 -0.0634  0.2380
30359W        W46620  12.832  10.912   2.760 -0.0985 -0.0565  0.0361
30360W        W46621   1.431  11.334   4.384 -0.0555  0.0772 -0.2639
30361W        W46622  17.426   1.492  12.601  0.0509  0.3890  0.1730
30362W        W46623  17.769   9.613  15.592 -0.2945 -0.0229 -0.1178
30363W        W46624   7.863  17.065  15.273  0.0504  0.0333 -0.4496
30364W        W46625  13.425  14.196  14.256 -0.2468  0.0911  0.3478
30365W        W46626   5.192   3.111   1.668 -0.1785  0.1162 -0.1514
30366W        W46627  13.251   7.094  16.637 -0.0597 -0.3753 -0.1278
30367W        W46628   1.789   1.871   1.337 -0.1875 -0.2664 -0.2540
30368W        W46629  12.916   6.055  15.031 -0.0974 -0.1306  0.0958
30369W        W46630   3.162  14.538   4.620  0.0760 -0.3085  0.0571
30370W        W46631  15.987   4.342   1.848 -0.2341  0.0099 -0.2248
30371W        W46632  11.815   9.306  12.141  0.3554  0.0779 -0.2124
30372W        W46633  14.057   6.111  12.351  0.1053 -0.1281 -0.0636
30373W        W46634   0.615   4.152  14.702 -0.1445  0.1174  0.1823
30374W        W46635  12.910   2.533  15.887 -0.0487  0.0501 -0.1842
30375W        W46636   3.685   4.929  13.016 -0.0201 -0.0454 -0.0657
30376W        W46637  15.575   3.384   5.161  0.4807  0.1603  0.1543
30377W        W46638   7.622   9.080  12.572 -0.0100 -0.0011  0.1493
30378W        W46639  12.015   3.414  16.393 -0.0179 -0.2220 -0.5770
30379W        W46640   0.053   5.630  12.835  0.2188  0.0049  0.0396
30380W        W46641   0.990  16.872   4.312 -0.3144  0.2418 -0.1855
30381W        W46642  16.546   2.746  11.372 -0.0653 -0.1189  0.2946
30382W        W46643   3.218  11.574  13.493 -0.0707  0.2971  0.1275
30383W        W46644   9.468   7.780   0.004 -0.0230  0.5392  0.1571
30384W        W46645  11.442   1.957  15.125 -0.0053  0.0436 -0.0330
30385W        W46646  11.080   1.662  15.358 -0.2637  0.1517 -0.0990
30386W        W46647  11.402  11.185  14.122  0.0930 -0.0465 -0.1927
30387W        W46648   0.100  14.816   0.728 -0.2934 -0.1311 -0.0995
30388W        W46649   2.919  12.206  12.536  0.0278 -0.0071 -0.0630
30389W        W46650   9.960   2.916   2.941  0.2121  0.1245  0.2626
30390W        W46651   0.695   2.658   1.055  0.4165  0.1603 -0.2681
30391W        W46652   9.485  12.914   3.215 -0.1004  0.1617  0.0189
30392W        W46653  17.056  16.779  13.091 -0.2971 -0.3589  0.3263
30393W        W46654   5.190   9.355  16.981  0.0451  0.3698  0.2476
30394W        W46655   7.907  13.217   1.280  0.2249  0.0818  0.0642
30395W        W46656   8.162   1.122   4.487 -0.1052  0.4334  0.1159
30396W        W46657   3.410  15.627  13.942  0.1959  0.0263 -0.0480
30397W        W46658  16.267   5.262  16.395  0.0622 -0.0143 -0.0635
30398W        W46659  11.331  11.126   5.561 -0.0220 -0.2432 -0.0289
30399W        W46660  11.484   6.874   4.819 -0.2226  0.2610  0.1420
30400W        W46661   1.128  16.575   4.875  0.4238  0.0419 -0.1086
30401W        W46662  14.352   9.354   0.702 -0.2763 -0.2492  0.2231
30402W        W46663  17.623   4.940  16.277 -0.0427 -0.1726  0.2225
30403W        W46664   6.560   6.544  14.253  0.1217 -0.0601 -0.0549
30404W        W46665   6.056  10.983  13.698 -0.0968 -0.0747  0.0520
30405W        W46666   5.926   5.622   0.098  0.0153  0.0797  0.1479
30406W        W46667   6.326   3.033  16.086 -0.1617  0.2181 -0.2041
30407W        W46668   6.141  17.248   1.766 -0.1965 -0.2856 -0.0786
30408W        W46669   9.788   5.002  16.825  0.3855 -0.0919 -0.2849
30409W        W46670  10.026   4.888   0.352 -0.0546 -0.0894 -0.1043
30410W        W46671  11.333   8.627   5.138  0.0403  0.0400 -0.4370
30411W        W46672   9.701   0.041  13.602  0.0178 -0.0597 -0.2274
30412W        W46673   4.548  15.894   1.678  0.1601 -0.0516  0.0609
30413W        W46674   1.292  12.369   4.044 -0.0337 -0.0549  0.1457
30414W        W46675  14.301   0.996   3.749  0.1680  0.2592  0.1807
30415W        W46676  10.720   2.801   4.146  0.0820  0.0624 -0.0063
30416W        W46677  10.363   1.459  14.343 -0.1345 -0.2224 -0.3745
30417W        W46678   0.801   8.357  15.832  0.1285 -0.0751  0.1966
30418W        W46679  14.569   6.551   0.716  0.1254 -0.0298 -0.1235
30419W        W46680  11.787   3.528   1.540 -0.0569  0.0092  0.2462
30420W        W46681   1.801   0.281  14.042 -0.0079 -0.1554 -0.0764
30421W        W46682   5.435  11.390   2.282  0.2275  0.0560  0.0496
30422W        W46683  10.218   2.729  15.913 -0.1491  0.0822 -0.3228
30423W        W46684  11.688  10.421  16.255 -0.0753 -0.1117  0.2706
30424W        W46685   3.200   6.474   0.723 -0.0277 -0.0606  0.0228
30425W        W46686  12.466  13.878   2.195 -0.0863  0.0371 -0.0550
30426W        W46687   7.502   0.351  15.201 -0.1095  0.4306  0.0878
30427W        W46688  13.951   2.958   1.416  0.0332  0.3221 -0.2778
30428W        W46689   7.774   6.893   2.139 -0.1425  0.0244 -0.2661
30429W        W46690  10.374  15.092   3.803  0.0930  0.0194  0.2981
30430W        W46691   4.659   6.659   1.579 -0.3521 -0.1614  0.0918
30431W        W46692  10.562  15.783   4.630 -0.1889 -0.3022  0.0354
30432W        W46693  12.458   5.670  14.795  0.3869  0.1146 -0.3028
30433W        W46694  17.617  13.852   5.218  0.1433  0.0795  0.0019
30434W        W46695  12.778   1.967  13.324 -0.1149  0.0720  0.1820
30435W        W46696  17.759  13.307   3.973  0.1229  0.2839 -0.1828
30436W        W46697  16.284  16.512   3.643 -0.1536  0.0973 -0.1502
30437W        W46698  15.172  13.084   4.991  0.1545  0.1958  0.0353
30438W        W46699   5.921  14.289  16.851  0.0365  0.0006 -0.0039
30439W        W46700   3.446   8.085  14.550 -0.0534 -0.0872 -0.4245
30440W        W46701   1.842  13.123  13.075 -0.1446  0.0805 -0.2641
30441W        W46702  13.433  11.985  13.069  0.2055 -0.0467 -0.4322
30442W        W46703   8.907  13.665  12.294 -0.1016 -0.0708 -0.0743
30443W        W46704  10.620   8.579   3.028 -0.0502  0.2446 -0.0355
30444W        W46705  13.082  12.098   0.331 -0.0260  0.2033  0.1424
30445W        W46706   3.361  11.437   5.246  0.0706  0.2390 -0.0621
30446W        W46707   1.211   3.481   6.179 -0.2127 -0.0499  0.0019
30447W        W46708  10.182  13.839   5.973  0.0660  0.1234  0.2952
30448W        W46709   2.774  14.630   1.898 -0.1076 -0.1192  0.0191
30449W        W46710  13.835   2.423  14.174 -0.1224 -0.0482  0.0809
30450W        W46711  11.264   5.096   4.046 -0.0224 -0.1512  0.0628
30451W        W46712  10.872   1.662   4.285 -0.1074 -0.1356 -0.0194
30452W        W46713  17.342  15.325  13.598 -0.1586 -0.3833  0.3157
30453W        W46714   9.267   8.178  15.394  0.1634 -0.1621  0.2602
30454W        W46715  12.891  11.336  14.584  0.3053 -0.2623  0.2441
30455W        W46716   6.807   5.090  15.626 -0.1313  0.3151 -0.0964
30456W        W46717   8.889  16.348  12.916  0.0194 -0.0274  0.2449
30457W        W46718  15.646   5.103   4.987 -0.1240 -0.1482 -0.1283
30458W        W46719  14.384   9.055   4.194 -0.0740 -0.1647  0.0021
30459W        W46720   4.032  17.085   4.995 -0.0951  0.1535 -0.2389
30460W        W46721  11.945   9.900   3.322 -0.0717 -0.0575 -0.0323
30461W        W46722   8.980   1.998  14.444 -0.0064 -0.0389 -0.2147
30462W        W46723  12.537   9.955  15.031 -0.3207 -0.0312  0.1038
30463W        W46724  12.074   1.538   0.454 -0.2283 -0.2281 -0.3069
30464W        W46725  17.095   5.199   4.667  0.1249 -0.1368  0.4954
30465W        W46726   2.575   3.948   1.315 -0.0678  0.1904 -0.1256
30466W        W46727  11.886  13.274   1.360  0.3010 -0.1960  0.1109
30467W        W46728   4.451  14.046  16.965 -0.0436  0.0741 -0.2149
30468W        W46729   0.079  14.549   4.506  0.0153  0.0223 -0.3360
30469W        W46730  14.373   3.814  16.516 -0.0134  0.0479 -0.3772
30470W        W46731  14.250   6.249  15.467  0.0942  0.0056 -0.2091
30471W        W46732   0.258   3.878   2.803 -0.1588  0.1035 -0.1768
30472W        W46733  11.530   6.874   2.552 -0.0362 -0.2503 -0.2991
30473W        W46734   0.323   0.741  13.500 -0.0153  0.0684  0.1049
30474W        W46735   9.008   8.909   0.543  0.0881  0.0402 -0.0953
30475W        W46736   1.707  13.486   2.273  0.3257  0.0804  0.1984
30476W        W46737  10.225   0.165   2.139 -0.0062 -0.0463 -0.1408
30477W        W46738   3.639  14.732  14.060  0.1799  0.0400  0.0292
30478W        W46739   4.374   9.380  14.531  0.0670 -0.3355  0.0157
30479W        W46740   7.479  11.853  14.473 -0.0237  0.0282 -0.4202
30480W        W46741   4.961  15.335  15.226 -0.1185  0.1587  0.0021
30481W        W46742  15.265   3.986  16.308  0.2978  0.1168  0.2671
30482W        W46743  13.396  17.806   3.823 -0.1312  0.3122  0.0222
30483W        W46744   0.575  13.637   2.974 -0.3619  0.2859  0.0510
30484W        W46745  12.655   4.932  15.117  0.1085 -0.3499 -0.0877
30485W        W46746  15.889   9.349   1.089 -0.2339 -0.0517 -0.2877
30486W        W46747  15.733   5.499   2.925 -0.2372 -0.1135  0.2987
30487W        W46748   3.173  16.186   4.528  0.2006  0.0571  0.0930
30488W        W46749   2.891   3.122  14.948 -0.1189 -0.0670 -0.0786
30489W        W46750  13.032  10.595  14.251  0.2553  0.2827 -0.0972
30490W        W46751   7.663  11.401   1.648  0.1392  0.2088  0.0140
30491W        W46752   2.144   8.142   2.998  0.1519 -0.0864 -0.1127
30492W        W46753  12.957  17.603   1.848 -0.1048  0.0863 -0.2923
30493W        W46754  10.403  10.994   3.112  0.2628  0.1794 -0.1326
30494W        W46755  17.718   2.782  13.286  0.0334 -0.2885 -0.0165
30495W        W46756  13.420  16.285   1.038 -0.3393 -0.2025  0.0588
30496W        W46757   7.457  13.658  13.391 -0.0269 -0.0051  0.0106
30497W        W46758   7.174   2.593   1.734 -0.0020 -0.2983  0.0149
30498W        W46759  11.201  14.421  14.061  0.1181  0.0364  0.1916
30499W        W46760  12.028   5.979   2.401 -0.0773  0.0022  0.2967
30500W        W46761  12.110   8.163  15.521  0.1023 -0.0697 -0.2977
30501W        W46762   5.736   2.176  12.900 -0.2228  0.1504  0.2799
30502W        W46763   2.083   8.533   4.754  0.1919 -0.1807  0.0803
30503W        W46764  14.421   2.833  14.204 -0.2112  0.1231  0.1694
30504W        W46765  12.261   5.530   0.466 -0.1686  0.3033  0.1521
30505W        W46766   7.960   4.175  16.433 -0.3135 -0.0703 -0.1731
30506W        W46767   3.394  17.784  16.422 -0.2386  0.1104 -0.1086
30507W        W46768   4.102   7.331   2.697 -0.0983  0.0863 -0.0345
30508W        W46769  14.770   6.284  15.709 -0.1440 -0.4062 -0.0317
30509W        W46770   4.805  13.470  13.279  0.1934  0.0873 -0.0979
30510W        W46771  11.406  11.921  16.091 -0.1718  0.0481  0.1167
30511W        W46772   4.816  17.618   0.184 -0.1008 -0.0681  0.0478
30512W        W46773  12.473   0.343  12.138 -0.0598  0.2583 -0.2949
30513W        W46774   2.190  10.727   6.583 -0.2122 -0.0889 -0.0491
30514W        W46775  10.187  16.514   1.814 -0.0468  0.0465  0.2190
30515W        W46776  11.060  17.388   3.722  0.1189  0.1584  0.0724
30516W        W46777  13.079  16.423   2.818  0.2154 -0.1001  0.0537
30517W        W46778  11.522   4.228  16.901  0.0328 -0.2581 -0.0380
30518W        W46779  12.819   3.796  15.810  0.2813  0.1874 -0.0184
30519W        W46780  13.920   9.132   3.990 -0.2361 -0.3586  0.2468
30520W        W46781   8.976   2.091   3.285 -0.1640 -0.0450 -0.1330
30521W        W46782  11.197  17.148  14.121 -0.0303 -0.0219 -0.1778
30522W        W46783   5.928  14.784   0.156  0.0283  0.0309 -0.0567
30523W        W46784   4.523   4.532   2.521  0.2155  0.0907 -0.1077
30524W        W46785   0.446  15.879   1.499 -0.0196 -0.2538 -0.0039
30525W        W46786   8.988   1.338  12.171 -0.1916 -0.1964  0.1611
30526W        W46787  10.020   5.480  13.831 -0.1526 -0.3337  0.1780
30527W        W46788   7.501  12.261  13.540 -0.1218 -0.0921  0.0461
30528W        W46789  16.303  12.921  15.534 -0.2279  0.0797 -0.1648
30529W        W46790   2.479   0.210  15.952  0.0854  0.3009  0.1258
30530W        W46791  11.910   4.315   1.595 -0.1398 -0.0750  0.2735
30531W        W46792   1.219   9.434   0.443  0.1447  0.3973  0.3876
30532W        W46793  10.409  10.896  16.440  0.0653 -0.1935  0.0363
30533W        W46794   0.385   5.791  15.981 -0.1126  0.2462  0.3030
30534W        W46795   0.360  11.520  12.862  0.0125  0.0019  0.0428
30535W        W46796  10.390   1.954  14.587 -0.1503  0.0828  0.0088
30536W        W46797  15.262   1.974   3.378 -0.3024 -0.2478  0.0090
30537W        W46798   0.818   5.242   1.688 -0.3232 -0.1447 -0.1559
30538W        W46799  10.723   2.681  16.062  0.2233  0.2687 -0.1845
30539W        W46800  13.679   8.597  11.598 -0.1150 -0.0540 -0.1086
30540W        W46801   9.003   0.455   4.459  0.2036 -0.0869  0.0295
30541W        W46802   3.404   3.754  13.131  0.1425  0.0160  0.0205
30542W        W46803   6.494   2.968  13.819  0.3338  0.2322 -0.0763
30543W        W46804  16.630   0.385   3.302 -0.0531  0.1310  0.0164
30544W        W46805  14.260   8.483  13.165  0.0163 -0.2135  0.1327
30545W        W46806   3.279  11.588  11.823 -0.1598 -0.2813 -0.0626
30546W        W46807   6.513   9.459  15.037  0.0604  0.1096  0.1580
30547W        W46808   1.839  13.854   0.447 -0.2433 -0.1278 -0.0222
30548W        W46809   6.951   2.808  11.804 -0.4064 -0.1322 -0.0839
30549W        W46810   8.846   2.786   5.158  0.0656 -0.1246 -0.2916
30550W        W46811  16.122  13.148   3.372 -0.0092 -0.1279 -0.3794
30551W        W46812   1.342  13.260   1.349 -0.1125 -0.1832  0.1743
30552W        W46813  16.972  14.358   0.820  0.1015 -0.0711 -0.2178
30553W        W46814   5.742   9.008  12.866 -0.0155  0.1017 -0.0388
30554W        W46815   4.477   0.077  13.469  0.0834 -0.1659  0.0912
30555W        W46816  13.868   6.365  14.714  0.0968  0.0660  0.0164
30556W        W46817   8.250   5.620  15.877 -0.2111  0.0357  0.0453
30557W        W46818  10.871   8.710  16.874 -0.0325 -0.0144  0.1320
30558W        W46819   3.958   5.026  15.976  0.0775  0.2185 -0.1334
30559W        W46820  14.565  10.634  14.246  0.0985 -0.1391 -0.1264
30560W        W46821  11.494   1.345  15.222  0.0327 -0.2058  0.3350
30561W        W46822   6.136   9.689   0.874  0.0251 -0.2126 -0.1242
30562W        W46823  10.678  12.987   4.002 -0.1925 -0.0978  0.1386
30563W        W46824   4.279   9.487  13.157  0.2045 -0.0273  0.2130
30564W        W46825  16.232   6.457  11.943  0.0561  0.2283  0.1100
30565W        W46826   3.138   0.921   0.842 -0.1803  0.3083  0.3959
30566W        W46827   9.041  14.377   5.391 -0.3384 -0.1630 -0.1631
30567W        W46828  13.294   1.000   2.637  0.3294  0.0262 -0.3590
30568W        W46829   3.818   6.410   5.372  0.2303  0.2140 -0.1143
30569W        W46830   4.018  16.759  14.215 -0.0183 -0.0031 -0.1221
30570W        W46831   6.241  15.424  16.808  0.2731  0.0705 -0.0340
30571W        W46832  10.168  12.197   2.941 -0.1592  0.2589  0.0715
30572W        W46833  17.256  11.014  15.115  0.2153 -0.1922  0.0969
30573W        W46834  11.730   6.256  14.946  0.0503  0.0747 -0.0212
30574W        W46835  12.462   3.750   3.250 -0.1003 -0.1173 -0.1839
30575W        W46836  13.273   0.273  12.292  0.0912  0.3831 -0.2476
30576W        W46837   4.012   6.652  12.134 -0.0416  0.0698 -0.2910
30577W        W46838  11.187  13.274  16.930 -0.0305 -0.0910  0.1986
30578W        W46839  13.434  12.799   4.673  0.0566 -0.1876  0.1242
30579W        W46840   9.149   4.630  14.749  0.0730 -0.1863 -0.0490
30580W        W46841   2.989   2.016  16.237  0.3893 -0.1643  0.1688
30581W        W46842   4.572   2.369  13.767 -0.0272  0.0529  0.0543
30582W        W46843  15.361   1.506  12.862 -0.0726  0.0749  0.1623
30583W        W46844   4.779   4.918  14.528 -0.0418  0.0902  0.2343
30584W        W46845   8.166   0.825  12.976 -0.1069  0.1691  0.3449
30585W        W46846   9.332  10.908  12.381 -0.4124  0.1292  0.0584
30586W        W46847   4.804   3.491  14.514  0.0651  0.2321  0.3149
30587W        W46848   2.850  10.320   4.205 -0.0695  0.2345 -0.1009
30588W        W46849   5.487  17.195  15.993 -0.1070 -0.0394 -0.1676
30589W        W46850  13.800  17.533  16.393 -0.1751  0.3727 -0.1946
30590W        W46851   1.200   5.155   3.039  0.1097 -0.4013 -0.1476
30591W        W46852  11.156   9.375   1.220  0.0775 -0.0033  0.1082
30592W        W46853   6.058   4.078   4.200  0.3510 -0.0983  0.1955
30593W        W46854  10.621   3.438  13.942  0.2147  0.0272 -0.0794
30594W        W46855   7.985   8.467  13.457  0.0418  0.0401  0.0158
30595W        W46856  15.429  11.214   4.949 -0.1432 -0.1499  0.1664
30596W        W46857  11.351  16.753   2.413  0.1276  0.1433 -0.1098
30597W        W46858  12.253   7.181   5.533  0.0374  0.1687 -0.0131
30598W        W46859   9.521  17.705   1.412 -0.1161 -0.2292 -0.2522
30599W        W46860  11.959   9.187   1.602  0.1754  0.3380  0.3293
30600W        W46861   9.854  15.417   0.807 -0.1291  0.1073 -0.2326
30601W        W46862   3.821  12.756   3.772  0.2153  0.1396  0.0029
30602W        W46863  14.646   4.773  14.728 -0.1396 -0.1552  0.0645
30603W        W46864   8.818   7.273  16.195  0.0964 -0.2692  0.1223
30604W        W46865   9.749  11.504  15.719  0.1698 -0.1187 -0.0798
30605W        W46866  16.250   2.061   4.124  0.2581 -0.0343 -0.1194
30606W        W46867  15.902   3.235  14.382  0.0242  0.4712 -0.1748
30607W        W46868   6.689   0.977  16.267  0.1903 -0.1912  0.0609
30608W        W46869  11.387   0.902  16.418  0.1970 -0.2060 -0.1048
30609W        W46870  11.131  12.958  13.431 -0.0740 -0.3884  0.0517
30610W        W46871  11.718   2.982  14.694  0.1842 -0.0794 -0.2260
30611W        W46872  13.136  15.887   2.862  0.0610  0.1441  0.1673
30612W        W46873   6.889   1.594   1.968  0.0998  0.2113  0.0483
30613W        W46874   0.689  14.733  13.691 -0.1129  0.1587 -0.1065
30614W        W46875   6.262   6.881  13.102 -0.1671 -0.4068 -0.0482
30615W        W46876  14.543  12.931  12.709 -0.3158  0.1427  0.0186
30616W        W46877   9.243  10.145  13.261  0.1524  0.0368 -0.1830
30617W        W46878   2.921  13.097   0.440  0.1764 -0.1316 -0.0143
30618W        W46879   8.090   5.541  12.509 -0.0665 -0.2496  0.0753
30619W        W46880   4.584   5.985  15.595 -0.1555  0.0951  0.0027
30620W        W46881  17.538  16.017   5.851  0.3489  0.1357  0.1194
30621W        W46882   0.191   6.370   3.719  0.1089 -0.2447 -0.2494
30622W        W46883  15.966   9.514   4.912 -0.1158 -0.1907 -0.2953
30623W        W46884   7.300   8.479   4.557  0.1493 -0.2121 -0.2694
30624W        W46885  17.548  15.830  14.649  0.1172  0.0310  0.2195
30625W        W46886   1.791  11.561  13.312 -0.1078  0.0596 -0.1521
30626W        W46887  10.544  17.485  11.838 -0.2059 -0.0037  0.1272
30627W        W46888   4.053  17.268  13.118  0.0106 -0.2200 -0.0828
30628W        W46889  11.467   6.836   3.466 -0.0078 -0.0726 -0.0641
30629W        W46890   8.733  12.898   1.202 -0.1410  0.1198 -0.0564
30630W        W46891   5.312   8.989  14.575  0.1474  0.0550  0.0620
30631W        W46892   0.477   7.027  15.457 -0.0581  0.1463  0.0620
30632W        W46893   2.870   5.114  16.600  0.0607 -0.2982 -0.1166
30633W        W46894   6.056  11.480  12.749  0.1024  0.1275 -0.0343
30634W        W46895   3.799   9.268   0.429 -0.0236 -0.0771 -0.0442
30635W        W46896   9.448   0.428   3.908  0.2527 -0.4444  0.0681
30636W        W46897   8.311  16.021  13.636 -0.1093  0.1087  0.0013
30637W        W46898   9.619  10.820   3.009 -0.1643 -0.1055  0.0176
30638W        W46899  17.114  10.200   0.428 -0.1242 -0.1813 -0.3423
30639W        W46900  15.435   8.893  15.215 -0.3250  0.0193 -0.2439
30640W        W46901   4.298  14.037   2.734  0.1490  0.1690  0.1106
30641W        W46902   3.867   7.775   1.329 -0.0646 -0.2994  0.0562
30642W        W46903  14.697   9.008   3.721 -0.0457  0.0260  0.4249
30643W        W46904   4.407  15.609   3.310  0.0083 -0.2476  0.0767
30644W        W46905  15.067   5.964  14.044 -0.0473 -0.1528  0.0157
30645W        W46906   8.611   1.811   1.980 -0.0934  0.4392  0.6288
30646W        W46907   9.047   6.697  16.095 -0.0157  0.0647 -0.2268
30647W        W46908   0.780   2.171  16.390 -0.3485 -0.0292 -0.2220
30648W        W46909   1.303  10.829   3.604  0.0870 -0.1043 -0.1670
30649W        W46910  10.686   6.075   6.194 -0.3006 -0.0932 -0.0727
30650W        W46911   1.748  12.256   4.055  0.2081 -0.1865 -0.0631
30651W        W46912   8.795   4.558   1.358 -0.3142 -0.1859 -0.0409
30652W        W46913   5.739  17.410  11.973  0.1599  0.4040 -0.0255
30653W        W46914   7.478   4.605  14.397 -0.0571 -0.2199 -0.1049
30654W        W46915   4.640  11.923   5.323 -0.0938 -0.0716 -0.2099
30655W        W46916  13.195   1.069   2.096  0.0409 -0.0994 -0.0917
30656W        W46917  16.546  15.071   6.349 -0.0617 -0.2120 -0.3519
30657W        W46918  15.531  17.009   2.181 -0.0170  0.1134  0.0137
30658W        W46919  16.860   4.160   0.788 -0.0676 -0.2498 -0.0660
30659W        W46920   6.120   0.086   5.460  0.3320  0.0799  0.2852
30660W        W46921   9.313   3.438  12.150  0.1760 -0.2730  0.4071
30661W        W46922   1.823   2.828  12.866 -0.0330  0.0861 -0.2142
30662W        W46923  17.313  16.366  14.716  0.2439  0.0435  0.0605
30663W        W46924  16.653   9.446   3.203 -0.1308 -0.0737  0.0811
30664W        W46925   2.810   6.007   2.186 -0.0628 -0.1238  0.0315
30665W        W46926  10.526   4.280  11.091 -0.0224 -0.1468  0.5108
30666W        W46927  15.276  11.968   2.393  0.0521  0.2132 -0.0989
30667W        W46928   9.699  16.014   0.806 -0.2152  0.3404  0.4869
30668W        W46929   0.300   3.327  13.567 -0.0398  0.0827  0.0385
30669W        W46930   6.765   8.220   2.880  0.3453 -0.3457 -0.1282
30670W        W46931  12.234   7.998   2.895  0.2080 -0.2354  0.2073
30671W        W46932  15.756   4.603  11.908  0.1330 -0.0161 -0.1353
30672W        W46933  12.184  11.827   0.241  0.1891  0.0586  0.3190
30673W        W46934  12.674   2.378   3.972  0.0205  0.3353  0.0707
30674W        W46935  13.521  15.964   3.590  0.0488 -0.1312 -0.0053
30675W        W46936   3.718  14.604  14.781  0.1046 -0.4853 -0.0899
30676W        W46937  17.721  11.899   0.223  0.0499 -0.0356  0.2236
30677W        W46938   7.671   7.808   4.266 -0.4196  0.1530  0.3281
30678W        W46939   3.806   4.414  13.091  0.1043  0.0292 -0.0686
30679W        W46940  15.116  11.237   0.142 -0.1396 -0.2724  0.0122
30680W        W46941   4.931   1.112   5.328 -0.1469  0.3609  0.1220
30681W        W46942   5.208   6.106  13.481 -0.1044  0.1503  0.1532
30682W        W46943  11.471  10.817   5.076 -0.1218  0.3100 -0.0846
30683W        W46944  15.250  17.018  13.573 -0.1195 -0.1567 -0.0189
30684W        W46945  17.726  12.190  15.053 -0.2201  0.1620 -0.1314
30685W        W46946   8.685  11.519  12.825 -0.1480 -0.2570 -0.2383
30686W        W46947  10.033   2.653  14.094  0.1093  0.0427  0.1806
30687W        W46948  16.435   8.385  16.940  0.3606 -0.0177  0.4569
30688W        W46949  17.474   4.124  12.154 -0.2008  0.2415 -0.1031
30689W        W46950  15.703   1.249   3.339 -0.3053 -0.0123 -0.0007
30690W        W46951   2.888   2.317   3.223 -0.4803 -0.2524  0.1365
30691W        W46952  10.796   2.329   3.289  0.1212 -0.4662  0.0209
30692W        W46953  16.381   8.546   4.765  0.0114 -0.1796 -0.0904
30693W        W46954  16.194   4.849   1.983 -0.2123 -0.0840  0.3027
30694W        W46955  11.212  17.696  14.215 -0.1657  0.0562  0.1002
30695W        W46956   5.178   0.050  16.818  0.0234  0.1470  0.1713
30696W        W46957  14.218   8.453  11.456  0.1454 -0.4249 -0.1718
30697W        W46958   0.831   5.934   4.575 -0.0740 -0.0459  0.0012
30698W        W46959  15.477   6.225  15.653 -0.1804  0.0904 -0.1540
30699W        W46960  12.459   2.254  15.999  0.0179  0.2687  0.0054
30700W        W46961  10.650   8.090  11.065  0.1304 -0.0653  0.0597
30701W        W46962  15.026   4.727   2.250 -0.0491  0.0022  0.0884
30702W        W46963  16.581  10.404  13.218  0.0776 -0.2872 -0.1429
30703W        W46964   4.383  17.270   3.057 -0.0154 -0.3499  0.2176
30704W        W46965   9.596  17.200  14.871  0.1129 -0.1968 -0.4680
30705W        W46966   2.234  14.079   4.631 -0.1398 -0.0581  0.0987
30706W        W46967   5.703  10.629  14.706 -0.1438  0.1616 -0.0065
30707W        W46968   1.875   9.680   0.698 -0.3133 -0.0848  0.0193
30708W        W46969   6.048   9.771   0.377  0.1639 -0.0687 -0.1720
30709W        W46970   2.471   2.739   0.951  0.1000  0.2725 -0.0532
30710W        W46971  10.882   5.621   1.029  0.1056 -0.0192 -0.1057
30711W        W46972  12.609   5.719   2.001  0.1032 -0.2878 -0.2670
30712W        W46973   9.729   0.206  16.476  0.0627 -0.1148 -0.1675
30713W        W46974  16.758  11.281   1.194 -0.1637 -0.2618  0.0651
30714W        W46975   8.137  17.777   0.562  0.1164 -0.1705  0.5035
30715W        W46976  17.337   5.452   2.934 -0.1394  0.1012 -0.2150
30716W        W46977  17.363   4.360   2.231  0.1072  0.0162 -0.1498
30717W        W46978   8.833  14.022   0.875  0.0547 -0.2358 -0.3518
30718W        W46979   7.677  11.674  15.233 -0.1120  0.0290 -0.0537
30719W        W46980  14.443   2.124   4.752  0.0837 -0.3579  0.1810
30720W        W46981   3.836   6.904   3.862  0.2576 -0.1641 -0.1000
30721W        W46982   4.128  17.508   4.810 -0.0105 -0.1509 -0.5332
30722W        W46983   5.116  15.203   0.079 -0.1983  0.0852  0.0234
30723W        W46984   0.216  15.999  15.366 -0.2632  0.1111 -0.1132
30724W        W46985  14.340   0.618  10.734  0.0198 -0.3688 -0.2042
30725W        W46986   1.428  16.276  13.057  0.0979  0.0109  0.1699
30726W        W46987  15.024   6.269   4.065  0.0802 -0.0769  0.1591
30727W        W46988  16.454   2.273  14.929 -0.0684 -0.0373 -0.1633
30728W        W46989   3.492   5.710   4.712 -0.0892  0.0425 -0.0957
30729W        W46990  10.750  11.406   5.193 -0.1141 -0.0744 -0.3084
30730W        W46991   8.531  15.659  16.038  0.1341  0.0921 -0.0140
30731W        W46992  17.430   0.593  14.699  0.0896  0.0545 -0.1512
30732W        W46993   3.037  12.226   3.362  0.1812  0.0424 -0.3184
30733W        W46994   2.465   2.816  12.810  0.0318  0.0471  0.2330
30734W        W46995  15.760   5.061  16.682  0.1048  0.0064  0.0813
30735W        W46996   3.696  13.319   6.491 -0.1961  0.1705 -0.0542
30736W        W46997  15.781   2.893  16.379 -0.1626 -0.2288  0.0872
30737W        W46998   5.611  16.985   1.906 -0.0786 -0.0157 -0.0578
30738W        W46999   4.830   4.568   4.553  0.1538  0.0439  0.2289
30739W        W47000  16.934   6.123   1.974  0.1543  0.2629  0.0445
30740W        W47001   0.682   3.842   4.335  0.0032 -0.0909  0.2969
30741W        W47002  12.747   7.529  12.695  0.1698 -0.1623  0.0542
30742W        W47003  10.489   3.057   3.799 -0.0501 -0.2697 -0.0401
30743W        W47004  15.898  12.626   1.315 -0.3057  0.0573  0.0894
30744W        W47005  10.642  14.923   0.416  0.0635 -0.1039  0.0616
30745W        W47006   9.435  13.157  15.295  0.1487 -0.0697 -0.1275
30746W        W47007  17.598  14.034   0.240 -0.0317 -0.0637  0.0442
30747W        W47008   8.702   8.659  11.492 -0.2081 -0.0722 -0.2532
30748W        W47009  13.765   0.960  15.591 -0.2241  0.1488 -0.1175
30749W        W47010   2.079  16.263   3.702  0.3275  0.2257  0.1414
30750W        W47011   0.007  16.537  11.902  0.1434  0.3327 -0.0528
30751W        W47012   9.109  15.739  14.015 -0.3885  0.0648 -0.1443
30752W        W47013  11.190  14.076   6.074  0.0469 -0.0701 -0.2580
30753W        W47014  16.306   7.454   0.476 -0.0175 -0.3301  0.3776
30754W        W47015  16.611   3.337  15.409  0.0058  0.1428 -0.0684
30755W        W47016  11.084   5.509  11.865 -0.1943  0.1350 -0.2503
30756W        W47017  13.902  17.611   2.296 -0.1712 -0.1533 -0.1513
30757W        W47018   9.402   9.169   0.247  0.0435 -0.1050  0.0565
30758W        W47019   3.344   1.957   4.023  0.0107  0.1569  0.1993
30759W        W47020   5.067  11.984  16.310  0.1638 -0.2848  0.1807
30760W        W47021  11.695  12.883  11.712 -0.1945  0.1638  0.2382
30761W        W47022  14.460  17.811  14.943 -0.0265 -0.0535 -0.2240
30762W        W47023  13.351   9.193  11.421  0.2276 -0.0632  0.2245
30763W        W47024   1.340   0.583   1.660 -0.1390 -0.3215 -0.0317
30764W        W47025   2.132   2.287   1.115  0.0255 -0.2014 -0.0276
30765W        W47026   7.469  12.867  12.852 -0.1900  0.0892 -0.4374
30766W        W47027  15.255   6.988   0.715  0.1505  0.2027 -0.0858
30767W        W47028  14.122   3.886   3.052 -0.2015 -0.1785 -0.0097
30768W        W47029  12.131   7.156  14.884  0.3249 -0.1489 -0.2022
30769W        W47030   6.788   5.666   1.769  0.0253 -0.1154  0.2410
30770W        W47031   3.861  16.762  13.411  0.0482 -0.2976  0.0663
30771W        W47032   8.767   2.727  11.980 -0.0194 -0.0400  0.4526
30772W        W47033   0.001   7.200   1.154 -0.1025  0.0628  0.0856
30773W        W47034  15.198   6.347   4.909  0.0937 -0.0214 -0.0459
30774W        W47035   3.708   6.860   5.569 -0.3215  0.2872  0.0077
30775W        W47036  10.138   9.384  13.273  0.1814 -0.0677 -0.2834
30776W        W47037  10.040  11.591  13.581  0.0420 -0.0694  0.1191
30777W        W47038  13.965   9.014  14.157 -0.0233  0.0617  0.0995
30778W        W47039  14.086   6.541  16.944 -0.0094 -0.1249 -0.1931
30779W        W47040  10.054  17.632   1.346 -0.1153  0.0231  0.0715
30780W        W47041   7.508   2.890  16.411  0.0738 -0.2077 -0.0872
30781W        W47042  17.561   0.930  11.300  0.1528 -0.3523 -0.4364
30782W        W47043  15.543   1.334   2.622  0.0805 -0.1456 -0.1615
30783W        W47044  14.777   3.799  14.379 -0.2188  0.0475  0.0730
30784W        W47045  12.450  13.372  16.269  0.0641 -0.1585 -0.2687
30785W        W47046  14.491  13.013   2.959 -0.1271  0.2168  0.1360
30786W        W47047  15.178  16.010   0.370 -0.2017 -0.2718  0.1335
30787W        W47048   3.582   1.504  11.715  0.3789 -0.0424  0.1989
30788W        W47049   8.874   8.623  15.430  0.0313  0.3463 -0.0789
30789W        W47050  12.264   3.200  11.689  0.2372  0.2741  0.0455
30790W        W47051  15.386   8.062  16.324 -0.2572 -0.1906  0.0174
30791W        W47052  15.852   9.387  14.783  0.2225 -0.1306 -0.0774
30792W        W47053  17.781  13.296  11.798  0.1996 -0.2918  0.1671
30793W        W47054   3.019   5.398   5.493  0.0409 -0.1736 -0.2840
30794W        W47055  15.143   3.273   3.449 -0.1491  0.1373  0.0068
30795W        W47056  14.143  13.664  14.178 -0.1119 -0.2097 -0.1311
30796W        W47057   5.496  17.818  15.381 -0.3127 -0.0148 -0.1771
30797W        W47058  14.662  11.301   0.891 -0.1663 -0.1525  0.0146
30798W        W47059   4.265   3.401  14.639 -0.0132  0.2739  0.0624
30799W        W47060  13.321   5.216   5.217  0.1741 -0.1132  0.0703
30800W        W47061   2.484  11.497  14.838  0.1328  0.1067  0.4352
30801W        W47062   7.653  14.425   1.353 -0.0728  0.1773 -0.0485
30802W        W47063   8.292   2.105   1.562 -0.1577 -0.1782  0.0315
30803W        W47064   6.823  12.911   1.335  0.3031 -0.0787  0.1317
30804W        W47065   6.087   6.463  15.840  0.2151 -0.2685 -0.0445
30805W        W47066  15.317  15.232  13.051 -0.0819  0.7534  0.0172
30806W        W47067  14.425   3.505   2.758 -0.2396 -0.0042  0.4019
30807W        W47068   3.098   4.466  13.617  0.1030  0.0292  0.3620
30808W        W47069  11.333  13.091   1.466  0.0314 -0.0390  0.2017
30809W        W47070   9.383   8.285   5.396 -0.2548  0.1921 -0.2646
30810W        W47071  16.286   1.877  12.656 -0.4799  0.4611  0.0679
30811W        W47072   5.831   7.976   1.440  0.1740 -0.1172  0.0997
30812W        W47073   4.814  15.848  15.375 -0.1861 -0.1330 -0.0881
30813W        W47074   6.218   7.176   1.358 -0.2349  0.2188 -0.4624
30814W        W47075   4.859   6.551   5.285 -0.0694  0.1589  0.0346
30815W        W47076   3.398   2.110   5.557  0.0542 -0.3613 -0.0518
30816W        W47077   1.533  14.411  12.948 -0.0551  0.0061  0.1124
30817W        W47078   6.811   5.575   6.326 -0.0671  0.1277  0.0066
30818W        W47079   8.744   4.288  14.696 -0.2805  0.0177  0.3273
30819W        W47080  11.908   1.289   2.449  0.1010 -0.2343  0.3328
30820W        W47081  15.216  10.295  13.623  0.1744  0.1645 -0.2350
30821W        W47082   4.905  17.785  12.299 -0.1062 -0.1783  0.1229
30822W        W47083   7.123  10.447  11.965  0.2446 -0.3140 -0.1836
30823W        W47084   1.528  16.751  16.403 -0.2026  0.0277  0.2314
30824W        W47085   5.468  16.097   4.019  0.1072  0.1294 -0.0090
30825W        W47086   7.996   0.087   5.504 -0.0463 -0.2211  0.0325
30826W        W47087  15.652   1.110   5.505 -0.1053  0.1426 -0.0752
30827W        W47088  16.160   6.824   1.369  0.1358 -0.0923 -0.1903
30828W        W47089   5.400  12.795  13.560  0.6364  0.1118 -0.0272
30829W        W47090  16.788  11.344  13.329  0.0441  0.1201 -0.3254
30830W        W47091   5.922  14.961   6.406  0.0474 -0.2086  0.4256
30831W        W47092  10.967   4.004   3.838  0.0205  0.0682 -0.0980
30832W        W47093   6.435  13.378   0.129  0.0839 -0.0428  0.0046
30833W        W47094   0.723  17.656   3.667 -0.0002  0.1013 -0.0370
30834W        W47095  12.656   0.513  15.906 -0.1350  0.3237  0.0639
30835W        W47096   9.557   6.625  16.258 -0.2827 -0.2937  0.2109
30836W        W47097  14.339   3.448  11.637  0.3127 -0.0468  0.0208
30837W        W47098  16.667   8.506   2.455  0.0558 -0.3993  0.0659
30838W        W47099   3.246  14.411   1.801 -0.2403 -0.0394  0.0243
30839W        W47100  15.802  17.760  15.425  0.4221 -0.2136 -0.2341
30840W        W47101  17.395  12.339   4.818 -0.2647  0.0394 -0.0815
30841W        W47102   0.873   7.716  12.705 -0.1070 -0.2119 -0.0954
30842W        W47103  14.659   3.257   2.039  0.2276  0.1840  0.1336
30843W        W47104  13.587  13.687   6.793 -0.2259 -0.2035 -0.1183
30844W        W47105   9.042  13.146  15.624 -0.1318 -0.0216  0.0810
30845W        W47106  10.276   6.812   4.987 -0.2041  0.2511  0.0092
30846W        W47107  16.251   4.174  12.552 -0.1182  0.3773  0.0052
30847W        W47108  10.087   8.295   2.998  0.0345  0.2605  0.5101
30848W        W47109  11.907  10.968  14.035 -0.1672 -0.0041 -0.3430
30849W        W47110   7.090   0.175   0.386  0.3232  0.1706  0.0104
30850W        W47111   9.785   2.552   1.349  0.3167 -0.0392 -0.0248
30851W        W47112  15.980  15.380   0.439  0.1225  0.1421  0.0015
30852W        W47113  10.535  11.804   2.329  0.1368 -0.3192  0.2560
30853W        W47114  16.188   8.292  15.970  0.1243  0.0018  0.1032
30854W        W47115   3.106   3.042  16.737 -0.1234 -0.0930 -0.0442
30855W        W47116   1.244  17.656  15.867  0.2442 -0.1482  0.0727
30856W        W47117   9.029   3.153  16.563 -0.0565  0.2894 -0.0638
30857W        W47118   3.293  16.366   0.733 -0.0156  0.0948  0.1304
30858W        W47119   0.266   2.503   0.276  0.2361  0.0382  0.1618
30859W        W47120  12.115  14.505   0.498  0.2218 -0.0606 -0.2806
30860W        W47121   8.949   8.990  11.960  0.2482  0.1682 -0.1644
30861W        W47122  17.758  12.807   4.091 -0.2665  0.2257 -0.2327
30862W        W47123  16.168  17.621   2.847  0.1236  0.0674 -0.1723
30863W        W47124   1.414   9.256   1.403  0.4168  0.0345 -0.2401
30864W        W47125   9.376   6.507  13.397  0.2483  0.0998 -0.1800
30865W        W47126   1.870   2.288  15.835 -0.1083 -0.0104  0.1905
30866W        W47127  17.850  17.679  14.439 -0.0616  0.1572  0.0560
30867W        W47128  17.148  14.692   1.162  0.1185  0.2921  0.1680
30868W        W47129   1.681   5.698  12.166  0.1227 -0.2286  0.1120
30869W        W47130  17.804  13.025   0.521 -0.1386  0.0306 -0.1941
30870W        W47131   4.443   4.330   5.493 -0.0627 -0.2291  0.2566
30871W        W47132   7.324  17.840  12.098  0.0165 -0.0069 -0.1953
30872W        W47133  14.613   4.934  15.291 -0.0961  0.0902 -0.2660
30873W        W47134   3.333  12.845   3.929  0.1843 -0.1914  0.1031
30874W        W47135  14.492   8.546   2.259  0.0524 -0.1470  0.0014
30875W        W47136  17.118  17.144   3.600  0.1138  0.2465 -0.1406
30876W        W47137  13.005   1.457   1.403  0.1535 -0.1815 -0.0523
30877W        W47138   3.464  13.209  14.162 -0.1287 -0.2124  0.1379
30878W        W47139   5.728   2.380   6.051  0.1672 -0.0904 -0.0005
30879W        W47140   0.483  15.600  13.020 -0.2554 -0.0322 -0.1928
30880W        W47141  10.379   3.652  12.127 -0.0060  0.3481 -0.0743
30881W        W47142  11.666   6.377   2.537 -0.0352  0.1423 -0.0399
30882W        W47143  13.202   3.680  16.088 -0.3598 -0.1375  0.1223
30883W        W47144   0.480   9.587   3.200 -0.1814 -0.0668  0.3146
30884W        W47145   8.675   8.591   4.832 -0.2631 -0.2223 -0.4345
30885W        W47146  13.029  17.184   3.268  0.1549  0.3831 -0.0596
30886W        W47147   9.272   8.111   1.639  0.0455  0.2224  0.1690
30887W        W47148   8.142   6.012  11.786  0.1507  0.0465  0.0417
30888W        W47149   8.339  13.504  13.852  0.2658 -0.2969 -0.0115
30889W        W47150  15.718  10.289   1.633 -0.1422 -0.0634  0.0348
30890W        W47151   2.771   0.023  14.029 -0.0311 -0.4257  0.0022
30891W        W47152  12.130   5.301  11.972  0.2770  0.3307  0.1548
30892W        W47153  16.618  10.550   1.841 -0.0178 -0.0610  0.2186
30893W        W47154  15.980   6.094  16.365  0.0916  0.0558 -0.0745
30894W        W47155   8.572  14.412  16.492 -0.3107  0.0165  0.1330
30895W        W47156  15.691   2.078  16.200  0.2994 -0.2186  0.0569
30896W        W47157   7.620   6.777   5.925 -0.1745  0.0883  0.2818
30897W        W47158   1.480   8.884   0.543 -0.1767 -0.0398  0.0449
30898W        W47159   8.223  13.111  16.544  0.0294  0.0800  0.1416
30899W        W47160  13.668   0.091  14.619 -0.0803  0.1990 -0.0705
30900W        W47161  11.355   6.119   4.051 -0.1481 -0.0089  0.0159
30901W        W47162   5.694   6.962   1.244  0.0657 -0.2197  0.2530
30902W        W47163   8.902   1.271  16.932 -0.0366 -0.0714  0.0492
30903W        W47164  16.716  17.377   4.406 -0.0225 -0.0861  0.1005
30904W        W47165  15.878  10.507   3.270 -0.3355  0.3127  0.1128
30905W        W47166  16.388  14.407  13.613 -0.2845  0.3432 -0.2325
30906W        W47167  12.745   1.163   1.025  0.1127  0.0426 -0.2681
30907W        W47168   3.765   7.750  13.746 -0.2007 -0.0374 -0.2513
30908W        W47169  17.721  14.103   3.663 -0.5062 -0.1067  0.0054
30909W        W47170   9.386   3.991  16.552  0.1757  0.1083  0.0732
30910W        W47171  15.097   0.620   4.277 -0.0549 -0.1964  0.0519
30911W        W47172   4.248  11.545  14.195 -0.1294 -0.1511 -0.3255
30912W        W47173  10.282  10.579   2.810  0.0120  0.0315  0.0973
30913W        W47174  16.605   1.975  16.688  0.2016 -0.2494 -0.0467
30914W        W47175  13.440  10.397  11.455  0.2268  0.0901 -0.1789
30915W        W47176   9.731   5.904  12.603 -0.2270 -0.2560 -0.0224
30916W        W47177   6.050  11.833  11.709  0.1307 -0.0790  0.1747
30917W        W47178   5.374  16.431   1.802  0.2326 -0.1893 -0.2596
30918W        W47179  14.121   7.387  14.619 -0.3887 -0.0429  0.0885
30919W        W47180  13.600   8.592   1.192  0.0011  0.0138 -0.0992
30920W        W47181   8.539   6.847  12.394 -0.1582 -0.0314 -0.1677
30921W        W47182  14.348   5.654  14.635 -0.3309  0.0677 -0.1121
30922W        W47183   3.073   4.585   3.564 -0.0052 -0.0671 -0.1335
30923W        W47184   2.096   7.550   5.246  0.0622  0.0146 -0.0774
30924W        W47185  15.022   1.064  13.344  0.2411  0.2662  0.0507
30925W        W47186   8.579   0.795  13.226  0.0142 -0.0879 -0.0695
30926W        W47187  10.550   6.536   3.347 -0.0831  0.0002 -0.1181
30927W        W47188   5.060   2.438   1.582 -0.1585  0.0463  0.0558
30928W        W47189  12.250   2.657   5.294 -0.0367  0.1044  0.1274
30929W        W47190   9.660   8.169   2.772  0.2301  0.2117  0.1822
30930W        W47191   9.916  14.514   0.286 -0.1853  0.0854 -0.0119
30931W        W47192  12.169  13.658  16.939  0.1253  0.1191 -0.0677
30932W        W47193  14.816  12.487  16.500 -0.0290  0.0473  0.3504
30933W        W47194  15.551  11.496  15.824  0.0714 -0.3467  0.3104
30934W        W47195   7.130   6.088   2.521 -0.0043 -0.3753 -0.2381
30935W        W47196  11.785   0.944  11.714 -0.0502 -0.1148  0.1451
30936W        W47197   8.203  15.268   1.258 -0.0639 -0.0810  0.0925
30937W        W47198  17.519   9.203  15.301  0.0432 -0.3717  0.1902
30938W        W47199   0.498  14.360   4.384  0.0176 -0.0217 -0.2233
30939W        W47200   9.860  17.632  14.043 -0.2328 -0.2464  0.0629
30940W        W47201  12.712  10.198  11.497  0.0609 -0.3155  0.4208
30941W        W47202  10.887  11.572   6.294  0.0512 -0.0667  0.2548
30942W        W47203  12.795  10.490  12.014 -0.1187  0.2818 -0.2396
30943W        W47204  16.386   3.660  14.246 -0.1551 -0.0392  0.1712
30944W        W47205   4.510   1.495   4.915  0.0228 -0.0720 -0.0125
30945W        W47206   2.712   4.887   3.479  0.1189  0.3364 -0.3247
30946W        W47207  14.208   9.523   4.226 -0.0052 -0.2843 -0.0373
30947W        W47208   0.525  16.519   2.907  0.0453 -0.1877 -0.0803
30948W        W47209   1.616  13.847  14.402  0.1244  0.2916 -0.2128
30949W        W47210  11.219  16.200  14.481  0.0266  0.2385 -0.1425
30950W        W47211  11.839   9.636  11.218 -0.2483  0.0239  0.0061
30951W        W47212  11.251   8.104   3.651  0.0131 -0.2853 -0.0799
30952W        W47213   8.602  17.456  16.226  0.0777  0.0900  0.0749
30953W        W47214   2.072  13.864   2.137  0.1003  0.0049  0.2581
30954W        W47215   0.498  15.419   3.663 -0.1742 -0.0832 -0.2646
30955W        W47216  14.086  14.165   5.022  0.0829  0.2543  0.1910
30956W        W47217   9.002   1.588  16.547 -0.0363 -0.2822  0.2541
30957W        W47218   4.556  10.366   0.912 -0.0391 -0.1192 -0.3030
30958W        W47219   1.383  13.122  14.801  0.3303 -0.1577 -0.2386
30959W        W47220  10.108  12.592  12.157  0.0366  0.1941  0.2501
30960W        W47221  14.968  13.909   4.014  0.2789 -0.1027 -0.3786
30961W        W47222   8.871   5.270   3.034  0.1278  0.0537 -0.1054
30962W        W47223   3.264  16.751   3.209  0.2266  0.0590  0.0574
30963W        W47224  12.574  12.218   5.130 -0.0312  0.2037 -0.0088
30964W        W47225  12.963   7.607  13.700 -0.1147 -0.1674  0.3193
30965W        W47226  17.770   5.220  14.765 -0.3879 -0.1985  0.2416
30966W        W47227  13.859   2.124  16.450  0.1485 -0.2597 -0.3486
30967W        W47228   1.119  16.752  16.127 -0.1476 -0.2216  0.1566
30968W        W47229   1.045   3.123  11.901  0.0969  0.0806 -0.1737
30969W        W47230   1.380   9.240  11.691 -0.1137 -0.0480 -0.1936
30970W        W47231   1.440  14.662   2.516  0.0722 -0.0318  0.3249
30971W        W47232  13.870  13.072  16.178  0.1782 -0.2515 -0.1008
30972W        W47233  10.654  14.830  15.587 -0.2103 -0.2314  0.3946
30973W        W47234  16.232  13.843   1.340  0.1916 -0.1358  0.0270
30974W        W47235  10.025   8.924   5.495 -0.2080  0.1876  0.0837
30975W        W47236   8.857   9.879  12.493  0.0481 -0.1904 -0.1761
30976W        W47237   6.706  16.858  13.204  0.0914 -0.3238  0.3958
30977W        W47238   4.879   6.660   3.856  0.1130  0.0543  0.1713
30978W        W47239   5.695  17.178  16.875 -0.3509 -0.1925  0.0066
30979W        W47240  11.333   3.217  14.939 -0.0806 -0.1101  0.0912
30980W        W47241  17.726   8.823   0.276 -0.1712  0.0607  0.0459
30981W        W47242   0.060  14.242   5.178  0.2291 -0.1624 -0.3963
30982W        W47243  12.278  11.610  11.935  0.1443  0.0067 -0.0689
30983W        W47244   7.060   7.122  13.425  0.0627  0.1688  0.0824
30984W        W47245   1.593  17.775   2.329 -0.0179  0.1217  0.1047
30985W        W47246  13.042  16.406  16.651 -0.1834 -0.1317  0.2095
30986W        W47247   4.065   7.512  11.870  0.0504 -0.0406 -0.0671
30987W        W47248   1.410   0.525  12.805 -0.4495 -0.0263 -0.3879
30988W        W47249  13.659  12.026  13.541  0.1465 -0.0123 -0.2823
30989W        W47250   6.077  13.435   2.847  0.3644  0.2778 -0.0866
30990W        W47251  17.687   0.093   3.989 -0.0535 -0.0627 -0.1466
30991W        W47252   5.268   4.069  16.397  0.0376  0.0731 -0.1626
30992W        W47253   6.967   2.885   5.269  0.0859  0.5083  0.3894
30993W        W47254   5.808   8.161  16.476  0.3810 -0.1663  0.0908
30994W        W47255  15.778   2.092   2.041  0.1109  0.2363  0.1803
30995W        W47256   9.422   0.940  14.674 -0.2771 -0.0353  0.2695
30996W        W47257   2.261  15.772   2.631  0.0165  0.3789  0.2752
30997W        W47258   4.449   6.961  12.900 -0.1289 -0.0064 -0.1629
30998W        W47259   9.726   9.925   2.787  0.1085  0.3168 -0.2295
30999W        W47260   5.689  12.878   5.174  0.0199  0.1486  0.3102
31000W        W47261   8.431   5.476  12.015  0.2197 -0.0728  0.0930
31001W        W47262  14.616   3.493  13.447  0.2831  0.0395  0.1633
31002W        W47263   1.726   8.071   5.835 -0.0132  0.3050 -0.1539
31003W        W47264  11.489   7.168  12.173  0.2292 -0.0771  0.1394
31004W        W47265  10.668  15.409   2.821 -0.1223 -0.1119 -0.1669
31005W        W47266   9.261   7.888   3.637 -0.0904  0.3596 -0.0554
31006W        W47267  10.559  10.992  13.933 -0.1241 -0.1222 -0.1528
31007W        W47268   5.620   3.433  13.921 -0.1192  0.0146  0.2060
31008W        W47269   9.847   7.915  14.535  0.2603  0.2276 -0.0958
31009W        W47270   3.913  14.069  16.053 -0.1240  0.0624  0.0353
31010W        W47271   7.042  10.885   0.248 -0.0762 -0.5378 -0.0322
31011W        W47272   8.619  10.211  16.010  0.2029 -0.1583 -0.0853
31012W        W47273   1.701  16.222  15.012  0.1836 -0.0744 -0.3082
31013W        W47274  16.182  11.378  11.574 -0.0937  0.2739  0.0106
31014W        W47275  12.692   7.031  14.214  0.1008 -0.1467  0.0142
31015W        W47276   8.542   6.138  13.202 -0.0481  0.1883  0.1302
31016W        W47277   9.946   1.073  11.979  0.1202 -0.1687 -0.1579
31017W        W47278   1.684  11.954  16.831  0.1749  0.2514 -0.1382
31018W        W47279   1.514  12.904  15.257  0.3231  0.0430  0.0915
31019W        W47280  17.134  10.360  14.578  0.2340 -0.0871 -0.1457
31020W        W47281   0.789  17.844  13.904  0.2369  0.1450  0.3498
31021W        W47282   1.015   3.614   1.858  0.0045  0.1131  0.2120
31022W        W47283   9.923   6.967  14.181  0.0009 -0.1455  0.1731
31023W        W47284  13.459   8.165  12.825 -0.0979 -0.0467 -0.1192
31024W        W47285  14.458  12.966   5.022  0.1390 -0.2172  0.1780
31025W        W47286   6.036   9.508  16.522 -0.1654  0.0785 -0.1513
31026W        W47287  10.085  15.240   2.982  0.1029  0.1174 -0.4788
31027W        W47288   0.006  10.026   2.031  0.0775  0.4174  0.4406
31028W        W47289   9.409   8.586  14.195  0.0068 -0.0693  0.0265
31029W        W47290  15.723   1.836  13.536 -0.0704 -0.0905 -0.0168
31030W        W47291  16.089  15.258  13.850 -0.0164 -0.3102  0.1895
31031W        W47292  12.913   5.374   2.652  0.0565 -0.0383  0.0893
31032W        W47293  15.987   1.903  11.377 -0.2684 -0.2489  0.0291
31033W        W47294  12.809  15.280   0.486  0.0179 -0.1570  0.1396
31034W        W47295   8.701  14.975   5.706  0.0967  0.0636 -0.1131
31035W        W47296   8.194   7.881  16.787 -0.0585 -0.1809 -0.1908
31036W        W47297  10.152  12.758   2.962  0.1152 -0.0143  0.0189
31037W        W47298  10.016  11.954  14.995  0.0579 -0.0604  0.3334
31038W        W47299   8.092   2.399  14.619  0.1199  0.2621  0.0865
31039W        W47300   0.047   9.584  13.419 -0.1345 -0.2588  0.1900
31040W        W47301  13.535  10.681   3.161  0.2159  0.2920  0.0308
31041W        W47302   5.592   3.458  13.418  0.0254  0.3194  0.3872
31042W        W47303   4.535   9.964   3.927 -0.0177  0.3508 -0.2350
31043W        W47304  14.526  11.704   4.859  0.0640  0.1819 -0.0504
31044W        W47305   4.512  13.582   0.813 -0.0066  0.0128  0.1085
31045W        W47306   1.174  10.282   0.835 -0.1353  0.3103  0.2594
31046W        W47307   7.372  13.623   2.585  0.0588  0.0463 -0.0800
31047W        W47308  13.971   5.600  16.826 -0.0164 -0.1051  0.2294
31048W        W47309  16.607   9.112   2.837 -0.0923  0.0256 -0.1053
31049W        W47310  12.728   1.513  16.766  0.0340 -0.3457 -0.2400
31050W        W47311  12.223  15.992  12.757  0.1932 -0.1728 -0.3965
31051W        W47312  14.172   8.110  15.936  0.1398 -0.1121  0.1911
31052W        W47313   0.796  13.838   1.183 -0.1541  0.4422 -0.2128
31053W        W47314  13.902   0.632  15.956  0.1171  0.0801 -0.1429
31054W        W47315   3.035   7.197  16.560 -0.0236  0.1532 -0.0222
31055W        W47316  15.663   9.810  16.042 -0.2606 -0.2412 -0.0593
31056W        W47317  13.606   3.167   3.263 -0.0009  0.3282 -0.3521
31057W        W47318  15.437   9.795  11.438  0.2385  0.1377  0.2473
31058W        W47319   6.908  15.482   4.048  0.1110  0.0026  0.0415
31059W        W47320  11.908   0.938  16.924 -0.0199 -0.1062 -0.2357
31060W        W47321  10.464   1.610   6.065  0.0179 -0.2315  0.2689
31061W        W47322   8.127   9.496  14.554  0.2780 -0.1737 -0.1451
31062W        W47323  16.702  14.541   4.982  0.0696  0.5038 -0.2120
31063W        W47324  13.225   8.607   2.492  0.0027 -0.1895 -0.1593
31064W        W47325   0.165   5.507   3.859 -0.2196 -0.2293  0.2639
31065W        W47326   4.118   5.466   1.152  0.1409  0.1709  0.3632
31066W        W47327  14.845  14.077   6.332 -0.0451  0.1095  0.3916
31067W        W47328   4.216  11.550   3.643  0.1957 -0.1260  0.0669
31068W        W47329   7.690   4.784   5.228 -0.1666  0.2040 -0.0087
31069W        W47330   6.485   1.932   2.081 -0.1467 -0.3209  0.0633
31070W        W47331  14.419   5.206   5.859 -0.1729  0.0075 -0.2397
31071W        W47332   9.459  15.382   5.260  0.1108  0.0966 -0.0641
31072W        W47333  16.541  16.203   3.337 -0.1209  0.1116  0.0124
31073W        W47334   1.143   7.445  11.522  0.0205  0.1779  0.3486
31074W        W47335   6.535  14.798   5.310  0.1605 -0.0288 -0.4108
31075W        W47336  16.358   3.207  13.769 -0.0833 -0.0115 -0.1691
31076W        W47337  13.417  11.973  16.444  0.1779  0.2095  0.0426
31077W        W47338  11.289   8.985  12.957 -0.1103 -0.1058  0.0184
31078W        W47339   4.487  16.815   5.989 -0.0905  0.0199  0.0351
31079W        W47340   0.208  11.521  16.578  0.1717  0.1925 -0.1042
31080W        W47341   2.915   7.971   2.090 -0.0939  0.1204 -0.5030
31081W        W47342   7.875   8.598  15.054  0.3090 -0.1374  0.1451
31082W        W47343  12.541  11.938  14.924  0.0005  0.0805  0.0227
31083W        W47344  12.762  10.042  16.345 -0.1997 -0.3371  0.0314
31084W        W47345   7.453  16.704  11.867 -0.4388 -0.1463  0.0785
31085W        W47346  17.665  15.881   4.078  0.0169 -0.1006 -0.0033
31086W        W47347   4.194   9.609  13.980  0.0449  0.2003  0.0177
31087W        W47348  12.130  14.926  11.963 -0.2585  0.3593 -0.0910
31088W        W47349  10.680   0.652  16.186  0.0494  0.0412  0.1220
31089W        W47350  10.992   0.841   4.698 -0.0527  0.0017 -0.0252
31090W        W47351  11.599   8.532  11.903  0.1912  0.1501 -0.1402
31091W        W47352   2.849  16.288   2.050 -0.1242  0.0840 -0.1919
31092W        W47353  17.514   9.264  13.778 -0.0818 -0.1659 -0.0823
31093W        W47354   4.167  10.695   5.159 -0.2318  0.1042  0.0437
31094W        W47355   3.331   4.822   3.923  0.2167 -0.3444  0.3284
31095W        W47356   1.517  13.784  16.439 -0.0729 -0.0643 -0.0950
31096W        W47357  10.884   0.109   2.999  0.0887 -0.1186  0.0141
31097W        W47358  13.598   8.229   2.629  0.2098 -0.3235 -0.0499
31098W        W47359  15.359   1.034  13.004  0.1918 -0.2007 -0.1001
31099W        W47360   8.911  15.931   0.223  0.2275 -0.2817  0.0534
31100W        W47361  14.544   2.376  12.496  0.0240 -0.1469  0.3274
31101W        W47362   9.221  16.387  16.358  0.3942 -0.0094  0.0407
31102W        W47363   3.966   0.140   1.639  0.0045 -0.1049 -0.0149
31103W        W47364   1.500  15.251  16.132  0.0220 -0.1517  0.2532
31104W        W47365  10.684   1.527  14.743 -0.2914  0.0104 -0.0680
31105W        W47366  14.495  13.035   1.565 -0.1588 -0.0618 -0.1954
31106W        W47367   9.069  12.495  12.932  0.3084 -0.4322 -0.1882
31107W        W47368   3.171  13.327  16.015 -0.1368  0.1326  0.1783
31108W        W47369  13.607  12.655   1.300  0.3516  0.2504 -0.2715
31109W        W47370   9.101   2.785  12.436  0.1056 -0.1749 -0.1470
31110W        W47371   1.491  12.971  13.444 -0.0490 -0.3399 -0.2828
31111W        W47372  16.801   5.513   1.173  0.2475  0.0960 -0.2046
31112W        W47373  13.995  12.425   5.024  0.0394 -0.2134  0.0771
31113W        W47374  17.528  16.459  12.306 -0.0472 -0.0181 -0.2389
31114W        W47375  15.244  15.735  13.121 -0.1491 -0.2457 -0.1213
31115W        W47376   6.221   0.248   0.686  0.0519 -0.1868  0.3145
31116W        W47377   1.490  14.034   4.702 -0.0062  0.0982 -0.0165
31117W        W47378   7.231  10.304   3.444  0.2067 -0.2131  0.1364
31118W        W47379  15.212   8.116  15.021  0.2117 -0.0602 -0.1085
31119W        W47380   0.183  17.039  15.383  0.0103 -0.1303  0.1191
31120W        W47381   8.990  11.360  15.040 -0.1956 -0.2991  0.2551
31121W        W47382   3.825   6.214   3.381  0.0854  0.2126 -0.0236
31122W        W47383  16.827  11.904  11.927  0.1792  0.2170 -0.0980
31123W        W47384   1.287  16.387   0.091 -0.0799  0.0025  0.0952
31124W        W47385  15.068   9.214  14.231 -0.3791  0.0868  0.0096
31125W        W47386   7.411   0.119   4.782  0.4023  0.3565 -0.0659
31126W        W47387   1.885   6.331  13.319 -0.0499  0.3441  0.1519
31127W        W47388   8.797  15.784   4.835 -0.0093  0.1734 -0.3558
31128W        W47389  16.350  12.192   5.703  0.1053 -0.1445 -0.0021
31129W        W47390  13.963   9.490  16.358 -0.0403  0.2264 -0.2766
31130W        W47391   2.656   8.798   1.908  0.0800  0.1723 -0.1215
31131W        W47392   4.990  16.918  13.200  0.3022 -0.0545 -0.0758
31132W        W47393  11.518   6.701  13.844 -0.0492 -0.1977  0.0233
31133W        W47394   3.736  17.050  13.852 -0.0034  0.0241 -0.1918
31134W        W47395  16.744  14.536  15.378 -0.1341  0.0086 -0.2378
31135W        W47396  10.304   9.059  16.408  0.0362 -0.2867 -0.0918
31136W        W47397   9.292  12.711  15.509 -0.0747 -0.2151 -0.1715
31137W        W47398   0.530   2.522  11.367  0.2664 -0.0389 -0.0265
31138W        W47399   2.106  13.991   5.412 -0.0289 -0.2382 -0.0853
31139W        W47400  17.339   2.336   3.860  0.1998  0.1506 -0.2387
31140W        W47401   9.381  11.082   4.999 -0.1536 -0.0675 -0.0478
31141W        W47402   1.108   7.960   2.257 -0.1095 -0.0351 -0.3225
31142W        W47403   6.017  15.297  14.276  0.0222  0.0209  0.2779
31143W        W47404  16.931   9.130   0.135 -0.2141 -0.2872 -0.1581
31144W        W47405  15.009   0.746  15.045  0.1402  0.0273 -0.0859
31145W        W47406   2.489  14.320  11.142  0.1128  0.2908  0.1051
31146W        W47407   8.158   1.544  14.348 -0.0739  0.1938  0.1877
31147W        W47408  16.280  13.932   4.694  0.2305 -0.1228  0.0539
31148W        W47409   8.092  16.245  16.532 -0.1871  0.4244  0.0069
31149W        W47410   7.290  11.480   0.833  0.2464 -0.3756 -0.0473
31150W        W47411   6.902   6.301  11.883  0.0966 -0.3769 -0.3559
31151W        W47412  17.282   4.597  15.065 -0.0011  0.0608 -0.0793
31152W        W47413   2.914  16.834   4.080  0.0202 -0.2320 -0.1639
31153W        W47414   3.636   5.925  15.002  0.0966 -0.3386 -0.3055
31154W        W47415   0.039   6.573   1.746 -0.3152 -0.0453 -0.1061
31155W        W47416   3.107   5.936   5.598 -0.0687  0.0430 -0.0031
31156W        W47417   9.494  17.242   3.691  0.2056  0.0288  0.3611
31157W        W47418   9.270   6.844   6.209 -0.1519 -0.0955  0.1136
31158W        W47419   6.280  12.866   3.956 -0.0945  0.2109  0.0793
31159W        W47420  13.937  11.322   5.814 -0.0074 -0.0709  0.1430
31160W        W47421  13.760   6.843   1.324  0.1242 -0.0634 -0.0631
31161W        W47422   8.196  14.659   3.276  0.0525 -0.1004  0.1890
31162W        W47423   7.013   6.932   0.467  0.1717  0.1731  0.1631
31163W        W47424   0.321  16.791   0.232  0.0951  0.3267  0.3150
31164W        W47425  15.447   3.176   1.452 -0.0327  0.0635 -0.0608
31165W        W47426  12.670  14.928  15.148  0.0030  0.2021  0.2524
31166W        W47427   5.276   1.295  15.352 -0.0450 -0.1144  0.1488
31167W        W47428   8.622   8.578   2.618 -0.0401  0.4237  0.2534
31168W        W47429   5.118  13.564   5.473  0.2788 -0.0739 -0.1229
31169W        W47430   4.790   3.952   4.244 -0.1945 -0.3071  0.0269
31170W        W47431   2.075   8.789  13.351  0.0884 -0.0506  0.3839
31171W        W47432   2.087  10.596  16.610  0.1551  0.3337  0.0499
31172W        W47433  11.338   3.692  11.021 -0.1460  0.1428  0.0968
31173W        W47434   2.181   7.451   1.795  0.0406  0.0625  0.2191
31174W        W47435   5.584   0.952  16.243  0.1526 -0.1917  0.1912
31175W        W47436  11.401   1.428  12.313 -0.2178 -0.0813  0.1247
31176W        W47437  14.171   5.862   5.038  0.0492 -0.0970  0.1059
31177W        W47438   1.316   7.617   0.789  0.1137  0.0195 -0.0791
31178W        W47439   5.853  17.593  15.092  0.2792 -0.1854 -0.0752
31179W        W47440  12.537   4.981  11.460  0.0960 -0.1117 -0.0621
31180W        W47441   5.468   7.570   0.836  0.3237 -0.2823  0.1605
31181W        W47442  12.505   7.843  12.962 -0.0481  0.0221 -0.0512
31182W        W47443   2.388   5.142   0.332 -0.1215 -0.0043 -0.0457
31183W        W47444   5.399   4.985  15.244 -0.3153 -0.3161 -0.2090
31184W        W47445   9.397   9.654   3.975  0.0778  0.2658 -0.2942
31185W        W47446  14.814   9.992  13.843  0.0359 -0.5457  0.1325
31186W        W47447  10.926   5.450   4.269  0.1889 -0.0570 -0.0529
31187W        W47448   6.891  12.390  14.229  0.1844  0.1653  0.0091
31188W        W47449  17.782  13.858   1.234 -0.2056  0.1090 -0.4452
31189W        W47450   3.253   0.761  16.264 -0.0914 -0.2303  0.0668
31190W        W47451   9.326   2.704  13.896  0.1971  0.4261  0.0341
31191W        W47452   3.256  10.070  15.806 -0.1847  0.1186 -0.1271
31192W        W47453  10.648   5.318  12.008 -0.1927 -0.3573  0.2842
31193W        W47454   6.412  17.705   4.320 -0.1777  0.1686  0.3657
31194W        W47455   4.445   3.189  15.084  0.1697 -0.2763 -0.2399
31195W        W47456  12.236   7.805   1.799 -0.2998 -0.0278 -0.1195
31196W        W47457   7.677   5.753   1.414 -0.0946  0.1666 -0.1025
31197W        W47458   4.395  13.992  14.287 -0.0581  0.1372 -0.1451
31198W        W47459  12.684   3.078   2.107 -0.0487  0.0673 -0.5232
31199W        W47460   3.969   6.806  14.902 -0.0756  0.0338 -0.1152
31200W        W47461  14.729   3.768   2.067 -0.0888 -0.0639  0.1593
31201W        W47462   3.836  13.665  14.356  0.1572  0.1258  0.4122
31202W        W47463  15.520  12.056   4.642 -0.0788  0.2878 -0.0374
31203W        W47464  14.699   0.983  13.798 -0.0426  0.2696 -0.2815
31204W        W47465  11.198  15.216  12.381 -0.2431  0.1236 -0.1470
31205W        W47466   3.192   9.410   1.114 -0.3009 -0.0382  0.2390
31206W        W47467   8.924  15.926   3.636 -0.2040 -0.0703 -0.2241
31207W        W47468   1.407  10.270  15.044  0.3754 -0.1154 -0.0493
31208W        W47469  10.901   9.953   4.524 -0.0199 -0.0807 -0.1497
31209W        W47470  11.174  11.125  14.638  0.0428  0.0561  0.0291
31210W        W47471   6.781   9.581   4.645 -0.0547 -0.0012 -0.2260
31211W        W47472  10.237  13.147   5.215 -0.5520  0.3421 -0.0693
31212W        W47473  13.559   2.709   4.920 -0.0249  0.0832  0.0756
31213W        W47474  14.623   7.582  14.585  0.3770  0.0130 -0.0719
31214W        W47475   1.192   8.734   1.761  0.2283 -0.2005 -0.0042
31215W        W47476   4.921   2.106  14.802  0.1246  0.1498  0.1060
31216W        W47477   2.842   0.301   4.298  0.1448 -0.2316  0.1285
31217W        W47478  15.033  10.051   4.860  0.0013 -0.1773  0.0498
31218W        W47479  11.887   0.960  14.874 -0.1277  0.0024  0.0051
31219W        W47480   1.427   7.651  14.141  0.0084 -0.0374  0.1902
31220W        W47481   3.946   8.758   3.862  0.2744  0.0190 -0.0555
31221W        W47482   5.565  10.832   1.130  0.0394 -0.0245  0.0178
31222W        W47483  10.885   6.518  11.299 -0.4473 -0.1075 -0.2606
31223W        W47484  15.656  13.864   2.642 -0.1407  0.2044 -0.0702
31224W        W47485  11.728  10.495   0.764 -0.1000  0.2337 -0.0710
31225W        W47486   3.662  13.694  13.455  0.0688  0.3249  0.0037
31226W        W47487  14.968   6.736  12.129 -0.1596 -0.1868  0.1672
31227W        W47488  11.946   2.805  14.109 -0.0710 -0.0661  0.1045
31228W        W47489  14.002   1.273  12.678 -0.1407  0.1169 -0.1121
31229W        W47490  17.453  15.938  12.517 -0.0313 -0.0098  0.2447
31230W        W47491   6.984  12.975  14.273  0.0819  0.0688 -0.4161
31231W        W47492   9.152   1.351  16.093  0.1117  0.1274 -0.0190
31232W        W47493   1.901  10.036   1.555  0.0341 -0.0254 -0.3424
31233W        W47494   9.976  11.838  16.886  0.2372 -0.0233  0.0505
31234W        W47495  17.287  15.853  13.661  0.1827 -0.3911 -0.1095
31235W        W47496   9.030  12.897  13.412  0.0331  0.2415 -0.0931
31236W        W47497   2.303   3.079  16.314  0.0612  0.1004 -0.2031
31237W        W47498   1.131  13.069   1.847  0.0438 -0.2767 -0.1105
31238W        W47499  13.072   3.415   3.125  0.2303  0.0382 -0.1578
31239W        W47500  15.445   7.844   5.229  0.1969  0.4081 -0.0026
31240W        W47501   5.501   9.489  12.209  0.0711 -0.0397  0.0526
31241W        W47502   9.994   7.273  13.091  0.2456  0.2019 -0.0894
31242W        W47503  17.682  13.306   0.892 -0.3891  0.3581  0.0191
31243W        W47504   9.422   5.622   2.197  0.5594  0.1304  0.0096
31244W        W47505   4.424  15.072  13.991  0.1413 -0.2189  0.0447
31245W        W47506  14.252   0.514  12.349 -0.0712 -0.2490  0.3367
31246W        W47507   3.326   6.010   1.483 -0.2107 -0.2628  0.0906
31247W        W47508   9.054  10.223   6.736  0.1204 -0.1153  0.1325
31248W        W47509   5.496   0.992   3.588  0.2626  0.1737 -0.1574
31249W        W47510   4.642  14.273   1.805 -0.1368  0.1342  0.1325
31250W        W47511   0.427   7.479   1.039 -0.0026 -0.3795 -0.0583
31251W        W47512  15.853   4.094  11.923  0.1463  0.4023  0.3767
31252W        W47513   3.828   1.955   5.756 -0.1687 -0.1154  0.4793
31253W        W47514   0.606  12.097  14.225  0.1915  0.0575  0.0749
31254W        W47515  10.548   3.139   1.803  0.0066  0.1399 -0.2760
31255W        W47516  15.695   7.502   2.000  0.0500 -0.3216 -0.2125
31256W        W47517   2.094   6.976  14.035 -0.0228 -0.1428  0.0543
31257W        W47518  17.357   7.375  15.761 -0.1367  0.0413  0.0860
31258W        W47519  17.812  11.980   5.635 -0.2040  0.0294  0.0991
31259W        W47520  12.460   4.228   4.602 -0.0751 -0.1687  0.0845
31260W        W47521  15.496  10.572   2.476  0.0184  0.2300  0.1598
31261W        W47522   9.578   6.764  14.749 -0.0412 -0.2197  0.0840
31262W        W47523  15.478   1.040  16.035 -0.1233  0.0219 -0.0119
31263W        W47524   9.553  11.374   1.016 -0.0086  0.1805  0.0817
31264W        W47525   6.062  15.997  16.411 -0.3497  0.1143 -0.1619
31265W        W47526   2.305   3.456  12.960 -0.2252  0.0988  0.2791
31266W        W47527   6.753   9.875   3.689 -0.2745 -0.2473  0.0302
31267W        W47528   9.882  16.221   2.084  0.0668 -0.0360  0.1635
31268W        W47529  12.810  11.019   5.163  0.0779  0.0803 -0.2490
31269W        W47530  17.107   0.312   3.422  0.2535 -0.0518  0.1514
31270W        W47531   4.681   1.837   2.335  0.0845 -0.0579  0.2604
31271W        W47532   5.147  14.796  15.651 -0.1152  0.0882 -0.5175
31272W        W47533  13.651   2.563  16.709 -0.2582 -0.1499  0.0730
31273W        W47534  13.629  11.024   4.174  0.1501 -0.0165 -0.0762
31274W        W47535  12.406  15.045  14.000  0.1223 -0.1213  0.2467
31275W        W47536   1.404  16.965  11.551 -0.0081  0.3891  0.3357
31276W        W47537  15.274   5.069  16.329 -0.1271 -0.2615  0.0563
31277W        W47538  15.142  13.330  11.997 -0.1503  0.2293  0.1971
31278W        W47539  11.343  12.061   5.761  0.2762  0.0286 -0.0930
31279W        W47540  12.395  16.220  12.014  0.1592 -0.2851  0.1679
31280W        W47541   5.728  14.222  12.056 -0.0629 -0.1406  0.1358
31281W        W47542   8.836   8.551  12.376 -0.2067 -0.0773  0.0609
31282W        W47543   4.088   1.363  13.105 -0.0290  0.0441 -0.1907
31283W        W47544   6.750  14.629  16.455 -0.2030  0.0230 -0.1060
31284W        W47545   5.925  16.924  16.000 -0.1051  0.0629 -0.0234
31285W        W47546   7.691  14.812   3.211  0.3386  0.2152 -0.0357
31286W        W47547   6.797   2.263   1.470  0.1038 -0.0351  0.2033
31287W        W47548   1.150   5.789   5.148 -0.1976 -0.2982 -0.0243
31288W        W47549   8.248  16.165  16.041 -0.2334  0.3963  0.0323
31289W        W47550   5.087  13.974  13.150 -0.2169  0.2420 -0.1043
31290W        W47551   0.241   8.244   5.376 -0.1591  0.1235 -0.0525
31291W        W47552   6.201   3.526  15.248  0.2457  0.0282 -0.2775
31292W        W47553   2.835  13.440  14.944 -0.0951  0.1279 -0.0726
31293W        W47554   0.274  12.584  15.350  0.1993  0.0315 -0.1599
31294W        W47555  10.967   9.113   4.938 -0.2499  0.3261  0.2715
31295W        W47556   5.254   5.286   4.971 -0.0052  0.0998  0.1135
31296W        W47557   1.021   7.548  13.283 -0.0103  0.4617 -0.0980
31297W        W47558  12.665  12.967  12.565 -0.0267  0.1385  0.0839
31298W        W47559  12.089  10.512   1.528 -0.2366  0.1772 -0.0353
31299W        W47560   7.138   0.485  12.203  0.1548  0.0033  0.0661
31300W        W47561  12.835   7.659  11.643  0.2141  0.2465 -0.0110
31301W        W47562   7.704   8.309  12.542  0.1285 -0.3286 -0.0857
31302W        W47563   0.801   3.222  12.304  0.1705  0.0402 -0.1091
31303W        W47564  14.994   5.020  13.617 -0.0437  0.1086  0.1699
31304W        W47565  15.439  12.490   0.616  0.0726  0.0106 -0.1034
31305W        W47566   7.311   5.128  15.868 -0.0366  0.0299 -0.3309
31306W        W47567  12.074   1.734   2.806 -0.2118 -0.0238 -0.3347
31307W        W47568   0.879   5.633   1.198 -0.1529  0.0505  0.1436
31308W        W47569   0.772   3.587   2.320 -0.2985 -0.1281  0.0318
31309W        W47570   4.876  13.702  14.569 -0.1707 -0.0816  0.1520
31310W        W47571   3.762   0.337  16.606  0.0181 -0.0619  0.1190
31311W        W47572   3.446   8.730   3.892  0.2645  0.0401  0.3183
31312W        W47573  13.624   1.128  16.882 -0.1140  0.1087 -0.1117
31313W        W47574  12.757  17.048  15.979 -0.2257 -0.0764  0.3068
31314W        W47575   1.814   2.120  12.581  0.0387  0.3443 -0.0845
31315W        W47576   3.528  14.913   3.393 -0.0294  0.0623 -0.1572
31316W        W47577   4.789   8.448  15.380  0.0262 -0.2135  0.0533
31317W        W47578  12.892   6.591  13.058 -0.0873 -0.0548 -0.0732
31318W        W47579  11.700   1.824  12.333 -0.1467  0.1774  0.2062
31319W        W47580   8.890  11.046   5.103 -0.0291 -0.0766  0.0441
31320W        W47581   8.092   0.216  12.194 -0.0891 -0.0450 -0.1936
31321W        W47582   2.509  14.037   3.747  0.2458 -0.4226  0.0502
31322W        W47583  16.856   5.689   4.584  0.2057  0.1672  0.2677
31323W        W47584   3.444   8.414   2.915 -0.1161 -0.1685  0.0771
31324W        W47585   7.937   8.623  12.895  0.0189  0.1644  0.2180
31325W        W47586   7.299  12.400  12.718 -0.0684  0.0810  0.1104
31326W        W47587  11.185   7.987  13.131  0.1200 -0.0056  0.2366
31327W        W47588   6.050  16.466   3.447 -0.0483 -0.1399  0.1007
31328W        W47589  10.759   7.979   3.472 -0.1358  0.2453 -0.0145
31329W        W47590  15.782  11.453  13.881  0.0502  0.1935  0.3046
31330W        W47591  11.615   3.186   5.399 -0.0568 -0.3375  0.0912
31331W        W47592  17.098  15.928  12.892 -0.1225  0.0071 -0.1993
31332W        W47593   2.809   4.408   2.517 -0.3225  0.3938  0.0049
31333W        W47594   3.802  12.166   1.123 -0.0564 -0.0533  0.1097
31334W        W47595   7.891   3.446  14.354  0.0289 -0.1095  0.2246
31335W        W47596   7.363   9.939  14.320 -0.2627 -0.3024 -0.0622
31336W        W47597  12.937   5.738   1.606 -0.0763 -0.1379  0.0195
31337W        W47598  13.110   2.160  16.272 -0.0052  0.0352 -0.0457
31338W        W47599   5.985   3.083  12.749  0.2084  0.3428  0.1386
31339W        W47600  15.557  11.451   0.210 -0.2454  0.2853 -0.0236
31340W        W47601  14.438  11.620   2.550  0.4190  0.0578 -0.1044
31341W        W47602  15.009   9.195   1.643  0.0894 -0.0744  0.1564
31342W        W47603   4.704   9.755   3.246 -0.0400 -0.1196  0.0759
31343W        W47604   6.683  11.632   4.080  0.0621  0.1106 -0.1419
31344W        W47605  16.791  15.684   4.044 -0.2983 -0.0108  0.0112
31345W        W47606  14.088  15.820  11.691 -0.3702 -0.0759  0.0240
31346W        W47607  16.720  14.429  16.928  0.1466 -0.0918 -0.0416
31347W        W47608   2.857   3.110   0.961  0.0538 -0.0090 -0.1944
31348W        W47609   7.917   7.743  15.101 -0.1437 -0.0497 -0.0090
31349W        W47610   0.660  11.541   5.485  0.0091  0.3869 -0.0438
31350W        W47611  11.192   8.386   4.678 -0.1230 -0.0151  0.1427
31351W        W47612   8.666  15.665   2.751 -0.2203 -0.0172 -0.1227
31352W        W47613   9.276   9.201   3.783  0.0502 -0.0541  0.1249
31353W        W47614   3.847   4.946   1.936  0.0905 -0.0343  0.0092
31354W        W47615  13.260  11.097   5.075  0.1419  0.0283 -0.3123
31355W        W47616   4.801   5.599   4.960  0.0551 -0.1391  0.0068
31356W        W47617  17.645  17.461  13.522 -0.1708  0.1261  0.0014
31357W        W47618  16.037  16.861   4.008 -0.0823  0.0883 -0.4123
31358W        W47619   7.600   8.599  16.384  0.2937  0.0476 -0.1486
31359W        W47620   1.268   9.110   3.062  0.0047  0.0145  0.0353
31360W        W47621  16.334  15.866  15.952  0.2071 -0.0058  0.0020
31361W        W47622   6.025  15.924   2.253 -0.1853  0.0876 -0.1085
31362W        W47623   9.691  15.060   5.554  0.0255  0.2348 -0.1445
31363W        W47624  16.439  14.914  13.530  0.0009  0.0884 -0.0107
31364W        W47625   2.989  10.519  15.680  0.1103  0.3819  0.2290
31365W        W47626  16.303  15.610   4.203  0.2619  0.2146  0.0441
31366W        W47627   9.657  13.937   3.780 -0.0619 -0.0100 -0.2746
31367W        W47628   4.238   6.606   0.467  0.4095 -0.0785  0.1194
31368W        W47629  11.935  13.882  14.375  0.1934 -0.1272  0.2645
31369W        W47630   9.624   2.252  16.620  0.1424 -0.1274  0.0119
31370W        W47631   1.786   8.422   0.660 -0.0941 -0.1751 -0.0792
31371W        W47632  10.589   4.106   0.243  0.3612 -0.0477 -0.1822
31372W        W47633  14.925  14.231   3.644  0.0369 -0.2051  0.1227
31373W        W47634  16.158   5.618  16.015  0.1282 -0.0162 -0.1876
31374W        W47635   5.286   6.503  12.783 -0.2613  0.0641  0.1004
31375W        W47636   8.971   5.041   0.415 -0.3732 -0.1801 -0.0126
31376W        W47637  15.123   6.939  12.630 -0.2645  0.1650 -0.2512
31377W        W47638  12.147   4.864  11.198  0.3919  0.1177  0.0732
31378W        W47639   9.039  11.822   3.592  0.1583  0.0693 -0.2514
31379W        W47640  13.118   4.950   3.889  0.1032 -0.0064 -0.0184
31380W        W47641   2.457   3.738   4.235 -0.0277 -0.0407  0.0717
31381W        W47642   9.318  12.046  13.910 -0.0434 -0.3478  0.2639
31382W        W47643   0.867   6.931   2.292 -0.0507 -0.0709  0.4691
31383W        W47644  10.987  15.970   0.224 -0.0936  0.4254 -0.1558
31384W        W47645   2.994  11.702  14.543 -0.0381  0.1128 -0.1185
31385W        W47646   9.156  10.433   3.645  0.1852 -0.0374 -0.0844
31386W        W47647   2.779   0.541  11.492 -0.3656 -0.1030 -0.1224
31387W        W47648  12.765   2.973  16.160  0.0724  0.0971  0.0503
31388W        W47649  10.576  16.016   2.836  0.0129 -0.3374  0.0127
31389W        W47650  14.473  13.890   3.341 -0.0603  0.0299 -0.2391
31390W        W47651   9.716  11.035  15.426 -0.1291 -0.2783 -0.1913
31391W        W47652   3.770  14.548   2.673 -0.3148 -0.2607  0.2351
31392W        W47653   1.354  12.664   0.964  0.1847 -0.1129  0.3871
31393W        W47654   8.861  17.746   2.845 -0.0987  0.2021  0.0480
31394W        W47655   4.307  16.056   3.176  0.0441  0.3992 -0.2546
31395W        W47656   8.139   6.690   1.174 -0.3040 -0.3030  0.0446
31396W        W47657  17.104  11.966   4.593  0.0264  0.0166 -0.2906
31397W        W47658  12.626   3.127   4.535  0.1050 -0.1972 -0.1754
31398W        W47659   1.446   2.611   5.614 -0.0109 -0.0381  0.2119
31399W        W47660   6.893   4.295  13.652 -0.1719 -0.1718 -0.3264
31400W        W47661   7.253   4.209  14.648 -0.0473 -0.0428 -0.0056
31401W        W47662   1.039  14.201  12.949  0.1449  0.0929  0.0621
31402W        W47663  17.601   5.338  16.547 -0.3266 -0.2239 -0.3409
31403W        W47664  10.358   1.262   1.453  0.0940  0.0771 -0.0935
31404W        W47665   7.682  15.378   2.043  0.0998  0.1226 -0.1148
31405W        W47666   4.397   7.845   1.294  0.0403 -0.3080  0.0782
31406W        W47667  12.623   5.310  15.506 -0.0972  0.0110 -0.0790
31407W        W47668   6.623   1.915  13.950  0.1150 -0.0454 -0.1819
31408W        W47669   0.572   4.761   2.662  0.0899  0.0605  0.0299
31409W        W47670  15.886   3.124   3.776 -0.0533 -0.0079 -0.2035
31410W        W47671  17.027   5.050   0.381  0.1284  0.0042  0.3408
31411W        W47672   2.993   3.858  11.825 -0.0387  0.0816  0.0365
31412W        W47673   8.579  16.269  13.303  0.0456  0.1313 -0.1562
31413W        W47674  10.546   8.415   0.093  0.1027 -0.1820 -0.0333
31414W        W47675  14.198   3.751  15.545  0.2888 -0.1024 -0.6066
31415W        W47676   2.522   3.243   0.465 -0.0766  0.2335  0.2998
31416W        W47677  12.470   3.696   4.553  0.0572  0.1358 -0.4280
31417W        W47678   2.468  14.048   2.499 -0.3666  0.3886  0.3116
31418W        W47679   6.040  13.911  13.055  0.0167  0.2180  0.0268
31419W        W47680  13.857   8.132  16.828  0.0866  0.0851 -0.0649
31420W        W47681  17.131   5.658  16.541  0.3598 -0.1613 -0.3562
31421W        W47682   3.072   4.480   0.885  0.1795  0.1771 -0.1756
31422W        W47683  14.449   9.362   4.621  0.0125 -0.0651 -0.0216
31423W        W47684  11.009  10.469   0.077 -0.0449  0.0875 -0.0925
31424W        W47685   3.767  14.375   0.582 -0.1287  0.5064  0.1563
31425W        W47686  13.816  16.563   3.443 -0.0050 -0.0993 -0.1028
31426W        W47687  14.747   5.970   2.799 -0.1140  0.1195  0.2449
31427W        W47688   1.683   0.063   3.161 -0.0670  0.3403  0.1605
31428W        W47689   5.067  13.346  12.154 -0.1398 -0.2684  0.0365
31429W        W47690   1.903  16.043  14.465 -0.2551 -0.1469 -0.0764
31430W        W47691   6.736   2.647  15.301 -0.0937  0.1555  0.1407
31431W        W47692   4.250   8.254   2.480  0.0169 -0.0315  0.1976
31432W        W47693   6.681  12.487  15.658  0.2097  0.1096 -0.2638
31433W        W47694  16.872   0.268   5.739 -0.0004  0.0409 -0.1445
31434W        W47695   5.674   9.421   0.986 -0.0676  0.0923  0.0099
31435W        W47696   5.086   7.594   0.498  0.0568  0.2024  0.0594
31436W        W47697  11.012  14.078  13.041  0.1810 -0.1900  0.2380
31437W        W47698   6.772   0.107  14.187  0.1482  0.1379  0.1883
31438W        W47699   0.436   9.292   4.268 -0.1947 -0.1532  0.0345
31439W        W47700   7.605  12.380  12.229 -0.1800  0.0174 -0.0060
31440W        W47701   7.787  11.369  13.172  0.3861 -0.1938 -0.1096
31441W        W47702   3.835   3.908   4.825 -0.1762  0.0040 -0.2491
31442W        W47703   8.357  12.704   2.537  0.1139  0.2260 -0.0365
31443W        W47704   2.951  16.032   3.589  0.4122  0.0394 -0.0316
31444W        W47705   5.158  14.210   0.596 -0.3714 -0.0822  0.0210
31445W        W47706  14.314  16.055   0.529 -0.0238  0.3257  0.0978
31446W        W47707   2.257   8.970   4.523  0.0142 -0.2907  0.2885
31447W        W47708   9.947   7.499  16.304 -0.3734 -0.0363  0.1504
31448W        W47709  14.498  10.500  15.657  0.2171  0.1411 -0.2789
31449W        W47710   5.664   0.304   4.722  0.1232 -0.0522 -0.0612
31450W        W47711  13.989  17.081  14.856 -0.3959 -0.4115  0.0750
31451W        W47712  11.800   6.077   4.688  0.0394 -0.4823  0.0675
31452W        W47713   5.520   7.729  12.237  0.0409 -0.0092  0.2546
31453W        W47714   7.045   2.789  16.716 -0.2411 -0.0391  0.0540
31454W        W47715  15.578  11.368  15.293  0.2838  0.0695  0.1879
31455W        W47716  11.043  12.410   5.613 -0.0528  0.1547 -0.0500
31456W        W47717   0.870  11.121  15.275  0.0997 -0.0186 -0.0550
31457W        W47718   0.243  12.632  13.832 -0.0515 -0.0130 -0.0227
31458W        W47719   3.258  17.798  14.899 -0.0728 -0.0551 -0.0234
31459W        W47720  16.963  17.052   0.587  0.0491  0.2145  0.1143
31460W        W47721  11.126  12.829  15.333 -0.1743  0.2615 -0.0817
31461W        W47722   9.091   1.825   1.071 -0.0627 -0.0723  0.0915
31462W        W47723   1.108   1.369  12.180  0.1552 -0.0297  0.0321
31463W        W47724   5.819   7.780   2.825 -0.1150  0.0372 -0.4399
31464W        W47725  16.662  14.896   0.033 -0.2081  0.1367 -0.0406
31465W        W47726   2.882  11.524  15.173 -0.1535  0.0988 -0.0985
31466W        W47727   2.150  11.945   2.070  0.1166 -0.2661  0.1756
31467W        W47728   5.079  12.605  13.889  0.0995 -0.2912 -0.2368
31468W        W47729   7.181   2.126  16.013 -0.2443  0.0672  0.0292
31469W        W47730  15.463  16.848   5.093  0.1804  0.0624 -0.0853
31470W        W47731  10.155   5.972   4.225 -0.1300  0.4160  0.0856
31471W        W47732  16.476   0.814  14.996 -0.0785  0.0180  0.0813
31472W        W47733  11.519   7.121   0.822  0.1493 -0.1733  0.2230
31473W        W47734   3.529  14.222  15.107  0.2421 -0.1037  0.0839
31474W        W47735   4.087  11.240  15.970 -0.1450  0.1755  0.1184
31475W        W47736  11.785   0.447   0.216 -0.0383  0.1464 -0.1386
31476W        W47737  10.067   0.075   6.516 -0.0100  0.0914  0.0027
31477W        W47738   3.569   4.586  15.061 -0.0348 -0.1791 -0.1039
31478W        W47739   6.975  13.292  15.724 -0.0349 -0.1414 -0.0148
31479W        W47740   5.732   6.768   0.566 -0.0166  0.0372 -0.0075
31480W        W47741  11.756   7.537  14.052  0.0178 -0.1092 -0.0778
31481W        W47742   1.562   9.639  11.869  0.1208 -0.1533  0.2149
31482W        W47743   0.596   8.592  12.083  0.0437 -0.2915  0.2161
31483W        W47744   1.850  13.591   5.441  0.1284 -0.2381  0.3928
31484W        W47745   2.309   8.868   0.144 -0.2880  0.0244  0.0124
31485W        W47746   7.430  11.277  12.399  0.2119 -0.3461 -0.1465
31486W        W47747  17.752   6.437  16.075 -0.0853  0.1054 -0.4233
31487W        W47748  12.461   7.007   0.380  0.0952  0.0410 -0.1770
31488W        W47749  12.725   8.369   4.874 -0.0990  0.2273  0.1831
31489W        W47750  14.809  16.903  15.864 -0.1628 -0.1299 -0.1582
31490W        W47751  13.279  12.155  15.695 -0.0593  0.2833 -0.2319
31491W        W47752  12.894  10.428  15.115  0.0421  0.0093 -0.0835
31492W        W47753   2.842   7.619  13.083  0.3303 -0.1574  0.0997
31493W        W47754   7.369   2.851   2.166 -0.2935 -0.0231  0.0476
31494W        W47755   5.075  11.839   4.719 -0.2343 -0.1284  0.1208
31495W        W47756  16.485   0.360  16.773 -0.2263 -0.1312  0.2179
31496W        W47757   1.961  16.708  13.460  0.0392  0.1794 -0.0819
31497W        W47758   8.773   3.248   3.836 -0.2440 -0.1984  0.2285
31498W        W47759   4.849  12.147  13.138  0.0924  0.2174 -0.0766
31499W        W47760  17.536  10.376  15.490  0.1658 -0.1873 -0.0484
31500W        W47761  17.280  13.377   4.167  0.0251 -0.1036  0.0155
31501W        W47762  16.604   3.442   1.036  0.0938  0.1126 -0.1563
31502W        W47763  12.694   5.399   3.948 -0.1540  0.0388 -0.0144
31503W        W47764   5.480   9.682  14.430  0.3077  0.3354  0.1604
31504W        W47765   9.932  14.852   1.762 -0.0613  0.0732  0.3666
31505W        W47766  16.146   2.899   5.446 -0.0173  0.1808 -0.0643
31506W        W47767  14.495  13.787   0.976 -0.3052  0.2643 -0.1496
31507W        W47768  12.101  12.367   5.387 -0.1740  0.0862 -0.0152
31508W        W47769   6.300  16.284  13.569 -0.0273  0.3733  0.0062
31509W        W47770   8.327   7.818   0.351 -0.0258  0.0074 -0.2480
31510W        W47771   1.037  13.940  14.523  0.1585  0.2551  0.2750
31511W        W47772  17.094   5.675  13.188  0.0853  0.1166  0.0292
31512W        W47773   0.964   2.479  16.760 -0.2312  0.1696 -0.0256
31513W        W47774  12.991   8.762   4.580  0.2710  0.0858 -0.2257
31514W        W47775  12.497  16.531   4.864 -0.2624  0.3409 -0.1800
31515W        W47776  17.149   5.123   4.134  0.1540  0.0668  0.2131
31516W        W47777   8.976   3.103  13.214 -0.1233  0.1410  0.0515
31517W        W47778   2.685   7.560   1.689  0.2749 -0.0196  0.4161
31518W        W47779   5.289  10.571   5.384  0.1793 -0.0737 -0.1600
31519W        W47780  16.359  15.456   0.136 -0.2648  0.0956  0.0617
31520W        W47781   1.501   5.305  14.854 -0.0362  0.1281 -0.2802
31521W        W47782  12.580   4.855   3.852 -0.1399  0.1951  0.1123
31522W        W47783   8.817  14.736   1.560 -0.1563 -0.2051  0.1815
31523W        W47784  13.388   0.843   5.667  0.2467 -0.0514  0.1666
31524W        W47785  16.827  15.023   2.044 -0.0827 -0.2404 -0.0536
31525W        W47786  11.850  13.977  16.730 -0.3354  0.0008  0.0162
31526W        W47787   8.356   8.626  15.320 -0.0297 -0.0111  0.1755
31527W        W47788  10.611   3.511  11.581 -0.1540  0.0574  0.0021
31528W        W47789   5.115  12.704  16.926 -0.3497  0.3862 -0.1958
31529W        W47790   8.290   7.819  12.885 -0.1954  0.2946  0.0375
31530W        W47791   8.456   1.986  16.043  0.0003  0.0149 -0.0570
31531W        W47792  11.065   4.100   4.315 -0.0967  0.0454  0.0607
31532W        W47793  10.471  12.288   2.003  0.1615  0.2800  0.2015
31533W        W47794  16.294   3.028  13.274  0.2410  0.1469  0.0248
31534W        W47795   5.741   1.189  15.156  0.1317 -0.2435  0.2883
31535W        W47796   8.587   1.104  12.377 -0.0909  0.0055 -0.0894
31536W        W47797   3.898   9.724  14.423  0.1348 -0.0275  0.0279
31537W        W47798   6.326  16.697   1.799 -0.0501  0.1375 -0.3028
31538W        W47799   9.720  13.079   3.613  0.1277 -0.1265 -0.3225
31539W        W47800  16.998  11.411   3.335  0.2314 -0.1191 -0.0856
31540W        W47801  16.004   1.943  14.089 -0.0851 -0.1291 -0.4486
31541W        W47802  12.921  15.309  14.835 -0.0903  0.1129 -0.0275
31542W        W47803   0.861   9.496   2.161  0.1224  0.0564  0.1355
31543W        W47804   0.239  16.649   1.134  0.1529  0.2100  0.1956
31544W        W47805   4.120  13.250   4.185 -0.2558 -0.1245 -0.0791
31545W        W47806  14.147   4.527  14.022  0.1311  0.0376  0.0243
31546W        W47807   2.230  13.632   5.827 -0.1299 -0.2060 -0.1384
31547W        W47808   9.307   3.660  13.828 -0.0833 -0.1271 -0.0313
31548W        W47809   1.143  17.534  16.458 -0.1247  0.0758  0.3560
31549W        W47810  14.763   4.617   0.892 -0.0305 -0.1515  0.1505
31550W        W47811  12.780  16.082   3.113 -0.1340 -0.0937  0.0739
31551W        W47812  14.874   2.287   3.377  0.0518  0.3903  0.1339
31552W        W47813   2.679  15.192  13.939 -0.2193  0.0452  0.0037
31553W        W47814   2.370   4.019   0.385 -0.1650  0.2656 -0.4120
31554W        W47815   6.365  14.967  16.987  0.1196 -0.0228  0.0163
31555W        W47816  13.247  12.826   2.097 -0.1831 -0.1811  0.1671
31556W        W47817   4.031   1.317   1.868 -0.0500 -0.1528 -0.1345
31557W        W47818   7.483   7.163  11.961 -0.0736  0.1661 -0.0743
31558W        W47819   0.863  14.750   1.250  0.2180  0.2231  0.1943
31559W        W47820   2.239  10.885   0.516  0.2091  0.0135 -0.0177
31560W        W47821   9.315  14.951  12.269 -0.2549 -0.2288  0.0497
31561W        W47822  11.958  17.507  16.716 -0.1136 -0.1528  0.0428
31562W        W47823  11.704   8.793   6.044 -0.0423 -0.0092 -0.1932
31563W        W47824   0.857   8.369   2.363  0.1500  0.1458  0.1298
31564W        W47825   0.011  14.772  15.696  0.1117 -0.0028  0.2098
31565W        W47826  15.643   7.953  12.795 -0.0268 -0.0318 -0.1350
31566W        W47827  10.364   1.120  13.420 -0.2605 -0.1718  0.1376
31567W        W47828   8.064  11.854   6.617 -0.1273  0.0655 -0.3945
31568W        W47829  14.843  15.745   5.533 -0.0452 -0.0169  0.0102
31569W        W47830  11.236   5.070  13.314 -0.0647 -0.1135  0.1581
31570W        W47831  13.483   9.697   0.265 -0.3245 -0.1523  0.0358
31571W        W47832   1.281  14.414  11.792 -0.1767  0.2983 -0.0429
31572W        W47833   3.555   5.295   3.809 -0.0792  0.3460 -0.0390
31573W        W47834  17.722   4.911  14.329 -0.2007 -0.1336 -0.0834
31574W        W47835  13.174  13.826   5.181  0.1077  0.1089 -0.0754
31575W        W47836   5.022  15.048   1.170 -0.1884  0.0933  0.4801
31576W        W47837   9.799  12.232   0.190  0.3381 -0.2601 -0.0892
31577W        W47838  11.176   4.912   1.541 -0.3463 -0.0819  0.3856
31578W        W47839   4.975   4.548   2.722 -0.0950 -0.1844  0.1659
31579W        W47840   1.664   8.086   5.143 -0.0997  0.0156 -0.1207
31580W        W47841  13.648   2.631   5.414  0.2113  0.1014 -0.0491
31581W        W47842  12.877   1.077   3.936  0.1534  0.0904  0.2544
31582W        W47843   0.197  13.980  16.518  0.3000  0.0856 -0.0919
31583W        W47844  14.879   1.935   4.786  0.1139 -0.2221 -0.0131
31584W        W47845  17.368   8.260   2.971  0.1499  0.1432  0.0863
31585W        W47846   6.700   0.154   2.056  0.0865 -0.2652  0.2300
31586W        W47847  10.150   5.363   0.135  0.1104 -0.1808 -0.3961
31587W        W47848   1.056   4.836   2.643 -0.0944  0.0140  0.0748
31588W        W47849   1.098   0.324   0.504  0.1375  0.0510 -0.0785
31589W        W47850   3.916   0.622   1.407 -0.3890  0.1995  0.1015
31590W        W47851  16.853   0.861  14.461 -0.1389  0.2162 -0.1345
31591W        W47852   3.551  15.171  13.654 -0.2217 -0.1469  0.2293
31592W        W47853   1.926  11.862  14.194  0.0703  0.2435  0.1158
31593W        W47854   2.434  13.888   0.240  0.0283  0.2070 -0.0990
31594W        W47855   6.838   7.397   3.865  0.0712  0.2577 -0.0720
31595W        W47856  10.127   7.906  16.893 -0.0125 -0.1036  0.1078
31596W        W47857   3.842   2.139   3.514  0.0095  0.0767  0.1337
31597W        W47858  11.983  16.169  16.330  0.2085 -0.0422 -0.0242
31598W        W47859   4.081   0.822   5.401 -0.2766 -0.0674  0.2026
31599W        W47860   9.399  16.497   4.738 -0.0509 -0.0119 -0.0924
31600W        W47861   9.638   2.009  11.696  0.0676  0.3243 -0.0353
31601W        W47862   8.224   6.608  16.554  0.0206  0.0179 -0.0185
31602W        W47863  13.601   2.524  15.507  0.0781  0.4452  0.0869
31603W        W47864  14.469  13.374   3.369 -0.0142  0.4269  0.1121
31604W        W47865   2.252  16.796  13.012 -0.1375  0.0631  0.1964
31605W        W47866  10.459   5.460   3.526  0.1810  0.0117 -0.1751
31606W        W47867  14.966   0.313  14.146 -0.0086 -0.1813 -0.1144
31607W        W47868  17.197   4.486  12.420  0.1051  0.1558  0.1044
31608W        W47869   7.008  12.416   3.780  0.0307 -0.1664  0.3545
31609W        W47870  14.078   0.602  13.303 -0.0187  0.0804 -0.1521
31610W        W47871   3.904  13.608  15.696 -0.4786  0.2402 -0.1531
31611W        W47872   6.527  12.884   4.454 -0.0054  0.0403 -0.1764
31612W        W47873  14.060   6.572   2.218 -0.0250 -0.1210  0.2417
31613W        W47874  13.755   4.355   3.728  0.2185 -0.2315 -0.1831
31614W        W47875  13.104   4.355  14.671 -0.1715 -0.4941 -0.0298
31615W        W47876  12.940  11.578   0.238  0.2843 -0.0655  0.0952
31616W        W47877   2.689   2.293   0.613  0.0111 -0.2547  0.6167
31617W        W47878  13.262   2.333   1.733 -0.1925 -0.0262  0.1079
31618W        W47879  10.165  14.448   1.099  0.1694 -0.1518 -0.1185
31619W        W47880   3.334  10.295   4.910  0.0494  0.4363 -0.0200
31620W        W47881   9.736  16.468   4.395  0.0850  0.2797 -0.0382
31621W        W47882   9.236   6.302  12.324  0.0289  0.1233 -0.0009
31622W        W47883   8.386  17.394   2.656  0.1490 -0.1287  0.0740
31623W        W47884  15.850  14.140   1.121 -0.1181  0.1256  0.0110
31624W        W47885   9.536  14.171   2.823  0.0959 -0.0452 -0.1973
31625W        W47886   5.190   7.478   3.841  0.0167  0.0669  0.0213
31626W        W47887   0.499   1.675  15.592  0.1683 -0.0431 -0.2332
31627W        W47888  10.510   3.741  13.564  0.0606  0.2197 -0.0402
31628W        W47889  14.197  11.337   3.363  0.0268 -0.0837 -0.0424
31629W        W47890   7.649  14.187  16.782  0.2073  0.0706 -0.4058
31630W        W47891  10.003   5.591  15.309 -0.4625 -0.2338  0.1224
31631W        W47892   0.894   8.773  14.977 -0.0655  0.0105 -0.1452
31632W        W47893   5.973   3.558  11.986  0.1782  0.1209 -0.3206
31633W        W47894  13.187   0.698  11.627  0.1358 -0.2354  0.2449
31634W        W47895   5.336  13.238   2.176 -0.0203 -0.0741  0.2172
31635W        W47896   5.837   9.773   5.746 -0.0961 -0.2697 -0.0849
31636W        W47897  12.371  16.548   0.207  0.4999  0.1720 -0.0703
31637W        W47898  12.274   4.335  12.007  0.1834 -0.0005 -0.0768
31638W        W47899   2.933   6.713   4.857 -0.0409  0.3625  0.0568
31639W        W47900  13.426   0.347   4.160 -0.0161 -0.2855 -0.0813
31640W        W47901   9.262  14.045   0.492 -0.1582 -0.2729  0.1325
31641W        W47902  10.948   4.943   4.761  0.0059 -0.2704 -0.3880
31642W        W47903  14.080  14.375   6.285 -0.1464  0.1272  0.2910
31643W        W47904   4.656  12.360  15.088  0.0719 -0.1299 -0.1029
31644W        W47905  17.616   6.218   6.091  0.2315 -0.1429 -0.0196
31645W        W47906   0.122   6.575   0.786 -0.1587 -0.1173  0.0785
31646W        W47907   3.251  16.459   2.291 -0.2423  0.0305 -0.0633
31647W        W47908  11.460  16.758   1.845  0.0641 -0.2576 -0.0924
31648W        W47909  11.246  17.140   5.442  0.0391  0.1311 -0.3800
31649W        W47910   1.201   0.874   5.256  0.1779 -0.1609 -0.1712
31650W        W47911   7.642  16.704   6.057 -0.0852  0.1478 -0.1409
31651W        W47912   8.981  14.710   2.093 -0.0693  0.1954 -0.0242
31652W        W47913  17.291  11.040   4.260  0.0974 -0.0943  0.1865
31653W        W47914   5.840   2.630  12.673 -0.4588  0.0644  0.0127
31654W        W47915   8.271   1.646   1.331 -0.1148 -0.1118  0.0128
31655W        W47916  15.678  12.616   6.310  0.3081  0.0622  0.2123
31656W        W47917  15.884   1.703   0.861  0.3424  0.1315  0.0593
31657W        W47918   4.279  13.718   5.752  0.0598  0.0351  0.0813
31658W        W47919   9.481  17.283   2.480  0.0678 -0.2155  0.0979
31659W        W47920   6.712  17.000   5.906 -0.2299  0.1341  0.1116
31660W        W47921   3.278  17.396   4.826 -0.0485  0.2852 -0.0512
31661W        W47922   6.888  15.196  14.257 -0.1212  0.1233 -0.1273
31662W        W47923   2.276   4.279  14.684  0.1042 -0.0599  0.0064
31663W        W47924   9.403   4.311  13.090 -0.1195 -0.1154 -0.0741
31664W        W47925  12.032   6.634  14.807 -0.0115  0.0296  0.0008
31665W        W47926   6.636   1.785   0.567 -0.0224 -0.0735  0.3796
31666W        W47927   1.110   6.930  14.020 -0.1230  0.0965  0.0345
31667W        W47928  12.708  15.022  16.974 -0.2994 -0.4743  0.1586
31668W        W47929   6.946   8.574  11.687  0.3675 -0.1650  0.0690
31669W        W47930  12.374   5.170  16.005  0.1394 -0.2597 -0.2819
31670W        W47931  16.659  11.760   2.592  0.0225 -0.1154 -0.0052
31671W        W47932   7.686   3.063  14.893 -0.1242 -0.0110 -0.1618
31672W        W47933  11.656  14.623   0.860  0.0175  0.0874 -0.0776
31673W        W47934   7.053   5.277  11.899  0.0788 -0.0775 -0.4244
31674W        W47935  15.826  12.830  11.870 -0.0622 -0.1640 -0.0003
31675W        W47936  11.425   9.027   4.774  0.1480  0.0749  0.1132
31676W        W47937   0.419  15.009   0.381 -0.0475  0.3634  0.1070
31677W        W47938   6.059   0.357   5.036  0.0325  0.0028 -0.2280
31678W        W47939   1.251  15.088   0.491 -0.0513 -0.0842  0.0777
31679W        W47940  17.081   9.675   6.373  0.0046 -0.0924  0.0845
31680W        W47941   0.387  12.545  16.306  0.1851 -0.4272 -0.0330
31681W        W47942   4.351  11.361   1.057  0.1921  0.3342 -0.1728
31682W        W47943   0.742   0.652   3.285 -0.0205 -0.2308 -0.0175
31683W        W47944   5.910  12.741  12.095 -0.1389  0.0713 -0.0602
31684W        W47945   8.165  16.866  14.562 -0.0059  0.0411 -0.1925
31685W        W47946   0.305  10.250  12.658 -0.0015 -0.0563 -0.3064
31686W        W47947   5.095  13.740  13.578  0.1228  0.2688  0.1137
31687W        W47948   4.531  17.668   5.236  0.0785  0.4553  0.2236
31688W        W47949  17.169   0.160   0.538  0.0656 -0.2324  0.0606
31689W        W47950  17.405  10.017   4.966 -0.2145  0.0331 -0.3720
31690W        W47951  14.952   1.514  12.588  0.0194  0.4034 -0.2698
31691W        W47952   5.524  11.227   4.559  0.2194  0.1087  0.0586
31692W        W47953  12.614   1.042  12.817 -0.0290 -0.2540  0.0577
31693W        W47954  16.108  15.225  13.326 -0.0394 -0.0794  0.0015
31694W        W47955   4.423  17.421  16.890 -0.0584 -0.2638 -0.0619
31695W        W47956  12.800   7.123  12.380 -0.3542  0.0188  0.0285
31696W        W47957   2.204   4.181   4.379  0.0279  0.2931  0.0572
31697W        W47958   4.410  14.832   2.616  0.1990 -0.1725  0.1163
31698W        W47959   1.764   3.083  16.779 -0.1766  0.1928 -0.0905
31699W        W47960   3.424   2.923  15.914  0.0072  0.0660 -0.0193
31700W        W47961  12.057   8.501  11.589  0.1400  0.2250  0.1217
31701W        W47962  15.749   5.712  13.382  0.1291 -0.3497  0.2073
31702W        W47963   9.131   1.207   0.810 -0.0939 -0.2895 -0.0175
31703W        W47964   9.498   8.402   5.872  0.2537  0.0974 -0.1209
31704W        W47965  11.776   7.521  16.691  0.0246  0.0302 -0.0295
31705W        W47966  11.720   3.547   2.682 -0.0949  0.0197  0.1099
31706W        W47967   2.654  12.113  16.461 -0.0865  0.0541 -0.0423
31707W        W47968  11.479   9.993   1.640 -0.1962  0.0909  0.0034
31708W        W47969  14.748  15.021   3.852  0.0393 -0.0888 -0.1922
31709W        W47970   4.596  11.770   0.966 -0.0764 -0.1669 -0.0788
31710W        W47971   0.015  17.437   0.806  0.0174  0.0425  0.2725
31711W        W47972   2.459  10.580   0.017 -0.3856  0.1012  0.1134
31712W        W47973   9.967   3.592   5.589 -0.1243 -0.0091 -0.1726
31713W        W47974  11.804   4.151  11.685 -0.0089 -0.0713  0.3138
31714W        W47975   5.553  16.339   0.073  0.1737  0.1555  0.0482
31715W        W47976   8.884  13.375   1.139  0.0305  0.1433  0.1745
31716W        W47977   4.991  15.226   3.615 -0.0196 -0.1350 -0.0791
31717W        W47978  14.787   2.008  16.137 -0.0750 -0.0012  0.0897
31718W        W47979   8.377  10.852  14.025 -0.1318 -0.0929 -0.0305
31719W        W47980   2.171  11.548  15.665  0.1212  0.0126  0.1132
31720W        W47981   7.019   3.800   2.882  0.2034 -0.0367  0.0223
31721W        W47982   7.583  10.627   4.800  0.0041 -0.1581 -0.0103
31722W        W47983  13.289  17.245   1.962  0.1604  0.4232  0.0466
31723W        W47984  10.270  12.053  10.892  0.0473 -0.1349  0.1246
31724W        W47985  13.201   3.956  11.683 -0.0380 -0.1252  0.0493
31725W        W47986   3.110  16.019   5.366  0.0434  0.1691 -0.2194
31726W        W47987   9.491  11.183   2.391 -0.1236 -0.4449  0.1610
31727W        W47988   7.235  16.316   3.692 -0.2833  0.1476 -0.1523
31728W        W47989   4.896   2.264   3.033 -0.0835 -0.1955 -0.2282
31729W        W47990   0.592  17.649  12.508  0.0099  0.3455 -0.0118
31730W        W47991   8.946   3.381   5.427 -0.1031  0.0349 -0.3195
31731W        W47992   8.325  17.417   3.197 -0.0078  0.1509 -0.0066
31732W        W47993  14.107   5.128   3.739 -0.1441 -0.1372  0.1400
31733W        W47994  11.169  14.925  13.380 -0.2791  0.1425  0.2303
31734W        W47995   8.035  13.465  16.879  0.0850  0.5119 -0.1800
31735W        W47996  10.428   5.483   4.114 -0.0885  0.0868 -0.3634
31736W        W47997   5.010  16.221   1.440 -0.0174  0.0748 -0.2075
31737W        W47998   7.688  10.253   1.517 -0.3027  0.1233  0.0794
31738W        W47999  15.892  13.227  13.702 -0.0746 -0.1821  0.1410
31739W        W48000  12.627   5.040  12.238 -0.0141 -0.2322  0.1499
31740W        W48001   0.460   7.281   5.786  0.2282 -0.1059  0.0040
31741W        W48002   4.842   1.820  12.695  0.2217  0.1000  0.2018
31742W        W48003  16.272  16.403  12.636 -0.1716 -0.0595 -0.0019
31743W        W48004   7.002  10.746  16.041  0.3473 -0.0423 -0.0249
31744W        W48005   7.243  10.491  14.723  0.0995 -0.3233  0.2268
31745W        W48006  13.598   1.309  13.086 -0.2375 -0.0522  0.2042
31746W        W48007  16.886   0.995  13.252  0.2535 -0.2972  0.0509
31747W        W48008  11.498  16.128  14.038  0.3707 -0.0364 -0.0361
31748W        W48009   8.332  13.524   2.822 -0.1376 -0.0612 -0.0518
31749W        W48010  14.235   7.972  13.257 -0.0920 -0.2762 -0.1090
31750W        W48011   6.042  10.732  15.772  0.2220  0.0211 -0.0529
31751W        W48012   4.984   7.859   1.483  0.0257  0.2897 -0.1025
31752W        W48013   5.424  17.712  14.381 -0.0375  0.1639  0.0569
31753W        W48014  11.923  17.655   5.850 -0.2926 -0.2590  0.2190
31754W        W48015  11.893   6.675   0.945 -0.0202  0.1114  0.0510
31755W        W48016  12.165  10.380   3.301  0.0786  0.0385  0.1880
31756W        W48017   2.450  17.697  12.160 -0.0452 -0.3135 -0.2162
31757W        W48018   7.493   1.091  16.682  0.2375 -0.0056  0.0184
31758W        W48019   0.885  16.729  14.648 -0.0078 -0.0647 -0.1136
31759W        W48020   6.989   4.535   3.749 -0.1836 -0.1911 -0.1933
31760W        W48021   9.875  15.149   2.518 -0.0721 -0.1361  0.1283
31761W        W48022   7.842   0.300   5.936  0.3689  0.0968 -0.3105
31762W        W48023   3.668  13.064   5.552 -0.3583  0.1037 -0.2649
31763W        W48024  13.255  13.936   0.604  0.0026 -0.0086  0.3407
31764W        W48025   1.592   6.868   3.620 -0.1912  0.1842  0.1497
31765W        W48026  10.305   3.328   2.886  0.2609 -0.1827  0.1134
31766W        W48027   6.232   2.980  16.938  0.3456  0.0893 -0.0527
31767W        W48028  12.189  15.381   5.584 -0.1321 -0.0419  0.0922
31768W        W48029   9.866  16.383   6.097 -0.1721 -0.1552  0.2170
31769W        W48030   0.154   3.700  13.171 -0.0643 -0.2041  0.0126
31770W        W48031   1.422   4.567  16.918 -0.0273 -0.2100  0.1563
31771W        W48032  13.964  14.030   3.598 -0.0496  0.1603  0.1056
31772W        W48033  15.578   1.970   1.599 -0.1110 -0.3409 -0.3085
31773W        W48034   6.586   2.082  12.598  0.1037  0.0595  0.0820
31774W        W48035   3.524  15.143   5.176  0.1401  0.0534 -0.0110
31775W        W48036  16.139  14.661   5.162 -0.0099 -0.0670 -0.2786
31776W        W48037  10.808  17.814   3.492  0.0502 -0.0155 -0.2111
31777W        W48038   8.087  15.684  12.706 -0.0826  0.1218  0.2647
31778W        W48039  14.549  13.649  16.305  0.0799 -0.0131 -0.2066
31779W        W48040  12.028   7.566  15.733 -0.2153  0.2030  0.3777
31780W        W48041  16.764   6.318  16.269 -0.1561 -0.3908  0.1173
31781W        W48042   3.995  15.452   4.242  0.5105  0.0581  0.0320
31782W        W48043   7.461   1.340   5.379  0.0104 -0.1316 -0.3320
31783W        W48044  12.434   3.491   1.411  0.2576 -0.0834 -0.0747
31784W        W48045   2.192   2.516   3.205  0.2711 -0.0241 -0.3445
31785W        W48046   7.296   4.081   1.468 -0.1898  0.0597  0.1934
31786W        W48047   9.073   4.080   0.472 -0.1535 -0.3587 -0.1022
31787W        W48048   6.408  13.612  11.907  0.2832 -0.5676  0.0314
31788W        W48049  13.580   5.583  13.367  0.0067 -0.2157 -0.4047
31789W        W48050   1.934  17.563  16.617 -0.0332 -0.1812 -0.0600
31790W        W48051  11.680   2.565  13.702  0.0748 -0.2062  0.1071
31791W        W48052   1.161  16.818   3.777  0.0924 -0.2143 -0.1516
31792W        W48053   3.170  17.272  16.246  0.2065 -0.0832  0.1703
31793W        W48054  16.024   0.594  13.248 -0.0854 -0.0206 -0.2466
31794W        W48055  16.649  12.594  12.606 -0.3090  0.0915 -0.4265
31795W        W48056   3.378  11.934   5.080  0.1881 -0.0660  0.0795
31796W        W48057  11.696   1.580  14.719  0.0331  0.2107  0.1484
31797W        W48058  13.765  12.754   0.626 -0.0296 -0.0039 -0.0450
31798W        W48059  10.601   5.849  11.988  0.0515 -0.1059  0.0406
31799W        W48060   5.627  12.420  15.551 -0.0001 -0.0737  0.0801
31800W        W48061  14.862  15.564  10.789  0.1430  0.0753  0.2080
31801W        W48062   1.018   4.431  12.343 -0.1863  0.3046 -0.1702
31802W        W48063   9.936   4.186  15.126 -0.1683 -0.0135 -0.1285
31803W        W48064  16.548  15.263  14.077  0.2599  0.0852 -0.1102
31804W        W48065  17.496  15.727   0.973  0.2659  0.3370 -0.2536
31805W        W48066  17.163   5.298  13.578  0.2397 -0.1642 -0.1115
31806W        W48067   7.212   3.265   3.503 -0.1389  0.3815 -0.3449
31807W        W48068   3.085  16.537  16.708 -0.0197  0.3031  0.2168
31808W        W48069   6.389  17.570  13.279 -0.3214  0.1256  0.0729
31809W        W48070   5.398   3.586  14.848  0.1052  0.2430 -0.1581
31810W        W48071   9.251   3.507  15.786 -0.2863  0.2189 -0.1133
31811W        W48072  10.133  10.501   2.255  0.2654  0.3913  0.0028
31812W        W48073   4.861   3.649  16.658 -0.2284  0.0529  0.6309
31813W        W48074   2.584  14.191   5.533  0.1763 -0.1505  0.2529
31814W        W48075  11.894  16.519  15.915  0.0362 -0.1827  0.0874
31815W        W48076  11.769   2.274  15.338 -0.0491  0.5035  0.0374
31816W        W48077  15.268   2.007  13.633  0.0113  0.0861  0.0772
31817W        W48078  11.164   7.558   0.987  0.3063 -0.1128  0.2754
31818W        W48079  17.116   7.458  12.023  0.0816  0.2294 -0.1448
31819W        W48080  14.421  10.840   1.715  0.1502  0.1668  0.1576
31820W        W48081  17.663   9.263   4.096  0.1767  0.1674  0.0284
31821W        W48082  11.654  14.828  16.202 -0.0143  0.4205 -0.0146
31822W        W48083  11.245   3.071  15.415 -0.2385  0.2075  0.2310
31823W        W48084  14.167   8.402  15.432  0.1410 -0.0510 -0.1464
31824W        W48085  13.191   9.835  16.856  0.1047  0.3157 -0.0284
31825W        W48086   8.059  10.562   1.847 -0.0881  0.0993 -0.2783
31826W        W48087  10.649   1.381  12.907 -0.1109 -0.1497  0.0600
31827W        W48088  11.934  13.819  13.681  0.0937 -0.0380 -0.1806
31828W        W48089  11.848   6.052   4.199  0.1613  0.0381  0.1491
31829W        W48090   1.395  10.303   4.088  0.1314 -0.3104 -0.2633
31830W        W48091   3.546   8.315  12.132  0.4113 -0.5616 -0.0413
31831W        W48092  11.382  14.003  14.320  0.3601 -0.0704  0.0192
31832W        W48093   7.382  10.498  15.945 -0.0194 -0.0852 -0.1089
31833W        W48094   9.451  15.380   1.674 -0.1660 -0.0640  0.0950
31834W        W48095  15.807  15.632   2.681 -0.0059 -0.0350 -0.1664
31835W        W48096   9.438  16.337  14.932 -0.2391  0.1091  0.2683
31836W        W48097  12.627  14.800   1.070  0.0985 -0.1382  0.0161
31837W        W48098   1.611  10.069   0.841 -0.2021  0.0264 -0.5559
31838W        W48099  10.055   4.441   0.130  0.3253  0.0732  0.2247
31839W        W48100   3.365  12.001  12.656  0.1142  0.1666  0.1040
31840W        W48101  17.221  14.333  13.865 -0.2748  0.0274  0.1209
31841W        W48102  16.530   6.693   4.737  0.2151 -0.3119 -0.0095
31842W        W48103   5.013  17.641   5.666  0.0215 -0.0033 -0.3081
31843W        W48104  16.971  17.749   0.977  0.1076  0.0396  0.0492
31844W        W48105   6.647   7.432   1.707 -0.1009  0.0652  0.2130
31845W        W48106  13.498   2.997   5.719 -0.1472  0.0245 -0.0312
31846W        W48107  17.103  15.322   5.299 -0.1133 -0.0192 -0.0681
31847W        W48108   6.342  12.308  12.097 -0.1752  0.1178 -0.1076
31848W        W48109  15.466   9.668   1.992 -0.1103  0.1660  0.0330
31849W        W48110   7.026   0.703   5.315  0.1890 -0.1056  0.1741
31850W        W48111  14.647   9.391   1.933 -0.0557 -0.0510  0.6766
31851W        W48112  13.599   7.358   4.601  0.2229  0.0524  0.1713
31852W        W48113   0.058   2.099   1.480 -0.2030 -0.0904 -0.0999
31853W        W48114   5.235  11.681   1.910 -0.1495 -0.0468 -0.1947
31854W        W48115   6.865  14.844   2.885  0.0167  0.0464 -0.1165
31855W        W48116  12.538  15.109   5.321 -0.0965  0.0157 -0.0612
31856W        W48117   6.785   3.643  13.033  0.0668 -0.4290 -0.0839
31857W        W48118   2.192  10.784  15.019 -0.1701  0.0403 -0.2153
31858W        W48119  15.507   3.947   3.308  0.0050 -0.2093 -0.1051
31859W        W48120  15.308   5.224   5.959 -0.2091  0.0879  0.0718
31860W        W48121   6.585   4.998  16.638  0.2740 -0.0675 -0.1593
31861W        W48122  13.634  10.538   1.782 -0.1415 -0.1780 -0.1350
31862W        W48123   9.570   8.156  11.831  0.1901  0.0290  0.2290
31863W        W48124   7.508  11.175  15.405 -0.0483 -0.1815  0.3106
31864W        W48125  14.671   9.698   4.948 -0.4917  0.0960 -0.0916
31865W        W48126  15.623  16.968   5.709 -0.1809  0.0518  0.3769
31866W        W48127   1.144   2.609   3.342  0.0963  0.2818 -0.0749
31867W        W48128   3.414  16.649   4.110  0.4577  0.2259  0.0073
31868W        W48129  11.902   8.927   3.143 -0.1644 -0.1724 -0.2538
31869W        W48130  11.945   8.003  13.858  0.4273  0.0809  0.0688
31870W        W48131  10.852  15.181  16.971  0.1029 -0.2487  0.1353
31871W        W48132  15.597   2.553   2.163  0.2525  0.1847  0.3236
31872W        W48133  11.907   7.488   3.605  0.2105  0.0341 -0.4967
31873W        W48134  15.110   0.489   0.759  0.0699 -0.0143  0.1457
31874W        W48135  14.934  13.946   2.060  0.0046 -0.0438 -0.1524
31875W        W48136   0.134   0.660  11.955 -0.0546  0.2651  0.0859
31876W        W48137   5.873  13.671   3.816  0.2211 -0.2258  0.1288
31877W        W48138   1.026   3.800  13.075 -0.0616  0.0433 -0.1555
31878W        W48139   2.891   1.377   0.962 -0.0840 -0.1328  0.1251
31879W        W48140   5.162  15.907   2.617  0.0267  0.1914  0.1170
31880W        W48141   0.621   0.904  12.856  0.4040  0.1222  0.0902
31881W        W48142  11.158   7.191  14.966 -0.0120 -0.0969  0.2014
31882W        W48143   1.329  15.700  16.448 -0.1619 -0.1809  0.0928
31883W        W48144   4.861   5.363  14.832 -0.3049 -0.2934 -0.0939
31884W        W48145  13.398  14.456   0.500  0.1382 -0.0221 -0.2409
31885W        W48146  12.607   7.250   4.219 -0.1478  0.0012  0.0837
31886W        W48147  11.001  14.120   5.635  0.1015  0.2142 -0.1243
31887W        W48148   5.935  17.434   5.331 -0.2129 -0.0910 -0.2379
31888W        W48149  13.376  16.157   4.649  0.1353 -0.1914  0.3558
31889W        W48150  12.463   6.128  12.303  0.0542  0.1207 -0.1103
31890W        W48151   0.171   8.236   1.151  0.0095 -0.0318 -0.2258
31891W        W48152  14.943   3.725  11.668  0.3743 -0.1118 -0.1849
31892W        W48153  16.845   4.249  12.731  0.2301  0.3635 -0.1977
31893W        W48154  13.953   4.851   1.580 -0.1711  0.2081 -0.0577
31894W        W48155   6.178  12.343   3.785 -0.2520  0.1556 -0.3368
31895W        W48156   6.920  10.873   3.464  0.0438  0.1060 -0.0393
31896W        W48157  16.307  10.800   0.601 -0.0174 -0.2139 -0.2424
31897W        W48158   0.822   4.295  15.740  0.3236  0.0673 -0.1370
31898W        W48159   7.467   9.940  16.791  0.1294 -0.3019 -0.2245
31899W        W48160  16.673   6.930   3.989  0.1316 -0.1288  0.0344
31900W        W48161  16.945  13.433   5.731  0.1381 -0.1012  0.2158
31901W        W48162   7.411   3.343   3.090  0.1008 -0.2059 -0.1504
31902W        W48163   7.436   1.763   2.673  0.2025 -0.3902 -0.0684
31903W        W48164   9.764   9.516   6.147 -0.1494  0.1437 -0.1488
31904W        W48165  14.770  13.613   2.753 -0.0113  0.2209  0.0123
31905W        W48166   5.484   4.131   1.533 -0.1797 -0.3618 -0.1769
31906W        W48167   1.274  13.756   1.122  0.1188 -0.0153 -0.0369
31907W        W48168  11.415  17.457   4.142 -0.3677  0.2252 -0.3033
31908W        W48169   2.176  11.748   0.108  0.0017 -0.1127  0.0607
31909W        W48170  13.656  13.663  12.832 -0.3523 -0.0871  0.4237
31910W        W48171   2.786   1.874   3.065 -0.0453 -0.0433  0.1123
31911W        W48172  14.366  12.286  13.980 -0.1179 -0.1212 -0.0611
31912W        W48173   2.861  15.352  14.416  0.1150 -0.0556  0.1601
31913W        W48174   6.001  12.481  12.776 -0.3296 -0.1697  0.0204
31914W        W48175   4.684   4.982  12.991 -0.2350 -0.1255  0.0295
31915W        W48176  14.170   1.877  16.766  0.2515 -0.0115  0.0602
31916W        W48177  17.562   0.045   0.876 -0.0876 -0.1821  0.0344
31917W        W48178   6.278  11.353   0.473 -0.0309  0.0361 -0.2035
31918W        W48179  16.965  15.955  14.567  0.0208  0.3375  0.3358
31919W        W48180   1.391  13.768  12.575  0.0332  0.1367  0.0398
31920W        W48181   4.052  15.425  13.622  0.1396 -0.1409  0.2465
31921W        W48182   0.486   4.454   1.483  0.1187  0.0480 -0.2303
31922W        W48183  14.849   6.865   2.731  0.0874  0.1830  0.2288
31923W        W48184   5.165  12.931   4.211  0.2558 -0.2380  0.0528
31924W        W48185   5.901   7.390   1.717  0.0140  0.3381 -0.1746
31925W        W48186   9.831   2.841   6.158  0.1741  0.0978 -0.0285
31926W        W48187  10.100   9.212   3.497 -0.1544 -0.1598  0.0597
31927W        W48188   2.120  12.772   3.450 -0.1263 -0.2356 -0.0387
31928W        W48189   4.073   2.083   4.359 -0.1347  0.1051 -0.1562
31929W        W48190  11.772   8.434   0.824 -0.0542 -0.4291  0.2024
31930W        W48191  13.351  16.793  16.075 -0.0930 -0.1286 -0.0591
31931W        W48192   8.273  12.369   4.395 -0.1996 -0.1810  0.1139
31932W        W48193   6.363  10.401  15.455  0.1788 -0.1865 -0.2135
31933W        W48194   3.631   4.896   2.400  0.0427  0.4478  0.0167
31934W        W48195   8.477  11.065   3.452 -0.1102  0.1288  0.0121
31935W        W48196   8.697   0.103  14.030 -0.1157  0.0918 -0.1281
31936W        W48197  15.820  16.871  14.914  0.2378 -0.2237 -0.0114
31937W        W48198  15.701  12.244   0.932  0.0037  0.0567  0.2725
31938W        W48199  10.901   4.763  16.555 -0.6625  0.1290 -0.3697
31939W        W48200   1.906  16.080   5.138  0.1793  0.3295 -0.2637
31940W        W48201   1.571   0.827  15.219  0.1620 -0.0958 -0.1320
31941W        W48202  13.367   7.973  12.324  0.1762 -0.0708 -0.0020
31942W        W48203  16.655  11.748  14.259 -0.1391  0.0381 -0.0787
31943W        W48204   9.892   1.889  13.461 -0.0512 -0.1501 -0.0188
31944W        W48205  11.553   7.231  11.294 -0.1906 -0.3229 -0.4877
31945W        W48206   0.260   1.609   6.119 -0.2425 -0.2072 -0.2166
31946W        W48207  13.967   2.046  14.647  0.1541  0.0223 -0.2985
31947W        W48208  10.085  13.140   1.416  0.3638  0.5650 -0.1764
31948W        W48209  11.485  17.371  16.261 -0.2109  0.0323  0.0121
31949W        W48210   7.753   1.025   4.249 -0.0508 -0.2274 -0.3772
31950W        W48211   2.097  12.918   5.302  0.0315  0.2963 -0.0946
31951W        W48212  12.550  13.077   4.836 -0.0844 -0.0361  0.1095
31952W        W48213   7.491   5.075   5.609  0.3166 -0.0180 -0.1343
31953W        W48214  11.193   6.898  12.519  0.1113  0.2035 -0.0258
31954W        W48215   8.562  13.477   1.516 -0.2547 -0.1647 -0.3018
31955W        W48216   3.974  11.932  13.978  0.3130  0.3323  0.0549
31956W        W48217   4.235   0.146   4.811 -0.2254 -0.1100 -0.0829
31957W        W48218   6.983   8.258   0.288 -0.3882 -0.2380 -0.2469
31958W        W48219  15.408  10.479   0.364  0.0159 -0.1044  0.1955
31959W        W48220   8.006   6.134   4.556  0.0301  0.1228  0.4005
31960W        W48221   6.443   7.056  12.218 -0.1225  0.1126  0.2215
31961W        W48222  10.262   0.533  12.069  0.3442  0.0169 -0.1804
31962W        W48223   0.498   6.150   5.020 -0.0470 -0.2162  0.1013
31963W        W48224   0.356   8.698   1.170  0.0303  0.1585 -0.3151
31964W        W48225   3.722   3.579  14.696 -0.0032 -0.0097  0.0145
31965W        W48226   6.183   1.604   6.251 -0.1052 -0.1155  0.1251
31966W        W48227   0.640  16.784   3.892  0.1467  0.1589  0.2058
31967W        W48228   3.248   6.808  14.671  0.0249  0.2744  0.0016
31968W        W48229   7.550  16.896  12.603  0.0463  0.1450 -0.1751
31969W        W48230  14.201  17.051  15.973  0.1144  0.1043 -0.2671
31970W        W48231  14.331   0.246   1.438  0.2167 -0.1022  0.1518
31971W        W48232  12.295   4.108  15.130  0.3614  0.3689 -0.0975
31972W        W48233   2.520  10.483  13.166  0.1062  0.2035 -0.2306
31973W        W48234   9.308  13.158  14.274  0.0028 -0.1075  0.3074
31974W        W48235   2.396  15.764  10.737 -0.3118 -0.0217  0.0885
31975W        W48236  12.130  12.658  11.981 -0.0854 -0.2941  0.0931
31976W        W48237   2.454  15.082   4.479  0.1856 -0.2591 -0.1448
31977W        W48238  13.527  11.538   2.821 -0.3342  0.2689 -0.1857
31978W        W48239  11.376   3.804   0.490  0.0091  0.1686 -0.2691
31979W        W48240   8.732   7.743  15.978  0.0047  0.0582  0.0116
31980W        W48241  14.478  16.285  16.736 -0.0493  0.0244 -0.2829
31981W        W48242  16.380   8.598   1.868 -0.0633 -0.0663  0.0440
31982W        W48243   9.461  11.206   5.481  0.0452 -0.2290  0.1692
31983W        W48244   1.045  10.440  14.724  0.1976 -0.3539 -0.0199
31984W        W48245   3.839   7.588  14.973  0.0861  0.1681 -0.0009
31985W        W48246  13.317   8.247   0.540 -0.2231 -0.1351 -0.0950
31986W        W48247   1.475   4.433   0.874  0.4086 -0.3872 -0.1690
31987W        W48248   7.580   3.356  16.629  0.1605 -0.0851 -0.0941
31988W        W48249  15.540   2.421  16.526 -0.1886  0.1643  0.2045
31989W        W48250  13.703  15.956   2.176  0.2156 -0.0577  0.1377
31990W        W48251   4.293  13.391   2.132  0.0842  0.0085 -0.2292
31991W        W48252  13.645  10.286  13.104 -0.1748  0.1923 -0.0964
31992W        W48253   2.492   0.029   1.330 -0.3156  0.1835  0.2664
31993W        W48254  15.245   0.718  16.940  0.1911 -0.2189  0.0513
31994W        W48255  17.235   2.866   0.570  0.0108 -0.3280  0.2609
31995W        W48256  13.120   5.643  14.151 -0.1173 -0.0606 -0.2220
31996W        W48257   6.091  13.588   5.611  0.0510 -0.0118  0.2211
31997W        W48258   4.026   1.117   4.522 -0.1558  0.1171 -0.2058
31998W        W48259  11.149  12.347  13.488  0.1590 -0.1100  0.0900
31999W        W48260  16.004   4.668   3.440  0.0189 -0.0978 -0.0116
32000W        W48261   5.550  15.991   6.450 -0.0922 -0.1867 -0.1361
32001W        W48262  11.453   9.390   2.888 -0.4017  0.0532 -0.1270
32002W        W48263   5.646   8.266   2.902  0.3162  0.1548 -0.1191
32003W        W48264  17.834  13.714  15.627  0.0537 -0.1562 -0.4565
32004W        W48265   9.973  15.644  12.252 -0.1339  0.0127 -0.2575
32005W        W48266   8.878   5.603  15.948  0.1052 -0.1871  0.0210
32006W        W48267   8.766   5.304   3.564 -0.2000  0.1862  0.1383
32007W        W48268  13.539   6.084  13.573  0.0569  0.1840 -0.1107
32008W        W48269  17.832  16.188  12.999 -0.0340  0.0390  0.3763
32009W        W48270  12.547  14.672  12.922 -0.0717 -0.1153 -0.2302
32010W        W48271  10.956  13.484   1.379 -0.0945  0.1500  0.1004
32011W        W48272  15.665   5.652  15.790  0.3555  0.1199 -0.0827
32012W        W48273  10.209  17.381  14.985  0.0933 -0.0173  0.0448
32013W        W48274  16.869   6.573  14.895  0.2142 -0.0471 -0.0394
32014W        W48275   7.463  15.275   6.253 -0.3220 -0.1539  0.0894
32015W        W48276  11.515   3.266   0.787 -0.1928 -0.0498 -0.2060
32016W        W48277  14.651   9.368  12.864  0.1036  0.0206 -0.0966
32017W        W48278   7.887   7.641  13.125  0.1010  0.1072 -0.1539
32018W        W48279  17.027   3.039   5.026  0.3139  0.1275 -0.1500
32019W        W48280   3.574   7.494   4.519 -0.0593  0.3195  0.3103
32020W        W48281  11.216   3.665  13.081  0.2159  0.0471  0.1355
32021W        W48282   6.129   2.623   0.324 -0.1234 -0.5235 -0.1340
32022W        W48283   7.586  11.332  14.907  0.0643 -0.1717 -0.2185
32023W        W48284   7.778   0.534   1.434 -0.3416 -0.0637  0.1064
32024W        W48285  17.548   9.053   4.823 -0.3829  0.0685  0.0128
32025W        W48286  17.397  15.018  16.184 -0.1987 -0.0965 -0.3897
32026W        W48287  12.943   0.693  16.805  0.0402 -0.0773 -0.0554
32027W        W48288   0.998  10.334   1.708  0.1326 -0.2062 -0.0140
32028W        W48289   0.743   8.482  13.995 -0.2283  0.2052  0.0753
32029W        W48290   0.281  13.318   3.679 -0.0100 -0.0306  0.1378
32030W        W48291   8.976   0.466   1.487 -0.0691 -0.1591  0.2425
32031W        W48292   2.857   9.364   2.358  0.0940 -0.2271  0.2685
32032W        W48293  10.056   2.472  12.225  0.1672 -0.0690  0.3518
32033W        W48294   7.068   3.341   2.124  0.3741  0.2402 -0.1334
32034W        W48295   5.284   6.204  16.574 -0.0677  0.0814  0.2033
32035W        W48296  10.756   5.068  11.590  0.2648  0.0711 -0.0424
32036W        W48297   5.586   0.433  15.540 -0.0795 -0.0705  0.1149
32037W        W48298   7.711  13.802   5.608  0.0706  0.0363  0.0129
32038W        W48299   9.359   6.556   4.230  0.0095 -0.0620 -0.0137
32039W        W48300   4.956   1.254   4.827 -0.1844  0.0248  0.2122
32040W        W48301  13.962  12.641  14.031 -0.2305  0.0328 -0.1723
32041W        W48302   0.159  13.350   3.187 -0.0800  0.0990  0.0757
32042W        W48303  11.933   7.972   1.024 -0.1880  0.1819 -0.0249
32043W        W48304   7.092   7.105   1.474 -0.1341 -0.2411  0.1640
32044W        W48305   0.122   3.218  15.156  0.1851 -0.0087  0.0226
32045W        W48306   3.046  16.902   4.994 -0.2070 -0.1606 -0.0034
32046W        W48307  17.717  17.172   2.386 -0.2215  0.0897  0.1757
32047W        W48308   5.962   9.903  16.865 -0.4345 -0.0770 -0.1674
32048W        W48309   8.280  16.955   2.841  0.1818 -0.0667 -0.1312
32049W        W48310   2.219  11.843  16.548  0.2222  0.0222 -0.2334
32050W        W48311   2.158  16.349   2.595 -0.1404 -0.0678  0.2887
32051W        W48312   0.798   6.988   0.176 -0.0213 -0.2036  0.1451
32052W        W48313  11.473  13.420  13.392  0.0919 -0.0705 -0.3569
32053W        W48314   5.536  15.252  13.579 -0.0781 -0.1853  0.1044
32054W        W48315  14.626  11.537   3.051 -0.1196 -0.1141  0.2726
32055W        W48316   0.556   4.915  16.813 -0.1866 -0.3033 -0.1179
32056W        W48317   5.824  15.778   6.123 -0.0970 -0.1359  0.0360
32057W        W48318  12.665  11.687  13.203  0.0861 -0.0943 -0.3433
32058W        W48319   7.157  16.008  15.545 -0.1393  0.0394 -0.1177
32059W        W48320   4.123  12.869   3.398  0.0246 -0.2214 -0.0134
32060W        W48321   1.603  12.364  14.169  0.1171  0.1295 -0.0035
32061W        W48322   3.076  13.278   2.486  0.0121  0.0714  0.3607
32062W        W48323   6.699   8.315   5.308 -0.0080  0.0320  0.0939
32063W        W48324   8.929  13.822   1.320 -0.0903 -0.2826 -0.1068
32064W        W48325   7.520   6.005   4.595  0.0036  0.3219  0.0917
32065W        W48326  10.582  14.833  12.085 -0.0200 -0.2255 -0.0073
32066W        W48327  11.876  13.471   5.677 -0.0022 -0.3302  0.0710
32067W        W48328   4.857   2.542   0.679 -0.0878  0.1846  0.0167
32068W        W48329   8.518   3.891   4.229  0.0163  0.0099  0.1045
32069W        W48330   8.722  12.001  13.019 -0.1391  0.0207  0.5179
32070W        W48331   7.663   8.960  13.126  0.0732  0.3928 -0.1940
32071W        W48332   9.968   0.131   2.629  0.1759 -0.1226  0.0552
32072W        W48333  14.236   2.619   0.583 -0.1541  0.0475 -0.1256
32073W        W48334   9.276  15.927  14.525  0.2189 -0.2616 -0.1756
32074W        W48335   0.834  12.870  13.142 -0.0633  0.1971  0.1883
32075W        W48336  15.065  17.241  15.476  0.0966  0.3304 -0.0851
32076W        W48337   0.117   4.062  16.276  0.3657 -0.0261 -0.1646
32077W        W48338   7.034  12.691   3.180 -0.2609  0.1933 -0.0221
32078W        W48339   8.278   1.425   4.921  0.0081 -0.1768 -0.1071
32079W        W48340   8.218   0.892   3.954 -0.0836  0.0596 -0.0569
32080W        W48341   4.492  13.632  12.902  0.5692 -0.0093  0.3487
32081W        W48342  12.918   6.875   4.428  0.1036  0.1977  0.0944
32082W        W48343  17.168   2.825   2.971  0.2536 -0.0025 -0.0907
32083W        W48344   6.632  11.321   5.305 -0.3237  0.0663 -0.1429
32084W        W48345   3.095   9.633  14.852  0.0428 -0.1549  0.2721
32085W        W48346  16.216  13.405   1.597 -0.0626 -0.1476  0.0776
32086W        W48347   4.288  17.762  14.552 -0.1203 -0.0286 -0.3079
32087W        W48348   0.844   2.089   2.645  0.2292  0.3362  0.0793
32088W        W48349   8.386   5.174   2.202  0.0368  0.1922  0.2209
32089W        W48350   4.724  16.754  16.639 -0.0218 -0.0323  0.1082
32090W        W48351   5.053   1.102   3.395  0.0522  0.0483  0.3138
32091W        W48352  17.192  10.634  12.921 -0.1342 -0.1708 -0.0412
32092W        W48353   2.652  13.436   0.099  0.1787  0.3308  0.1739
32093W        W48354  13.234   8.868  14.426 -0.0132  0.1916 -0.1378
32094W        W48355  13.994   4.246  12.365  0.2926  0.1692 -0.2475
32095W        W48356   4.093   4.852   2.750  0.2932 -0.0822 -0.4000
32096W        W48357  17.099   0.540   1.776  0.0798 -0.2760 -0.0788
32097W        W48358   6.704  10.493  14.417 -0.0810 -0.0370 -0.0454
32098W        W48359   1.500   9.829   1.357  0.0696  0.3511 -0.0624
32099W        W48360  10.694  13.870  14.530  0.2714  0.0989  0.1100
32100W        W48361   6.414   0.214  11.798 -0.3053 -0.0593  0.1867
32101W        W48362   6.981   1.585   1.012 -0.0431  0.2210  0.0257
32102W        W48363   0.623   3.484  13.166 -0.1037 -0.2390 -0.2660
32103W        W48364  10.071  15.010   4.204  0.0770 -0.0995  0.1166
32104W        W48365   0.166  11.404   3.382  0.0136  0.2431 -0.0379
32105W        W48366   9.353  17.830   2.510  0.0383 -0.2431 -0.1739
32106W        W48367  13.434   8.019   3.072 -0.2658 -0.0548  0.1726
32107W        W48368   7.991   6.518   3.679  0.1048  0.0937  0.0429
32108W        W48369   1.134  14.027   1.952 -0.0275 -0.0856 -0.0469
32109W        W48370   2.330   0.985  11.783 -0.0212  0.2909 -0.1134
32110W        W48371   1.880  15.575   0.089 -0.0054  0.3152  0.0971
32111W        W48372  11.912   2.252   2.719  0.0932  0.0213  0.1047
32112W        W48373   6.884  12.403   1.735 -0.0721  0.3196 -0.0575
32113W        W48374  13.686  16.643  14.257 -0.2430 -0.0255  0.1080
32114W        W48375  11.193  16.823  13.747 -0.1415  0.2101  0.3120
32115W        W48376   5.810   3.898  12.628  0.1176 -0.2154  0.2623
32116W        W48377   4.028   3.191   0.262 -0.0897  0.3364  0.0573
32117W        W48378   7.734   8.367  12.054 -0.4036  0.2092 -0.1356
32118W        W48379   9.875   0.277   4.792  0.0740  0.1919  0.1382
32119W        W48380  14.579   5.714   0.124 -0.1782 -0.3952  0.0007
32120W        W48381  11.085   9.238  15.106  0.0075  0.2646 -0.1318
32121W        W48382  12.955  17.045  12.958  0.0611  0.0782  0.1759
32122W        W48383   1.636   3.802   5.382 -0.2810  0.0937  0.0031
32123W        W48384   7.598   1.751   0.278  0.0590 -0.1710  0.2129
32124W        W48385   6.476  14.380   2.633  0.0791 -0.0999  0.2328
32125W        W48386   3.552   6.113   0.967 -0.2295  0.2840 -0.0147
32126W        W48387   3.034  10.333  12.935  0.1228  0.2982  0.1904
32127W        W48388   1.035   4.007  15.402  0.0655  0.0531 -0.1580
32128W        W48389   7.176   3.759   3.327  0.1766  0.1429  0.1305
32129W        W48390  11.964   9.422  11.654  0.0574 -0.1307 -0.0412
32130W        W48391   3.551   3.737   5.830 -0.1512 -0.0258 -0.1298
32131W        W48392   0.802  10.687   5.455 -0.1230  0.2144  0.1682
32132W        W48393   2.644   2.877  15.916  0.3086  0.0748 -0.3907
32133W        W48394  15.144  15.737   3.831  0.0670  0.1890  0.0017
32134W        W48395  17.440  15.295  14.516  0.3418 -0.1001  0.1959
32135W        W48396  15.978   5.622   2.424  0.2431 -0.2753 -0.0120
32136W        W48397  12.741   2.219   2.530  0.0432 -0.3086  0.1311
32137W        W48398  10.671  13.664   1.020 -0.0897 -0.2046  0.2697
32138W        W48399   3.676   3.963  12.422 -0.1160  0.1397 -0.3834
32139W        W48400   2.386   9.791   5.888  0.1000  0.1233 -0.2306
32140W        W48401   3.284   7.401  15.171  0.0469 -0.1332  0.1174
32141W        W48402   4.901  17.626   4.216  0.1999 -0.0298 -0.0376
32142W        W48403  10.780  14.989  12.515  0.1776  0.2021 -0.1311
32143W        W48404  16.657   7.409   4.043 -0.3391  0.2254 -0.0732
32144W        W48405  11.217  15.234   3.555  0.0372  0.2461  0.1679
32145W        W48406   1.379   8.201  12.297 -0.0121 -0.0896 -0.3062
32146W        W48407   1.081   3.890   5.287  0.3152 -0.3947 -0.1109
32147W        W48408  11.608   3.768  12.734  0.0896  0.0798 -0.2497
32148W        W48409  16.974  16.230   5.852  0.0294  0.0825  0.0314
32149W        W48410  15.886   0.312  15.737  0.3263 -0.0889  0.1217
32150W        W48411   9.767   7.231  12.541 -0.0587  0.2427 -0.0170
32151W        W48412  17.271  15.235   5.874  0.2449  0.3414  0.2084
32152W        W48413  15.860  16.931  16.818  0.1419 -0.0731  0.0509
32153W        W48414  11.518  17.305  12.224  0.0582 -0.1916  0.3372
32154W        W48415   5.088  11.068  15.243  0.2548 -0.2510  0.1995
32155W        W48416   1.532   1.537   5.430 -0.1140  0.1099  0.0697
32156W        W48417   4.203  13.636  12.156  0.1926 -0.2317  0.1508
32157W        W48418   3.637  15.991  14.217 -0.1785  0.4813  0.0261
32158W        W48419  14.147  12.978   5.864 -0.3403 -0.2363  0.1858
32159W        W48420  14.534   6.432   4.019 -0.0134  0.2659 -0.0914
32160W        W48421  12.484  16.839   1.608  0.1270 -0.1034  0.1492
32161W        W48422  14.038  13.877   1.277  0.2556 -0.1758 -0.0751
32162W        W48423  11.927  16.067   1.885  0.1493  0.3079 -0.1902
32163W        W48424  15.802   8.830   1.276  0.0235 -0.1057 -0.1769
32164W        W48425   0.731   7.458  14.762 -0.0531 -0.0572  0.0791
32165W        W48426   6.265   1.573   3.646 -0.0147  0.1142  0.0543
32166W        W48427  16.670   7.865  14.810 -0.1819  0.1929 -0.0688
32167W        W48428   2.954  16.660   4.514  0.2817  0.0189 -0.1487
32168W        W48429  13.292   3.575   1.035 -0.3598 -0.1164 -0.1917
32169W        W48430  13.010  10.577   1.769 -0.0369  0.0516  0.1282
32170W        W48431   5.625   3.049   1.456  0.1775  0.0680 -0.1964
32171W        W48432  12.415   3.648  14.923  0.0888  0.1581 -0.1604
32172W        W48433  12.280   3.827   0.769  0.0011  0.2680 -0.0286
32173W        W48434   0.827  10.484  10.922  0.1651 -0.0999 -0.0952
32174W        W48435  13.823  12.510  14.922 -0.0015  0.1587 -0.4353
32175W        W48436   9.289   7.680  12.597 -0.1520 -0.1276  0.1347
32176W        W48437   1.962   6.969   1.398 -0.1625  0.1006 -0.0713
32177W        W48438   9.942   7.452  14.254 -0.1084 -0.0580  0.0332
32178W        W48439   2.940   7.464   2.306  0.0210 -0.1133 -0.3122
32179W        W48440   0.317   7.951  16.699  0.2507 -0.1599 -0.0222
32180W        W48441  13.998   1.985  14.119 -0.3078  0.0498 -0.1205
32181W        W48442  12.333  11.424   3.222  0.0408  0.0731 -0.0466
32182W        W48443   8.778   2.192   5.039  0.2351 -0.2220  0.2103
32183W        W48444   8.594   8.202   5.294 -0.0588  0.0737  0.0877
32184W        W48445   9.991  10.377   5.937  0.2742 -0.2172  0.0597
32185W        W48446   8.218  11.660   2.666  0.2310  0.2113 -0.5355
32186W        W48447  16.993   9.164   3.446  0.0180  0.2526  0.0101
32187W        W48448  12.202   8.491   0.294  0.1194 -0.0923  0.0778
32188W        W48449  15.406   7.438   0.744  0.1793 -0.0705 -0.1226
32189W        W48450   1.802  15.171   5.662 -0.0870  0.0478  0.0749
32190W        W48451   1.777   1.643   4.968 -0.1556 -0.3324  0.0686
32191W        W48452   3.389   6.718   5.239 -0.0902 -0.1335 -0.0218
32192W        W48453   5.145  12.399  15.372 -0.0685  0.0549  0.1180
32193W        W48454   1.969  17.671   5.836  0.0599  0.1480  0.2888
32194W        W48455   2.209  12.435  13.516 -0.0762 -0.2592 -0.0458
32195W        W48456  16.990   1.637   3.291  0.2152 -0.0584 -0.0807
32196W        W48457   8.686   9.646   5.183  0.2702 -0.0372  0.1878
32197W        W48458   2.998   5.433   4.629 -0.0320 -0.3900 -0.1395
32198W        W48459   0.195  16.834   5.794 -0.0861 -0.2499 -0.1498
32199W        W48460   5.540   0.679  12.424 -0.4792 -0.0011 -0.2493
32200W        W48461  12.332   2.788  16.676  0.0912  0.1786 -0.3696
32201W        W48462  11.003   5.423  13.594  0.1417  0.0861  0.0587
32202W        W48463   3.602   6.442  14.710 -0.0514  0.0724 -0.0652
32203W        W48464   8.028  11.408   3.309 -0.2265 -0.1164  0.2489
32204W        W48465   3.743  13.803   4.920  0.0722  0.3391  0.0245
32205W        W48466   3.216   7.562   6.637  0.3781  0.1557 -0.1251
32206W        W48467   0.236   3.748   4.198  0.1789 -0.1925 -0.0139
32207W        W48468  10.176   6.545   0.259 -0.1202  0.0779 -0.2347
32208W        W48469   9.768   3.266  16.140 -0.0480 -0.0738 -0.1983
32209W        W48470  15.469   3.774  11.771  0.0682  0.1329  0.1432
32210W        W48471  13.377   2.730   3.602 -0.1527  0.2381  0.2572
32211W        W48472  10.990  10.112  16.667 -0.0309 -0.2296 -0.0198
32212W        W48473   1.467   8.110  13.325  0.0065  0.0555 -0.0320
32213W        W48474   3.876  15.271  11.898  0.2138  0.2585 -0.1406
32214W        W48475  13.170   9.564   5.050 -0.0277 -0.1965  0.0168
32215W        W48476  14.002  11.258   2.458  0.0827  0.2231  0.2236
32216W        W48477   3.109   9.793  12.954  0.0073  0.1561  0.0514
32217W        W48478   2.057  12.436   5.162  0.1986  0.0206 -0.1335
32218W        W48479   9.191  11.492   2.689 -0.1519 -0.1360 -0.0977
32219W        W48480  15.451   5.102  13.824  0.0670  0.3613  0.2616
32220W        W48481   6.360   9.097   3.821  0.2453  0.2660  0.3198
32221W        W48482  17.408   4.356  13.452  0.1530  0.0175 -0.0314
32222W        W48483   6.654   0.635   1.240 -0.0963 -0.0790  0.0950
32223W        W48484  15.213   3.856  15.461  0.1903 -0.3449  0.0501
32224W        W48485  10.445   1.484   5.133 -0.0026 -0.3540 -0.0478
32225W        W48486   7.852   3.548  12.152 -0.1692 -0.2320 -0.2050
32226W        W48487   6.706  16.703  12.565 -0.0392 -0.0985 -0.0451
32227W        W48488   6.869  15.299   4.868  0.0926 -0.1185  0.1532
32228W        W48489  17.198  13.680  16.835 -0.1739  0.0374  0.0121
32229W        W48490  14.003  11.736   3.636  0.1730  0.1926 -0.3659
32230W        W48491   5.040  17.356  12.510 -0.2472  0.1374  0.1724
32231W        W48492  13.385   1.954  11.878 -0.1257  0.1042 -0.1762
32232W        W48493   9.665  16.808   4.055 -0.0150  0.2915 -0.1985
32233W        W48494   5.376   2.611  12.197 -0.0640  0.1231  0.0661
32234W        W48495  15.988  14.058  13.515  0.0640  0.0953  0.0358
32235W        W48496  10.910  10.610  15.041  0.2106  0.3328 -0.1706
32236W        W48497  12.916  17.590  16.299 -0.0246 -0.2143  0.1615
32237W        W48498  14.328  13.060  12.225 -0.0040 -0.2132 -0.0890
32238W        W48499   7.223   6.423   4.645  0.1312 -0.0275 -0.1216
32239W        W48500  14.504  11.131  13.293  0.3224  0.4559 -0.1971
32240W        W48501  17.050  14.570   4.626  0.2279 -0.0088 -0.3658
32241W        W48502  12.224  11.202  16.609  0.2938 -0.0714 -0.0345
32242W        W48503   9.515   8.806   5.517 -0.1188 -0.1016  0.1217
32243W        W48504  16.620  15.392   5.377 -0.1965 -0.2154  0.0298
32244W        W48505   2.703   6.399   0.751  0.1182 -0.2258  0.0117
32245W        W48506  14.779  14.274  11.884 -0.0293  0.0293  0.0135
32246W        W48507   6.843   6.882  14.883 -0.1047  0.1010 -0.0218
32247W        W48508  11.541  12.625   4.415 -0.3497  0.1395 -0.1458
32248W        W48509  13.273  13.910   1.176 -0.1078 -0.2847  0.2006
32249W        W48510   0.527  10.884   2.549  0.1381  0.0739 -0.4691
32250W        W48511   5.086   3.850  14.602  0.0746  0.4091 -0.0448
32251W        W48512   0.310   2.857   5.435  0.1888 -0.0706  0.1098
32252W        W48513   3.985  13.755   1.995 -0.0188 -0.1489  0.3055
32253W        W48514   8.275   3.085   1.870 -0.0648  0.0550  0.3942
32254W        W48515   3.640  13.306   5.045 -0.2879  0.1313 -0.1842
32255W        W48516   2.206  12.357  15.432 -0.0543 -0.3345 -0.1565
32256W        W48517  13.042   6.111   4.902  0.0221 -0.1235 -0.0450
32257W        W48518   3.346   9.262   2.684 -0.0759  0.3482  0.1972
32258W        W48519   6.058   2.719   2.980 -0.0759 -0.0710 -0.0762
32259W        W48520  14.066   8.821  14.991  0.0026 -0.1149 -0.3242
32260W        W48521  11.598   1.482   0.456 -0.0668  0.1051 -0.2914
32261W        W48522  13.519   8.912   4.962  0.0643  0.0504 -0.0251
32262W        W48523   3.252   0.766  11.539 -0.1402  0.1639  0.4378
32263W        W48524  12.639   6.721   4.023 -0.1882  0.0392  0.0741
32264W        W48525  14.698   0.708   4.606  0.2037 -0.0319  0.1808
32265W        W48526   4.121   4.317   6.013  0.0142 -0.1260  0.3444
32266W        W48527   0.229  13.753   3.915  0.0227 -0.1163  0.3009
32267W        W48528   0.391   7.597  12.463  0.0176 -0.0745  0.0932
32268W        W48529  12.331   9.802  11.517 -0.0239  0.0885 -0.1664
32269W        W48530   4.958   6.339   1.851 -0.0402  0.1329 -0.3193
32270W        W48531   5.757  12.064  14.762  0.0462 -0.0954  0.1321
32271W        W48532   1.895  14.281   4.985  0.2117 -0.4005 -0.1336
32272W        W48533   7.242   7.183  12.830 -0.1486 -0.0396  0.1611
32273W        W48534  12.429  10.718   1.942  0.2941 -0.0618 -0.5561
32274W        W48535   7.060  16.091   3.218 -0.3257 -0.6495  0.1002
32275W        W48536  15.729   4.352   4.254  0.2085 -0.1582 -0.4175
32276W        W48537   0.157   0.977  16.793  0.0519 -0.1835  0.1206
32277W        W48538   5.002   8.351   2.258 -0.1744  0.0433  0.1085
32278W        W48539   2.186   8.075  14.096  0.0913  0.2290  0.1370
32279W        W48540   0.407   9.147   2.224 -0.1978  0.0156 -0.0293
32280W        W48541  11.652   4.811   1.643 -0.2317  0.0381  0.0484
32281W        W48542   6.615   6.948   2.108  0.1022 -0.0578 -0.0098
32282W        W48543  14.369   0.412   4.874  0.1155 -0.0742  0.0455
32283W        W48544  13.644   0.192   2.152  0.1563 -0.0706  0.0049
32284W        W48545  16.845   4.255   4.349 -0.0510  0.1318  0.2537
32285W        W48546   6.950   0.811   0.452  0.2135  0.1997 -0.0669
32286W        W48547  15.063   9.048   4.855 -0.3873  0.0359 -0.0636
32287W        W48548   5.422   7.191   1.602  0.1673  0.0854 -0.0159
32288W        W48549   6.869   1.099  13.856 -0.0456 -0.0366  0.0744
32289W        W48550   6.219   5.059  12.125 -0.0868  0.3713  0.0495
32290W        W48551  10.386   3.299   0.223 -0.0639  0.1798 -0.1957
32291W        W48552  17.431  17.833  12.595  0.0751  0.1612 -0.1701
32292W        W48553   5.946   0.622  12.028  0.0477  0.0740  0.2390
32293W        W48554   3.004  11.254   0.157 -0.3205  0.3870 -0.0102
32294W        W48555   5.435  15.128   3.878  0.1847  0.0344  0.0955
32295W        W48556  14.585  12.507   1.603  0.0890  0.0055 -0.1573
32296W        W48557  12.484  12.289   0.869  0.4663 -0.0377 -0.1091
32297W        W48558   4.896   0.577  16.178 -0.1967 -0.1505 -0.1366
32298W        W48559   4.965   7.494   3.380 -0.1366  0.0054 -0.1181
32299W        W48560   5.888   6.160  16.976 -0.0062  0.4299 -0.4207
32300W        W48561  14.690   8.221   4.355  0.0076  0.1226  0.2959
32301W        W48562   4.250   7.161   4.161  0.0142 -0.1944  0.0840
32302W        W48563   7.328  11.975   5.290  0.3184  0.0622 -0.0182
32303W        W48564   2.982  17.816   1.894  0.1070  0.1590 -0.1866
32304W        W48565  17.807   4.306   4.614  0.1716  0.1785  0.2030
32305W        W48566   5.733  17.633  12.807  0.0158  0.0306  0.4019
32306W        W48567   1.098   9.656  11.676  0.2627 -0.0511  0.0203
32307W        W48568   6.222   5.570   3.703  0.0301  0.3230  0.1344
32308W        W48569   3.632   5.717   5.794  0.2225 -0.0401  0.0292
32309W        W48570   1.392   3.265  14.345  0.1514  0.0647 -0.1153
32310W        W48571   5.591   7.037   0.159  0.1577 -0.2690  0.0198
32311W        W48572   9.127   3.565  14.274 -0.1026 -0.1786 -0.1588
32312W        W48573  10.627   0.540  14.513  0.3417 -0.0900  0.1306
32313W        W48574  16.972  15.438  11.880 -0.2841  0.0047 -0.3705
32314W        W48575   3.057   7.151   5.027  0.0806 -0.0169 -0.1299
32315W        W48576   3.928   2.146   6.206 -0.1593  0.0214 -0.0662
32316W        W48577  16.109   8.808   0.900  0.1401 -0.0008 -0.1619
32317W        W48578   9.213   8.910  11.491  0.0879  0.0826  0.1994
32318W        W48579   4.342   9.834   4.806  0.0192  0.2785 -0.0176
32319W        W48580   5.386   1.854  15.570  0.2177  0.0599 -0.1892
32320W        W48581   3.403   9.579  12.557  0.0633 -0.0680  0.0473
32321W        W48582   7.356  12.024   3.798 -0.1420 -0.0082  0.2827
32322W        W48583   0.664  13.227   2.033 -0.0499 -0.1525  0.2875
32323W        W48584  12.965   0.288  12.752  0.3781 -0.2634 -0.2670
32324W        W48585   1.963   4.338  12.299 -0.0306  0.1227 -0.2527
32325W        W48586  11.904   1.885  10.636 -0.0113 -0.1139 -0.0245
32326W        W48587  13.456  14.687  16.388  0.3097  0.0358 -0.0015
32327W        W48588   6.245  12.000   4.128 -0.0426  0.2014  0.0528
32328W        W48589   4.406   9.812   5.342  0.0970 -0.1534  0.2041
32329W        W48590  15.802  13.233   2.656  0.0571 -0.0090  0.3621
32330W        W48591   4.294   7.743   2.529  0.0106 -0.0289 -0.3687
32331W        W48592  15.104  11.233  14.735  0.1523  0.0786 -0.1770
32332W        W48593  10.083   4.723   3.459  0.1648  0.2181 -0.0523
32333W        W48594   2.793   0.995   1.348 -0.2198  0.2545  0.0094
32334W        W48595  13.367   7.226   1.207 -0.1909  0.0845  0.0042
32335W        W48596  15.088  14.870   0.005 -0.0656  0.0788  0.0727
32336W        W48597   4.587  11.009  15.418 -0.1209 -0.2934  0.0264
32337W        W48598   8.937  16.688  13.779  0.0420 -0.2843  0.0619
32338W        W48599  12.649   4.448   3.542  0.0389 -0.1011  0.2126
32339W        W48600   0.444  13.074  16.318  0.2268  0.0670  0.1007
32340W        W48601  17.504   2.145   3.390 -0.1446  0.0309  0.2229
32341W        W48602   1.835  16.638   2.808  0.3490 -0.0723 -0.2989
32342W        W48603  14.494  16.255   2.680 -0.0260  0.0923  0.2759
32343W        W48604   4.890  15.228   3.106 -0.1447  0.0026  0.0363
32344W        W48605   5.823  14.705   1.274 -0.2065 -0.0372  0.0481
32345W        W48606   5.174   1.861   3.203 -0.1232  0.0915  0.3029
32346W        W48607  14.530   1.280  11.837  0.1277 -0.0958  0.4113
32347W        W48608   4.039  17.504  12.632 -0.2207  0.2943 -0.3827
32348W        W48609   1.071  14.552  13.273  0.1320  0.1875 -0.0179
32349W        W48610   1.338   9.652   4.955  0.0564  0.1140 -0.3313
32350W        W48611   9.705   8.190   0.343  0.1300 -0.1141 -0.0325
32351W        W48612  14.863   4.944  16.047  0.0637  0.2153  0.0793
32352W        W48613   5.125   4.830   5.286 -0.2852 -0.0663  0.0786
32353W        W48614   2.815  15.516  15.313 -0.4141  0.0998 -0.1156
32354W        W48615   6.693   3.110  14.507 -0.0907  0.0069  0.2573
32355W        W48616   7.782  13.028  13.205 -0.0769  0.0146 -0.5439
32356W        W48617   9.426   6.138   0.915 -0.0892 -0.0641  0.3692
32357W        W48618   4.784   3.399   1.614  0.3023 -0.1304  0.0035
32358W        W48619  17.104  12.888  14.906 -0.0187  0.0381  0.0109
32359W        W48620   7.219  10.099  11.582 -0.0305  0.1080  0.0739
32360W        W48621   8.657   2.241  11.887  0.2265  0.2797 -0.0616
32361W        W48622  10.544   5.996   3.277 -0.2224  0.1773  0.0035
32362W        W48623  15.928   7.383  12.171  0.3728 -0.1693  0.0437
32363W        W48624   1.375   4.510  12.879  0.1442 -0.1249  0.3148
32364W        W48625   4.825  10.805  16.794 -0.4603  0.4055  0.2555
32365W        W48626  15.758   1.148   2.010 -0.0781 -0.1618 -0.1295
32366W        W48627   0.683  17.120   3.346 -0.1838  0.1882  0.2582
32367ION     NA48628   1.755   4.792  11.084 -0.0947 -0.1683  0.2386
32368ION     NA48629  14.161   2.203   6.091 -0.1344 -0.3520 -0.1195
32369ION     NA48630   5.763  17.682   5.733  0.3001 -0.5991  0.3512
32370ION     NA48631  10.716   4.880   1.370 -0.0801  0.1842  0.1428
32371ION     NA48632   4.588  12.578  11.137  0.1461  0.0896 -0.1127
32372ION     NA48633  15.060   3.684  10.788  0.0380  0.1559  0.0922
32373ION     NA48634   6.071  11.816  10.855  0.0939 -0.0839 -0.0591
32374ION     NA48635  10.151  15.239  11.134  0.0646 -0.0384  0.0424
32375ION     NA48636   8.341  12.233   3.926  0.0550  0.0662 -0.1785
32376ION     NA48637   0.048  14.529  10.649 -0.2514 -0.0472 -0.0129
32377ION     NA48638   2.159  12.658   6.079  0.0346  0.1290 -0.1201
32378ION     NA48639   4.956  10.931  10.892 -0.0100 -0.0414  0.1619
32379ION     NA48640  15.366   4.329  15.583 -0.0365  0.2235  0.0590
32380ION     NA48641  13.206   5.286  10.821  0.0108 -0.0886  0.2115
32381ION     NA48642   9.434   4.692   5.937 -0.0598 -0.0099 -0.1971
32382ION     NA48643  11.060   7.030   2.463 -0.1474 -0.0307 -0.0269
32383ION     NA48644  14.558   5.918  10.693 -0.0214  0.2022 -0.2897
32384ION     NA48645  12.931  15.905  14.887 -0.0583  0.3866 -0.1762
32385ION     NA48646  15.875  15.367  10.906  0.0233  0.3022  0.1450
32386ION     NA48647   9.185   0.140   3.553 -0.0395 -0.2200 -0.0638
32387ION     NA48648   7.890  16.272  10.800 -0.3081  0.4000 -0.0173
32388ION     NA48649  11.335  13.425  11.072 -0.2034 -0.2965  0.0907
32389ION     NA48650   8.864  14.833  15.022 -0.0929 -0.0466  0.0694
32390ION     NA48651  13.587  13.121   1.632  0.2721  0.0455  0.2109
32391ION     NA48652   9.251  11.013   4.139  0.1347  0.0901 -0.0287
32392ION     NA48653  15.206   2.296   4.653  0.1154 -0.0204  0.0999
32393ION     NA48654  11.395  10.168  10.605 -0.1565  0.0569 -0.1150
32394ION     NA48655   7.132  12.109  10.996  0.2942  0.1189  0.1501
32395ION     NA48656  13.301   8.546   3.047 -0.4531 -0.0853 -0.0316
32396ION     NA48657   1.706   4.212  15.758  0.0992  0.1209  0.0840
32397ION     NA48658  10.714  11.055   6.161 -0.1117 -0.1717 -0.1684
32398ION     NA48659  11.840  10.475  16.760 -0.2175 -0.0106  0.0658
32399ION     NA48660   8.934   1.071  11.156 -0.0009 -0.2386  0.0209
32400ION     NA48661   1.939  13.663  10.753 -0.1284  0.2069  0.1110
32401ION     NA48662   7.147   5.187   6.224  0.1252  0.2408  0.2285
32402ION     NA48663   4.231   1.767   6.393  0.0535 -0.2531 -0.1384
32403ION     NA48664  16.498   2.765   6.170  0.1309  0.2705 -0.1790
32404ION     NA48665  17.001  13.219  11.227  0.2431  0.1672 -0.0205
32405ION     NA48666   9.269  13.209   2.116 -0.0704 -0.0744 -0.0573
32406ION     NA48667  15.604   0.275  11.100 -0.1766  0.2037  0.0731
32407ION     NA48668   6.870  14.869   4.473 -0.1979 -0.4349  0.1960
32408ION     NA48669  16.654   3.653   4.328  0.0064 -0.3583 -0.2308
32409ION     NA48670  15.025  11.722  11.057  0.1201  0.1213 -0.2787
32410ION     NA48671   3.598  17.432  11.017 -0.0022 -0.1668  0.3899
32411ION     NA48672   0.489  11.170   6.336  0.1821 -0.3277  0.0202
32412ION     NA48673  16.963  15.533  13.839 -0.3078 -0.0176  0.0066
32413ION     NA48674  15.755  14.624   3.490 -0.1138 -0.1056 -0.1079
32414ION     NA48675  15.998   7.874   4.519  0.2526  0.1295 -0.1675
32415ION     NA48676   1.399  15.359  11.066  0.1988  0.1592 -0.0979
32416ION     NA48677   9.622   3.536   2.001  0.0165  0.0440 -0.0857
32417ION     NA48678   6.198  10.947  10.840 -0.0302 -0.1136  0.2479
32418ION     NA48679  16.701   5.376   4.956  0.4192 -0.1060  0.0858
32419ION     NA48680   0.994   4.261  11.022  0.0663 -0.2865 -0.0608
32420ION     NA48681   2.189   1.542  10.596 -0.1544 -0.0342 -0.1775
32421ION     NA48682   0.624  16.566  16.865  0.0523  0.0210 -0.0524
32422ION     NA48683   0.242   6.382   6.090  0.1879 -0.2845 -0.0183
32423ION     NA48684   7.050  17.599   6.216  0.1848 -0.2585  0.2932
32424ION     NA48685   7.106  16.617  10.748  0.3298 -0.0762  0.2040
32425ION     NA48686   1.700  17.169  10.872 -0.0803 -0.1470 -0.0131
32426ION     NA48687  15.048   8.171  11.290  0.0818  0.0973  0.1205
32427ION     NA48688   2.564   4.054  10.972 -0.0999  0.0489  0.4981
32428ION     NA48689   4.728  17.703   1.937  0.1327 -0.1127 -0.0585
32429ION     NA48690  11.381  14.382   6.458  0.1276 -0.2356 -0.1510
32430ION     NA48691  14.864  10.157   6.259 -0.0370  0.0396 -0.2791
32431ION     NA48692   7.423   0.524  12.724 -0.0709 -0.2456 -0.1610
32432ION     NA48693  14.726  12.973   1.122  0.0828  0.1980 -0.2013
32433ION     NA48694   9.496   4.830  11.203  0.0845  0.0915  0.2200
32434ION     NA48695   2.232   2.326  10.584 -0.1787 -0.1365  0.0790
32435ION     NA48696   6.852   6.351  10.684 -0.2032  0.1804  0.0641
32436ION     NA48697   1.924   1.899  11.509 -0.2189  0.1433  0.0854
32437ION     NA48698  14.122   0.204  15.763  0.2715 -0.1147  0.0630
32438ION     NA48699  14.507  11.583   3.634 -0.4629 -0.3269 -0.0378
32439ION     NA48700  16.315   5.765  10.725 -0.2347 -0.1262  0.2849
32440ION     NA48701   2.624  15.339  10.930  0.1167  0.0687 -0.1412
32441ION     NA48702   8.396  12.768   6.414 -0.1203  0.2520 -0.0677
32442ION     NA48703  16.636   6.409  11.204 -0.1100  0.1819  0.0526
32443ION     NA48704   1.810  10.696  15.669  0.0813 -0.1532  0.3066
32444ION     NA48705   8.877   9.516   3.720  0.1931 -0.0585  0.0635
32445ION     NA48706  13.461  10.361  10.556 -0.2118 -0.3428 -0.1784
32446ION     NA48707   8.326  14.757  10.917  0.0948 -0.0846  0.0931
32447ION     NA48708  16.694   8.751  15.000  0.2893  0.1988 -0.1404
32448ION     NA48709  12.378  10.416  10.542  0.0337 -0.1236  0.1356
32449ION     NA48710  11.890  13.649  11.057 -0.0443 -0.0916  0.0952
32450ION     NA48711  14.487   1.767   6.193  0.0020 -0.0242  0.0213
32451ION     NA48712   4.426   4.514  10.925  0.1978  0.1955  0.2151
32452ION     NA48713  13.901  14.393  11.958 -0.0088 -0.1577 -0.0414
32453ION     NA48714   4.171   0.744   4.175 -0.0667  0.0711 -0.3066
32454ION     NA48715   8.142   3.420  10.906 -0.1448 -0.1917  0.2843
32455ION     NA48716   2.099   0.135  10.785  0.0126 -0.0961 -0.1607
32456ION     NA48717   4.158   8.181  11.235 -0.0232 -0.3166  0.0809
32457ION     NA48718  12.341  17.127  10.736  0.0511 -0.0639  0.3429
32458ION     NA48719  10.112  12.189   6.563 -0.4096  0.0819  0.0860
32459ION     NA48720   3.110  17.335   5.814 -0.1299 -0.1845 -0.5038
32460ION     NA48721   0.091  10.302   6.443 -0.1945 -0.0200 -0.2581
32461ION     NA48722   2.507  17.585   1.773  0.1655 -0.4925  0.1198
32462ION     NA48723   5.467  14.241   6.450 -0.0723 -0.1172  0.0816
32463ION     NA48724   7.124   8.986  10.744  0.0274  0.2476  0.0300
32464ION     NA48725  17.782   9.063   6.472  0.1152 -0.4542 -0.1253
32465ION     NA48726   2.366   8.364   6.362  0.0646  0.0602  0.5636
32466ION     NA48727   9.527   3.986  10.923  0.0983 -0.1482 -0.1830
32467ION     NA48728   5.847   4.947  10.775 -0.2291 -0.1640  0.0633
32468ION     NA48729   1.526  12.094  10.957 -0.1299 -0.1968 -0.1538
32469ION     NA48730  15.169   6.066  11.807  0.1227  0.0317  0.2491
32470ION     NA48731   6.923   2.994   4.463  0.0710 -0.1213 -0.3967
32471ION     NA48732   6.537   8.840   1.047 -0.2322  0.1335  0.2604
32472ION     NA48733  13.155   6.874  10.605  0.0422  0.0229  0.3072
32473ION     NA48734   1.907   5.293  13.213  0.0617 -0.0576 -0.1730
32474ION     NA48735  17.835   4.068   5.914 -0.0236  0.1795  0.1999
32475ION     NA48736   4.367  15.588  10.819  0.1740  0.0778 -0.1472
32476ION     NA48737   4.871  11.840  11.004  0.0508  0.1923 -0.0721
32477ION     NA48738  17.260   0.011  11.034 -0.0036  0.0677 -0.0907
32478ION     NA48739  14.183   3.504   6.162  0.1800 -0.1331  0.0619
32479ION     NA48740   9.067   8.488  10.454 -0.0371 -0.1494 -0.2517
32480ION     NA48741   0.056   9.183  10.974  0.0086  0.2314 -0.0114
32481ION     NA48742  13.561  16.473   1.533 -0.2109 -0.0974  0.0388
32482ION     NA48743  12.610  16.359  10.932  0.3123 -0.0800 -0.0195
32483ION     NA48744  14.758   2.754   5.764 -0.0479  0.1259 -0.0673
32484ION     NA48745   1.079   3.884   4.051 -0.0776  0.1510 -0.0346
32485ION     NA48746   9.559   2.352  10.867  0.0757  0.1337 -0.3157
32486ION     NA48747  12.381   0.218   6.202 -0.0683 -0.0635  0.2062
32487ION     NA48748  10.147   3.402  15.307 -0.0806 -0.2925 -0.4065
32488ION     NA48749  15.713   4.911  10.892 -0.2587  0.0982 -0.0004
32489ION     NA48750   8.339   7.107  14.449 -0.0151  0.1306 -0.3980
32490ION     NA48751   0.891   6.440  11.085 -0.3459 -0.1627  0.3524
32491ION     NA48752  15.207   9.959  11.020  0.0364 -0.0112 -0.0281
32492ION     NA48753   7.337  10.035  10.592 -0.0691  0.4269 -0.0460
32493ION     NA48754   8.252  10.142  10.648  0.0054 -0.0809 -0.1938
32494ION     NA48755  17.404   0.764  10.844 -0.2558 -0.1928  0.0367
32495ION     NA48756  12.790  14.533   5.975 -0.1530  0.0285 -0.1297
32496ION     NA48757   4.815   5.941  10.790 -0.1533  0.0632 -0.0867
32497ION     NA48758  13.218  16.810   6.357 -0.1799 -0.0828  0.3457
32498ION     NA48759   6.644  17.616  11.045  0.2019 -0.3691  0.0282
32499ION     NA48760  16.527  17.376   6.356 -0.0635  0.2770  0.0547
32500ION     NA48761   3.604   1.215   0.947  0.2268 -0.0495 -0.2895
32501ION     NA48762  17.723  11.538  10.762  0.0311 -0.1275 -0.1909
32502ION     NA48763   5.486   2.863   4.859  0.0850  0.1348  0.0217
32503ION     NA48764  14.895   9.151  15.762 -0.1372 -0.1047  0.0065
32504ION     NA48765  12.741   8.276   6.017  0.0071  0.1185  0.2897
32505ION     NA48766  12.322  11.887   5.452 -0.2619 -0.1241  0.0081
32506ION     NA48767  15.120   1.381  10.478  0.0510  0.1606  0.0201
32507ION     NA48768  10.380   7.607  15.433 -0.3971  0.0714  0.0317
32508ION     NA48769  14.834  16.675  10.848 -0.3984 -0.0881 -0.0773
32509ION     NA48770   6.342   8.550  10.965  0.0171 -0.0894 -0.0023
32510ION     NA48771   7.052   4.511  11.399 -0.1779 -0.1454 -0.2264
32511ION     NA48772  16.353  13.994  16.546 -0.1586 -0.3045  0.0575
32512ION     NA48773   1.176   2.410   5.260  0.2885 -0.0987  0.0538
32513ION     NA48774   9.396  16.701  10.926 -0.1998  0.0139  0.0155
32514ION     NA48775   3.741   6.865  13.858  0.0377  0.3094 -0.1116
32515ION     NA48776  17.527   0.715   1.379  0.2295 -0.4118  0.0877
32516ION     NA48777   9.036  12.217  11.037  0.3738 -0.0569  0.0488
32517ION     NA48778  11.498   7.523  10.411  0.0661 -0.0634  0.1344
32518ION     NA48779   2.074   7.371  11.062 -0.1487 -0.1453  0.2342
32519ION     NA48780   1.028   5.848  12.955  0.1482  0.0962 -0.1660
32520ION     NA48781   5.783  17.733  10.981 -0.0122  0.1880  0.0750
32521ION     NA48782   0.307   2.393  10.614 -0.0486  0.0776 -0.1798
32522ION     NA48783  13.700  11.417   6.353  0.1411 -0.0454  0.1637
32523ION     NA48784  14.260  14.510  11.191 -0.0335  0.2062 -0.0358
32524ION     NA48785  17.618  14.962   1.988 -0.1470  0.1885  0.0062
32525ION     NA48786  10.479  14.748   6.357 -0.1641  0.0488 -0.2556
32526ION     NA48787  15.653  17.184  11.289  0.1999  0.5113  0.2275
32527ION     NA48788  16.226   4.983  10.793  0.0681  0.0910  0.0131
32528ION     NA48789   4.057  14.676   3.448  0.3240 -0.0953  0.2363
32529ION     NA48790   7.695  14.262   6.344 -0.1727  0.3983  0.1919
32530ION     NA48791   9.186   1.982  10.854  0.1601 -0.0656  0.1286
32531ION     NA48792   3.495   2.708  10.968 -0.5025 -0.1311 -0.0592
32532ION     NA48793   4.145   6.319   6.239 -0.0816 -0.3131 -0.1695
32533ION     NA48794   3.866  11.854  11.014  0.1946 -0.1804 -0.0707
32534ION     NA48795  15.943   3.980  10.836 -0.0365 -0.1949  0.2152
32535ION     NA48796  16.045   4.654   6.363 -0.4639 -0.0946 -0.3683
32536ION     NA48797  16.790   1.717  10.870 -0.0053 -0.0641  0.1371
32537ION     NA48798  10.861   7.741   6.190 -0.0338 -0.0059 -0.0644
32538ION     NA48799   4.652   7.801   6.525 -0.1653 -0.1594  0.1875
32539ION     NA48800  15.554  13.085   6.524 -0.0830 -0.2188  0.1287
32540ION     NA48801   0.534   5.704   6.373  0.0024 -0.1131  0.4786
32541ION     NA48802  10.158   5.798  10.578  0.0246  0.0282 -0.2382
32542ION     NA48803   8.012  11.923  10.874 -0.0018 -0.2393  0.0452
32543ION     NA48804  12.755   0.990   3.475  0.1005  0.3435  0.1181
32544ION     NA48805  10.322   4.288  16.744  0.0029 -0.0763 -0.0926
32545ION     NA48806   6.140   1.371  10.889 -0.0658  0.2735  0.3168
32546ION     NA48807  10.684  16.043  12.580 -0.1060 -0.2092  0.1348
32547ION     NA48808   4.800  11.192   1.224 -0.0198  0.0087 -0.0374
32548ION     NA48809   0.074  14.256  15.604  0.1618  0.0500  0.0800
32549ION     NA48810  17.674   8.019  10.976  0.0984  0.0127 -0.0545
32550ION     NA48811   0.308  15.915  11.249  0.1858 -0.0508 -0.1119
32551ION     NA48812   1.114   2.823  10.673 -0.0403 -0.1972  0.2222
32552ION     NA48813   4.944   8.429   3.672 -0.2651 -0.0243 -0.2036
32553ION     NA48814  10.340   5.151   2.234  0.0380 -0.0140 -0.0067
32554ION     NA48815   2.166   5.548  11.080  0.1938 -0.1381 -0.0696
32555ION     NA48816  12.007  14.719  11.128  0.0404 -0.0639 -0.1230
32556ION     NA48817  11.301   4.220   5.790 -0.0674 -0.0771 -0.0234
32557ION     NA48818  10.765  10.553   2.898 -0.1448  0.1974  0.2486
32558ION     NA48819   0.794  16.971  10.830 -0.1459  0.1945 -0.2676
32559ION     NA48820  13.090   9.354   0.034 -0.2106  0.1988 -0.1529
32560ION     NA48821  14.788  15.128  10.977 -0.3655 -0.0846  0.2523
32561ION     NA48822  15.382   0.462   6.186 -0.1039  0.0531 -0.0648
32562ION     NA48823  12.355   6.780   5.827 -0.1557  0.0477  0.1916
32563ION     NA48824   5.573   4.209  11.266  0.0870 -0.0264 -0.0564
32564ION     NA48825  16.342   8.964   6.408  0.0501  0.3516 -0.0193
32565ION     NA48826  13.804  12.829  11.042 -0.2370  0.3208 -0.0988
32566ION     NA48827   6.859   5.306  10.871  0.2813  0.4614 -0.5731
32567ION     NA48828   0.701  17.035   4.710 -0.0478 -0.1348  0.1981
32568ION     NA48829   1.199   1.360   4.320  0.0786 -0.2114  0.0693
32569ION     NA48830  11.010  10.812  10.577 -0.0642 -0.0033 -0.1612
32570ION     NA48831   2.818  11.787  11.106 -0.1888 -0.1802  0.0490
32571ION     NA48832  13.024  13.108  11.217  0.2354 -0.0132 -0.1075
32572ION     NA48833   5.490   1.750  13.051 -0.1822 -0.4814  0.0387
32573ION     NA48834   9.843   3.146  10.793  0.1148 -0.5128 -0.0850
32574ION     NA48835   3.255   5.381  11.054  0.1133  0.0171  0.0541
32575ION     NA48836   4.618   3.257   6.114 -0.0040  0.1857 -0.1225
32576ION     NA48837   2.339   9.794  15.385 -0.0153 -0.0441 -0.1129
32577ION     NA48838   2.863   3.050  10.725  0.3702  0.0726  0.0667
32578ION     NA48839  14.843  10.913   5.720  0.0114  0.0877  0.1626
32579ION     NA48840   7.609  14.400  10.643 -0.0535 -0.2331 -0.1445
32580ION     NA48841   0.687  11.624  10.707  0.0962  0.0471  0.0813
32581ION     NA48842   7.847   4.260  10.950  0.0832 -0.1389  0.0057
32582ION     NA48843  12.635  15.357  16.453 -0.2503  0.1313 -0.2599
32583ION     NA48844   4.013  14.841  13.714  0.0812  0.0122 -0.3401
32584ION     NA48845  14.896   5.157  10.835 -0.3037 -0.1770  0.0821
32585ION     NA48846  16.343   4.916  16.741 -0.0451  0.1213 -0.0972
32586ION     NA48847   7.867  13.436  10.810 -0.1648 -0.3273  0.0059
32587ION     NA48848   6.110   4.246   6.337 -0.2719  0.1775  0.0580
32588ION     NA48849   9.352   2.417   6.349  0.2375 -0.2103  0.3527
32589ION     NA48850  10.958  17.164  10.850 -0.0976 -0.0357  0.0230
32590ION     NA48851  16.779   8.276   5.806  0.0045  0.1943  0.2010
32591ION     NA48852  17.231  10.740  10.853  0.1999  0.3531  0.1601
32592ION     NA48853  15.498   5.778  10.879  0.3024  0.0951  0.1877
32593ION     NA48854  11.717   7.628  16.127  0.0963  0.3125 -0.2103
32594ION     NA48855  15.079   1.879  10.752 -0.1573  0.0035 -0.2185
32595ION     NA48856  12.806   3.175  10.694  0.1392 -0.0631 -0.1423
32596ION     NA48857  10.677   5.131  10.569 -0.4010  0.1315 -0.0910
32597ION     NA48858   4.973   1.842  15.312  0.1757 -0.0205 -0.3263
32598ION     NA48859  11.392   4.431  10.594 -0.1017  0.4652  0.1500
32599ION     NA48860   2.540  16.278  10.980  0.3597 -0.0403  0.0040
32600ION     NA48861  14.363  12.408  11.134  0.3595 -0.0216 -0.3314
32601ION     NA48862  15.352  17.608   6.122 -0.0255  0.0639 -0.1714
32602ION     NA48863  14.998  12.158   3.181  0.0725  0.2872  0.6205
32603ION     NA48864  13.249   1.644   5.950  0.2439 -0.0160 -0.3240
32604ION     NA48865   2.249   9.376  11.388  0.0354 -0.0513 -0.3236
32605ION     NA48866   6.171   3.014  10.875 -0.0266  0.1372  0.0578
32606ION     NA48867   5.818  14.979   5.795  0.2761  0.0738  0.1415
32607ION     NA48868  16.246   9.846  10.927  0.1233  0.1220 -0.2696
32608ION     NA48869   7.168  13.620  10.884  0.1657 -0.2470  0.1770
32609ION     NA48870   6.643  13.637   2.694 -0.2659  0.3457 -0.2022
32610ION     NA48871   1.104   0.044  10.818 -0.1793 -0.2298 -0.0366
32611ION     NA48872  14.412   7.090   5.738 -0.2852  0.1370 -0.1280
32612ION     NA48873  14.034   3.855  10.837 -0.0630 -0.1015 -0.2233
32613ION     NA48874  15.783  12.020  11.009 -0.1784  0.1834  0.0068
32614ION     NA48875  10.368   8.936  10.387  0.1233  0.1257  0.2311
32615ION     NA48876  11.722  16.568  10.985  0.1656 -0.3151 -0.2394
32616ION     NA48877   5.060  10.734  11.521  0.0986 -0.0281  0.1095
32617ION     NA48878   7.131  11.832   6.109  0.1120  0.2704  0.0945
32618ION     NA48879   8.248   8.291   0.115  0.3536 -0.0479 -0.0222
32619ION     NA48880   1.726  13.138   5.539 -0.3954  0.0267  0.1028
32620ION     NA48881   1.908  12.496  11.284 -0.0256 -0.1278 -0.0524
32621ION     NA48882  13.432   4.152   3.419  0.1625 -0.2959 -0.1456
32622ION     NA48883  13.864   2.839  11.023  0.2649  0.1191 -0.3306
32623ION     NA48884   2.584   9.822  11.442  0.1398 -0.0319 -0.0184
32624ION     NA48885   9.300  12.822  12.552  0.1524 -0.1559 -0.1635
32625ION     NA48886   0.054  10.038  11.132 -0.2347  0.2450  0.0660
32626ION     NA48887   9.451   5.066  12.826 -0.0152  0.1728 -0.1487
32627ION     NA48888  12.617   9.726  14.494  0.0412 -0.2332  0.0230
32628ION     NA48889  17.509  12.491  11.048 -0.0130 -0.2585  0.1387
32629ION     NA48890   7.850  11.092   5.876  0.1078 -0.1065 -0.0052
32630ION     NA48891  11.856  13.435  15.055 -0.1218  0.1086 -0.0703
32631ION     NA48892   2.509   6.118   6.351  0.2858 -0.0096 -0.0474
32632ION     NA48893  17.264  15.160  13.108  0.1512  0.0916 -0.3911
32633ION     NA48894   1.033  16.426   0.703  0.1107  0.0304  0.0123
32634ION     NA48895  17.599  16.936  13.715 -0.2678 -0.4526 -0.1641
32635ION     NA48896  13.293  17.324  10.943  0.2346 -0.0585  0.0259
32636ION     NA48897   0.084  14.214   5.667 -0.3806 -0.0472 -0.3969
32637ION     NA48898  15.748  13.304   1.826  0.0234  0.0604  0.2427
32638ION     NA48899  13.314   7.707   1.414  0.1977  0.1301 -0.1058
32639ION     NA48900  14.965   5.841  13.245 -0.2796  0.1822 -0.1426
32640ION     NA48901   1.391   6.012   6.185 -0.2958  0.2423  0.1722
32641ION     NA48902   6.568   6.879  16.425 -0.0649  0.0818  0.0226
32642ION     NA48903   9.375  14.676  11.343  0.2428  0.3211 -0.0041
32643ION     NA48904   6.913   3.487  10.804  0.0354  0.1326 -0.0200
32644ION     NA48905  10.933   1.543   5.953  0.0553 -0.0411 -0.2806
32645ION     NA48906  11.834   0.087   6.248 -0.0239  0.0060  0.2324
32646ION     NA48907  10.915   8.807   6.492 -0.1987 -0.0055 -0.0249
32647ION     NA48908  12.226   7.607   5.832  0.0133 -0.0941  0.1047
32648ION     NA48909  11.240  15.294  11.093  0.1903  0.0078 -0.1211
32649ION     NA48910  13.550  16.231  10.853  0.1414 -0.0162  0.0651
32650ION     NA48911  14.227  15.523   3.214 -0.1195  0.1080  0.0633
32651ION     NA48912  16.859  11.487   0.013  0.2666 -0.0328  0.1260
32652ION     NA48913  12.010   1.795   6.096 -0.3554 -0.1187  0.0226
32653ION     NA48914  13.633   4.589  10.767  0.0115 -0.2138  0.0546
32654ION     NA48915   6.505  12.753   0.966  0.0558 -0.1017  0.2780
32655ION     NA48916   4.331  14.800   1.357  0.2305 -0.0387 -0.3350
32656ION     NA48917  10.897  13.703  11.158  0.1289 -0.0052 -0.1949
32657ION     NA48918  15.865   2.164  10.912  0.2575 -0.1059  0.4521
32658ION     NA48919  12.507   0.173  10.733  0.2062 -0.1984 -0.0908
32659ION     NA48920   7.839   5.179  10.782 -0.2835  0.1522  0.1690
32660ION     NA48921   6.062   5.842   5.043  0.0058 -0.1759 -0.1871
32661ION     NA48922   9.616  10.628  10.797 -0.1976  0.1109 -0.1038
32662ION     NA48923  13.703   4.971  12.270 -0.1128  0.2573  0.1154
32663ION     NA48924  12.747   4.584  10.567 -0.2082 -0.0365  0.2737
32664ION     NA48925  15.340   4.761   6.177 -0.1785 -0.1325  0.1547
32665ION     NA48926  17.503   4.891  11.094  0.2039  0.2382  0.0038
32666ION     NA48927   3.348   9.297   6.239  0.0052  0.0617  0.1012
32667ION     NA48928  12.145  11.021   6.377 -0.1672 -0.0815  0.2849
32668ION     NA48929   3.966   3.122   3.387  0.0616 -0.3110 -0.2304
32669ION     NA48930   0.685  15.171  10.643 -0.1545  0.0036 -0.0789
32670ION     NA48931   8.566   9.167  10.609  0.1400  0.0385  0.0257
32671ION     NA48932  10.055   3.593  10.949  0.1075  0.1543  0.1968
32672ION     NA48933   2.998   0.429   5.121  0.2503  0.2068  0.4124
32673ION     NA48934  13.744  12.704   5.854  0.1534  0.0002  0.0365
32674ION     NA48935  11.008   5.993  10.503 -0.2226  0.1198 -0.1374
32675ION     NA48936  14.634   6.412  10.641  0.1614 -0.0704  0.0995
32676ION     NA48937   6.181   5.690   4.249  0.0035 -0.2960  0.0280
32677ION     NA48938  15.456   6.616  10.798 -0.4092  0.1011 -0.1372
32678ION     NA48939  17.132  12.486   5.902  0.2041 -0.1739 -0.0607
32679ION     NA48940   4.459  17.660  10.801  0.0402  0.2148 -0.0816
32680ION     NA48941  13.496  14.695  11.061  0.0843  0.1446  0.3547
32681ION     NA48942   3.362   7.780  15.553  0.0156 -0.2114  0.0142
32682ION     NA48943  12.135  17.015   6.318  0.2375  0.1461 -0.1937
32683ION     NA48944  12.114  12.004  11.112  0.0984  0.2055 -0.3410
32684ION     NA48945  10.563   4.721  15.319 -0.0532  0.2697  0.0755
32685ION     NA48946  15.626   5.911  16.693 -0.1807  0.0455  0.0772
32686ION     NA48947  13.298   9.068   6.304  0.0816 -0.2148 -0.1665
32687ION     NA48948   2.789  11.619   1.091  0.1068 -0.1831  0.3441
32688ION     NA48949  17.184   5.949  10.820 -0.1101  0.3793  0.1717
32689ION     NA48950   9.031   3.404  10.794 -0.0947 -0.0780 -0.0909
32690ION     NA48951  16.564  17.544  14.664 -0.0373  0.3345 -0.3397
32691ION     NA48952  17.165   4.203  15.822  0.1267  0.0038 -0.0681
32692ION     NA48953  14.910   7.255   1.554 -0.3031  0.1250 -0.0335
32693ION     NA48954   6.942  10.409   5.812  0.0917  0.1048  0.1357
32694ION     NA48955  16.699  14.651   5.985 -0.1529 -0.0150  0.1459
32695ION     NA48956   8.537   6.736  16.908 -0.0442  0.2022  0.4051
32696ION     NA48957  17.335   8.433   1.472  0.0742  0.3611 -0.0051
32697ION     NA48958   4.983  12.435   6.324 -0.1415 -0.0439  0.1132
32698ION     NA48959  13.988  15.489  11.037  0.1066 -0.0568 -0.0869
32699ION     NA48960  17.293   7.158  11.029 -0.2278 -0.0141  0.1290
32700ION     NA48961   2.177  14.836  14.072 -0.2110  0.0800 -0.1309
32701ION     NA48962  15.136   2.412   0.855 -0.3748 -0.0948 -0.0127
32702ION     NA48963   2.658   4.862  10.822 -0.1309 -0.0840 -0.0717
32703ION     NA48964   5.797   7.945   0.900  0.1393  0.0145 -0.3519
32704ION     NA48965   9.565  13.350   6.729  0.1691 -0.0629  0.3164
32705ION     NA48966  14.277   2.357  14.375  0.0096  0.3572  0.2223
32706ION     NA48967  15.084  14.262  11.130  0.0464  0.1229 -0.0514
32707ION     NA48968  14.253   8.596  10.902  0.0958 -0.1361 -0.0080
32708ION     NA48969   3.528  15.906  10.849  0.1836  0.1061  0.0191
32709ION     NA48970  15.951  10.876   5.723 -0.1084  0.1347  0.1630
32710ION     NA48971   2.692  14.333  16.973 -0.1555  0.1203 -0.2219
32711ION     NA48972   1.923   2.226  16.370 -0.1866 -0.2535 -0.0607
32712ION     NA48973   7.462   0.145  10.932  0.1653 -0.4525  0.0074
32713ION     NA48974   1.399   7.172  11.132 -0.1594 -0.0366 -0.0563
32714ION     NA48975   5.685   4.976  14.298 -0.2152  0.3279  0.1228
32715ION     NA48976  11.387   1.345  11.001 -0.2417 -0.1375  0.2208
32716ION     NA48977   8.442   0.353  11.161  0.0851 -0.2749 -0.0721
32717ION     NA48978   3.242  12.482  11.127 -0.1582 -0.0467  0.0391
32718ION     NA48979   7.096   1.908  14.745  0.0409 -0.1498  0.3811
32719ION     NA48980  10.506   2.712  10.826  0.0252  0.3985  0.0714
32720ION     NA48981   5.587   5.910   6.234 -0.0486 -0.0177 -0.3410
32721ION     NA48982  17.294   2.539  10.771  0.0982 -0.1556  0.2051
32722ION     NA48983  16.722   7.368   5.916  0.2102  0.1606  0.0777
32723ION     NA48984   9.717  16.750   6.387 -0.2483 -0.0557 -0.0734
32724ION     NA48985  13.337   6.508   5.833 -0.2357 -0.3602 -0.1741
32725ION     NA48986   6.314   1.074  11.972 -0.4028  0.0471 -0.0058
32726ION     NA48987   9.389   7.049   1.688 -0.2947  0.1117 -0.3543
32727ION     NA48988   9.605   2.499  12.408  0.1294 -0.2769  0.1441
32728ION     NA48989  12.457  15.074   3.717 -0.2606 -0.1428  0.2139
32729ION     NA48990   3.240   8.205   1.699  0.1139 -0.0455 -0.3543
32730ION     NA48991   8.565  17.248   1.148 -0.3277  0.1808  0.1803
32731ION     NA48992   6.504  12.951  11.160  0.0874  0.1138 -0.1291
32732ION     NA48993   4.715   7.380  10.964  0.1984  0.1352 -0.0683
32733ION     NA48994   4.630   8.281   4.895  0.1505 -0.1627 -0.2219
32734ION     NA48995  14.437  16.910  11.059  0.1804 -0.0207 -0.0611
32735ION     NA48996  13.751  13.811  11.173  0.4200 -0.1821 -0.0886
32736ION     NA48997  13.298   3.424  14.610  0.1497 -0.0069  0.1507
32737ION     NA48998  16.882   0.901  10.768  0.1014 -0.0470 -0.5615
32738ION     NA48999   7.386   8.411  15.085 -0.0179  0.0063 -0.0581
32739ION     NA49000  13.910   5.350  10.595 -0.0134  0.0607  0.1511
32740ION     NA49001  15.667  14.170   1.593  0.0938  0.0199  0.3364
32741ION     NA49002   2.291   1.642  15.358 -0.1757 -0.1403  0.1413
32742ION     NA49003   7.918   4.192   3.462  0.1299 -0.1033  0.1951
32743ION     NA49004   1.434   1.324   0.244 -0.0096  0.3391 -0.1387
32744ION     NA49005   0.819   9.630  11.133 -0.0467 -0.0096 -0.0787
32745ION     NA49006   9.349   6.392   5.762 -0.0759  0.2985 -0.1045
32746ION     NA49007   2.035   8.919   0.670  0.1008 -0.0185 -0.0556
32747ION     NA49008   6.246   5.786  10.802  0.0836 -0.0866 -0.1644
32748ION     NA49009  16.432  13.060   6.546 -0.0785  0.0859 -0.1234
32749ION     NA49010  14.204   1.195  10.711 -0.1884 -0.3865  0.2583
32750ION     NA49011   2.376   8.297  11.368  0.0525  0.1513 -0.1038
32751ION     NA49012   6.516  17.806  16.017  0.3962 -0.0013 -0.1411
32752ION     NA49013   5.634  16.118  11.153 -0.0215  0.0201  0.4462
32753ION     NA49014  15.449  10.075   6.077 -0.0264  0.1458  0.0984
32754ION     NA49015  16.943  14.255  10.850 -0.0614 -0.0905 -0.2864
32755ION     NA49016  16.779  16.111   6.275 -0.0484 -0.1228 -0.2509
32756ION     NA49017   5.914  15.268  11.083 -0.1558 -0.1152  0.1936
32757ION     NA49018   7.894  17.545  11.564  0.0881 -0.0771 -0.0555
32758ION     NA49019   7.915   1.866   3.336  0.0158 -0.0639  0.2721
32759ION     NA49020   5.651  11.835   2.191  0.1070 -0.0451 -0.0644
32760ION     NA49021   2.501   8.002  10.957 -0.2069  0.1445 -0.3753
32761ION     NA49022   4.164   3.265  11.785  0.2399  0.0224 -0.3612
32762ION     NA49023   7.665   8.662   5.874  0.0588  0.2333 -0.0735
32763ION     NA49024   2.761   0.898  10.789  0.0425  0.3244 -0.0270
32764ION     NA49025   7.882  10.881  10.740 -0.1886 -0.0710 -0.0628
32765ION     NA49026  16.998   1.756  11.325  0.0268  0.0309  0.0204
32766ION     NA49027   0.696  17.658  11.903 -0.0010  0.1378  0.3704
32767ION     NA49028   8.848  15.031   1.063  0.2407 -0.5093 -0.2448
32768ION     NA49029   7.336   3.315  11.029  0.0197 -0.1720 -0.0340
32769ION     NA49030   4.978   5.229  10.853  0.0490 -0.2040 -0.1041
32770ION     NA49031   0.278   3.974  11.207  0.3660 -0.2307 -0.3720
32771ION     NA49032   5.212  15.513   4.832 -0.0409  0.1830 -0.4757
32772ION     NA49033   3.838   1.829   3.974  0.0246 -0.1137  0.0951
32773ION     NA49034  14.577   4.772  11.017  0.0255 -0.0188  0.0426
32774ION     NA49035  13.403   0.759  14.116  0.2305 -0.0209  0.0602
32775ION     NA49036   3.426   7.044  11.041  0.0750  0.1457 -0.4820
32776ION     NA49037   0.407   3.201  10.834 -0.0339  0.0087  0.1293
32777ION     NA49038   8.312   6.921  10.740  0.0885  0.3151 -0.2452
32778ION     NA49039  12.713  11.313  10.870 -0.0320  0.0112 -0.2701
32779ION     NA49040   5.620   8.127   1.964  0.1145 -0.2339  0.0952
32780ION     NA49041  17.317  12.432   1.682  0.0372 -0.1279 -0.1174
32781ION     NA49042  12.629   2.236  16.906  0.4786  0.0801 -0.0374
32782ION     NA49043   3.797  17.320   6.187  0.1071 -0.1006  0.0684
32783ION     NA49044   4.840   4.318  14.592  0.1829  0.1388  0.1693
32784ION     NA49045  11.506  17.372  10.749 -0.0697  0.1303 -0.2390
32785ION     NA49046  11.552  12.777  11.229 -0.1713  0.0857 -0.1610
32786ION     NA49047   2.151  15.337   0.425 -0.0437 -0.2107  0.1266
32787ION     NA49048   3.458   8.349   6.457 -0.3013  0.2118 -0.2137
32788ION     NA49049   3.423   4.469  10.789 -0.3923 -0.1046  0.2369
32789ION     NA49050  14.815  14.968   6.089  0.1812  0.1252  0.2541
32790ION     NA49051  12.641  16.646  11.777 -0.0349 -0.0600 -0.2054
32791ION     NA49052   5.376   0.451   6.102 -0.1961 -0.0301  0.0079
32792ION     NA49053   0.728   3.399   6.194  0.2646  0.4832  0.1969
32793ION     NA49054   7.390  12.638  11.039  0.2856 -0.2064 -0.0754
32794ION     NA49055  13.082   6.019  13.117 -0.0572  0.4450  0.0179
32795ION     NA49056  16.485  10.334  10.948 -0.0312 -0.0216 -0.0375
32796ION     NA49057  15.728   3.084  10.992  0.2301 -0.1886  0.0879
32797ION     NA49058   0.544  17.656   4.099 -0.2210  0.0140 -0.2476
32798ION     NA49059  17.503  13.262   3.199  0.1121 -0.0334 -0.3167
32799ION     NA49060   4.140   5.476  11.075  0.0580  0.2328  0.0005
32800ION     NA49061  17.273  16.128  11.106  0.0552 -0.1470 -0.0409
32801ION     NA49062   4.350  17.026  10.930  0.0822 -0.0041  0.0203
32802ION     NA49063  16.777   1.113   5.813 -0.1457 -0.2057 -0.1464
32803ION     NA49064   4.432   9.853  16.980 -0.1503 -0.0061 -0.1509
32804ION     NA49065  12.206   5.986   1.920  0.3021 -0.0232 -0.0183
32805ION     NA49066  16.092  16.534  15.358 -0.1054  0.0994  0.1669
32806ION     NA49067   0.863  13.955   6.050 -0.3234  0.2616  0.0972
32807ION     NA49068   8.723  16.005  11.014  0.0255 -0.0796  0.0769
32808ION     NA49069   2.787   0.362  10.743 -0.0716  0.1529 -0.0648
32809ION     NA49070   5.494  13.103  10.880 -0.2509 -0.0423  0.1146
32810ION     NA49071   7.350  14.845  10.803 -0.1023  0.2028 -0.1607
32811ION     NA49072   3.151   4.174  14.995  0.0990 -0.0335  0.1500
32812ION     NA49073   0.208  12.284   3.286  0.2606  0.0104 -0.2234
32813ION     NA49074   6.302  12.511  11.237  0.1937 -0.0139 -0.2236
32814ION     NA49075  17.191  10.981  13.568 -0.0764  0.3344  0.1482
32815ION     NA49076   8.815  13.162  10.898 -0.1950 -0.1710  0.2116
32816ION     NA49077  10.810  12.423   3.707 -0.0800 -0.0297  0.1908
32817ION     NA49078  16.155  13.752  11.143  0.1133 -0.1219 -0.0970
32818ION     NA49079   6.412  15.943  10.877  0.1187 -0.0864 -0.2632
32819ION     NA49080   0.385   6.737   4.324  0.1752  0.1362 -0.0623
32820ION     NA49081  10.648   4.734   5.618 -0.0445 -0.1327 -0.0073
32821ION     NA49082   0.884   5.828  11.047 -0.3278 -0.2241  0.1924
32822ION     NA49083   1.018   6.370   0.754 -0.0427  0.1033 -0.0427
32823ION     NA49084   8.641  16.032   5.863 -0.1698 -0.2452 -0.3467
32824ION     NA49085  11.358  15.343   3.030 -0.3645 -0.1344  0.1220
32825ION     NA49086  15.825  12.961  11.342 -0.2923  0.1505  0.0116
32826ION     NA49087   1.833   2.332   5.881 -0.1824  0.1534  0.1248
32827ION     NA49088   8.757  11.420  10.955 -0.1080 -0.1442  0.0719
32828ION     NA49089   2.240   9.750   4.156  0.1205  0.2396  0.0787
32829ION     NA49090   6.736   1.460   6.219 -0.1393 -0.2699 -0.0572
32830ION     NA49091   9.323   3.657   1.279  0.0464  0.1783 -0.0677
32831ION     NA49092  14.019   5.586  13.721  0.1348  0.1770 -0.0163
32832ION     NA49093  14.031  10.931  10.837  0.1277 -0.1438  0.0159
32833ION     NA49094   7.400   2.395  11.016  0.2412 -0.2377 -0.0852
32834ION     NA49095   3.970   9.321   4.048  0.0831 -0.1014  0.0280
32835ION     NA49096   0.170  17.607  10.905  0.0856  0.0810 -0.0353
32836ION     NA49097   0.589  10.913  11.184  0.1490 -0.1779  0.1136
32837ION     NA49098  16.956  16.418   2.946  0.1282 -0.0699 -0.1071
32838ION     NA49099   7.140   0.162   1.851  0.1697  0.0290  0.1390
32839ION     NA49100  12.456   0.233   3.241  0.4454 -0.2062  0.0364
32840ION     NA49101   6.234  13.660  10.889  0.1209 -0.1022  0.3387
32841ION     NA49102  16.341   6.696   5.987 -0.3155  0.0578 -0.2236
32842ION     NA49103   4.523   0.270  10.882  0.0653 -0.1310  0.0983
32843ION     NA49104  16.640  17.253  11.127  0.3989 -0.0320  0.0257
32844ION     NA49105   2.946   2.637   1.042  0.0646  0.1099  0.0848
32845ION     NA49106   0.595  14.741   6.165 -0.0332 -0.3122 -0.0220
32846ION     NA49107   6.749  11.583   6.335  0.0904  0.1825  0.2371
32847ION     NA49108  10.467  13.348  11.205 -0.1304  0.0520 -0.0297
32848ION     NA49109  16.959   9.454   2.496 -0.0449  0.1133  0.0673
32849ION     NA49110  14.976  13.190  14.249 -0.0077  0.0925  0.2388
32850ION     NA49111  12.762   0.622  10.850  0.1626  0.0148  0.1260
32851ION     NA49112  13.006  10.988   1.103 -0.0484  0.2162  0.1474
32852ION     NA49113   6.062  16.885  11.159 -0.0059  0.1454  0.1659
32853ION     NA49114   8.126   7.443   5.733  0.0862 -0.3465 -0.2046
32854ION     NA49115   5.378   7.670  11.267 -0.4933  0.1011  0.3364
32855ION     NA49116  12.351   5.292  10.494  0.0468 -0.1624  0.0793
32856ION     NA49117  13.122   5.488   2.013  0.0116 -0.2601  0.0287
32857ION     NA49118   6.462   0.522  10.980  0.1031 -0.3037  0.1541
32858ION     NA49119   7.302   9.088   2.828  0.1359  0.0954 -0.0261
32859ION     NA49120  16.332  17.803  13.804  0.2120 -0.3939 -0.0918
32860ION     NA49121   9.891  14.595   5.419 -0.0887 -0.0147 -0.1293
32861ION     NA49122   0.403   7.149  11.286  0.0867  0.2792  0.0225
32862ION     NA49123   0.905  13.763  10.769 -0.2564 -0.1488  0.0654
32863ION     NA49124  12.027  15.679  11.025 -0.0793 -0.0737 -0.0065
32864ION     NA49125  15.296   8.528  10.974 -0.1106  0.0789  0.2992
32865ION     NA49126   2.357   0.089   4.342  0.0629  0.0925 -0.0329
32866ION     NA49127   5.438   2.914  14.658 -0.0721 -0.2319 -0.0497
32867ION     NA49128   4.689  13.177   6.248  0.1783  0.0818 -0.2293
32868ION     NA49129  13.573   3.721  10.668 -0.4480  0.3443  0.2402
32869ION     NA49130   7.610   9.902   5.227 -0.1147  0.4680  0.2743
32870ION     NA49131  10.250   2.404  15.516  0.2014 -0.6186  0.1730
32871ION     NA49132  11.916   3.109  10.752 -0.0328 -0.0476  0.0811
32872ION     NA49133   8.034   7.802  10.887  0.1417 -0.0682  0.3876
32873ION     NA49134   0.311  16.143  10.830  0.0189 -0.0650 -0.1955
32874ION     NA49135  17.155   6.193   3.407 -0.0127  0.0727  0.0731
32875ION     NA49136   6.276   7.660   5.777 -0.1424 -0.1142  0.0501
32876ION     NA49137  17.007   8.736  11.235  0.0545 -0.1145  0.0984
32877ION     NA49138  17.583  16.854  11.022  0.0517 -0.1443  0.0734
32878ION     NA49139   0.102   6.501  11.010  0.0887 -0.0625  0.1346
32879ION     NA49140  15.246  13.609  11.198  0.0841 -0.1818  0.3150
32880ION     NA49141  13.854   3.147  11.843 -0.0185 -0.2215 -0.0626
32881ION     NA49142  10.375   7.848  11.359  0.0138  0.0255 -0.0055
32882ION     NA49143   9.629   9.058  10.605  0.2032 -0.1296 -0.0770
32883ION     NA49144   4.899  11.510   2.945  0.2840 -0.0453 -0.1941
32884ION     NA49145   8.674  13.749  10.866 -0.0050  0.2515 -0.0506
32885ION     NA49146  13.463   9.059  10.691  0.1355 -0.0818 -0.2216
32886ION     NA49147  13.206   0.165  15.878 -0.0610 -0.0812  0.1801
32887ION     NA49148  11.719   0.453  10.622 -0.0231  0.0218 -0.0473
32888ION     NA49149   8.414  15.010   6.107 -0.2275  0.0229 -0.1822
32889ION     NA49150   9.175   6.917   4.510 -0.0106  0.0536 -0.0346
32890ION     NA49151   9.691  13.475  15.695  0.2369 -0.2068  0.2572
32891ION     NA49152   7.318   7.156  10.889  0.0862 -0.0378 -0.1812
32892ION     NA49153   5.740  11.644   4.118 -0.0817 -0.1149 -0.1337
32893ION     NA49154   8.045   9.747  12.582  0.1179  0.2219 -0.1120
32894ION     NA49155   1.200   5.588   4.600 -0.1960  0.0859  0.0351
32895ION     NA49156   3.254  16.746  11.183 -0.1407  0.0337 -0.0539
32896ION     NA49157  17.591   8.094   4.566 -0.1144  0.0166 -0.0254
32897ION     NA49158   5.112   1.587  11.025 -0.2748 -0.1158  0.0517
32898ION     NA49159   7.236   7.393   6.133 -0.2075 -0.0027 -0.0597
32899ION     NA49160  16.344  15.839  11.008  0.0867 -0.0712  0.2364
32900ION     NA49161   9.462  17.808  11.089 -0.2507  0.1457  0.1578
32901ION     NA49162  12.313  11.404  12.441  0.1066 -0.2952 -0.0081
32902ION     NA49163  13.516  11.927  11.135  0.1127  0.3028 -0.2734
32903ION     NA49164   5.971  10.452   3.956  0.3069 -0.0994  0.1488
32904ION     NA49165   2.911  13.574  10.892  0.0610 -0.2561 -0.2464
32905ION     NA49166   2.473  14.460  10.667  0.2399  0.1728  0.0232
32906ION     NA49167  16.713  16.310  11.717 -0.0009  0.3374  0.2633
32907ION     NA49168  12.798  14.438  10.944  0.0663  0.3265  0.1419
32908ION     NA49169   1.006  14.278  13.729  0.1865 -0.0506 -0.0505
32909ION     NA49170   0.568  17.019  14.954  0.0977 -0.1033  0.1228
32910ION     NA49171   2.200  13.717   3.993 -0.0260  0.0059  0.1173
32911ION     NA49172   6.748  14.571  15.537 -0.0404  0.1278  0.1451
32912ION     NA49173   1.365   2.019  10.751  0.0993  0.2774 -0.0591
32913ION     NA49174   9.598   1.706   4.823 -0.0017 -0.1280  0.0370
32914ION     NA49175   9.248  10.019  10.684 -0.0899  0.0789  0.2307
32915ION     NA49176  15.368  15.021  13.921 -0.3249  0.1466  0.0076
32916ION     NA49177   9.727  12.370   4.013 -0.0894  0.1035 -0.0785
32917ION     NA49178  14.333  12.653   4.659 -0.1393  0.0640 -0.1679
32918ION     NA49179   5.215   6.702  11.100  0.1516  0.1590 -0.1111
32919ION     NA49180  12.638   7.704  10.732 -0.0230 -0.2841 -0.0514
32920ION     NA49181   8.750  11.529   0.929 -0.2880  0.0968 -0.1381
32921ION     NA49182  11.132   0.374  10.851  0.0233 -0.1121  0.1575
32922ION     NA49183   9.293   6.987  10.290 -0.0511  0.1175 -0.2213
32923ION     NA49184  12.577   8.553  10.669  0.2885  0.1577  0.2006
32924ION     NA49185   6.344  16.680   6.145  0.0780 -0.0094 -0.0265
32925ION     NA49186   5.277  13.974  10.897 -0.1154  0.1254 -0.1311
32926ION     NA49187   1.069   9.134  12.928 -0.0312  0.1639  0.1023
32927ION     NA49188   2.478  10.784  11.151 -0.0904  0.1015 -0.1461
32928ION     NA49189   0.713   8.550   6.555  0.2355 -0.0877  0.5304
32929ION     NA49190  17.363   6.347   2.100 -0.1773 -0.0319  0.1558
32930ION     NA49191   8.765   5.672  10.753  0.0257 -0.0548 -0.1968
32931ION     NA49192   1.707   9.409  14.669 -0.0262 -0.0866 -0.1203
32932ION     NA49193  15.888   6.464   5.987 -0.4016 -0.0646 -0.1086
32933ION     NA49194   9.794   7.795  10.342 -0.1047 -0.1261  0.2035
32934ION     NA49195   3.438  10.984  11.182  0.1364  0.1725 -0.0456
32935ION     NA49196  17.595   1.690  10.717 -0.2498  0.2454  0.0119
32936ION     NA49197   4.339   4.662  16.425 -0.0044 -0.0525  0.1962
32937ION     NA49198  10.233   0.634  10.785  0.2240 -0.0011  0.0366
32938ION     NA49199  10.151  15.441   1.274 -0.1997 -0.4368  0.0677
32939ION     NA49200   6.393   4.212   0.427  0.0888 -0.2971 -0.0447
32940ION     NA49201  16.830   7.887  10.910 -0.0574 -0.1262  0.1573
32941ION     NA49202   7.084  10.855  10.751 -0.2868 -0.0958  0.0445
32942ION     NA49203   7.217   4.746  10.858 -0.0350  0.0789  0.1189
32943ION     NA49204   9.635   4.691   4.355 -0.0990  0.0666  0.1329
32944ION     NA49205   1.405  10.244   5.057 -0.2799  0.1382 -0.0423
32945ION     NA49206  17.308   9.157   6.373  0.1204 -0.0918 -0.0063
32946ION     NA49207  12.776   7.217   3.100 -0.0491  0.0338 -0.3327
32947ION     NA49208   0.392   0.754  10.690 -0.1808  0.3998 -0.1043
32948ION     NA49209   8.432   2.456  11.024  0.0058 -0.3228 -0.3812
32949ION     NA49210  14.906  10.876  10.830 -0.2201  0.0674  0.1149
32950ION     NA49211  15.633  14.432  11.028  0.0692  0.1016  0.1768
32951ION     NA49212   6.994   1.105  10.906 -0.6987  0.2105  0.2502
32952ION     NA49213  14.752  17.032  12.410  0.2254 -0.2134 -0.1437
32953ION     NA49214  15.719  12.161   6.552 -0.0771  0.0649 -0.1521
32954ION     NA49215  17.423  15.159  12.229  0.3285  0.0449 -0.1634
32955ION     NA49216   4.520  14.465  10.830  0.1735  0.3229 -0.1317
32956ION     NA49217   9.631   6.907  10.685 -0.2228  0.0782  0.3926
32957ION     NA49218   2.074   9.394   5.899 -0.0616  0.4392 -0.2042
32958ION     NA49219   7.707   5.869  12.764 -0.0495  0.1162  0.0926
32959ION     NA49220   6.284  15.726   6.368  0.2085  0.1309  0.0911
32960ION     NA49221   4.819  11.498  12.517  0.3502  0.0883 -0.1588
32961ION     NA49222  17.776   0.950   3.035  0.0966 -0.1752 -0.1008
32962ION     NA49223   8.870  11.027   5.905  0.0345  0.4289  0.0058
32963ION     NA49224   9.387   6.082  10.397  0.4504  0.3066 -0.1443
32964ION     NA49225  17.710  15.413  10.748 -0.0597  0.1369  0.2095
32965ION     NA49226  10.035  17.061  10.908  0.2231 -0.0542  0.6793
32966ION     NA49227   7.918   8.584  10.862  0.0004 -0.1470 -0.0060
32967ION     NA49228   5.028   1.702   3.914 -0.0108  0.0129 -0.0727
32968ION     NA49229  16.480   6.594  10.794  0.3204 -0.2191 -0.2109
32969ION     NA49230  14.722  15.971  11.098 -0.0901 -0.1440  0.2595
32970ION     NA49231   9.952   1.490  11.032  0.2455  0.2220  0.3140
32971ION     NA49232  16.283  17.587  11.208  0.1100  0.0620 -0.0196
32972ION     NA49233  16.360   2.445  10.838 -0.3360  0.1144 -0.6669
32973ION     NA49234  10.916  11.644  15.948 -0.0140  0.0681 -0.2725
32974ION     NA49235   7.243   2.839   2.927  0.3567 -0.0647 -0.1667
32975ION     NA49236  15.961   7.305  10.879 -0.1182  0.1897  0.1257
32976ION     NA49237  14.712   3.898  11.179  0.1885  0.0217  0.0782
32977ION     NA49238   3.252   9.798  11.238 -0.0578  0.0041  0.2120
32978ION     NA49239   4.642   9.419   6.307 -0.0254 -0.0510 -0.0669
32979ION     NA49240   1.753   6.333  11.191 -0.0749 -0.0077  0.1225
32980ION     NA49241  15.217   5.337  15.879  0.0350 -0.0967 -0.0150
32981ION     NA49242  15.201  14.173  13.378 -0.1171  0.1250 -0.2303
32982ION     NA49243   2.564   6.596  10.841 -0.3235  0.1629 -0.3829
32983ION     NA49244  12.254   3.861   5.943  0.1087  0.0562  0.1672
32984ION     NA49245  14.347   8.900   0.048 -0.2754  0.0175  0.1832
32985ION     NA49246   6.809   2.503  11.173 -0.1197  0.0874  0.0711
32986ION     NA49247   9.517  11.603  11.042 -0.2329 -0.0126 -0.3260
32987ION     NA49248  10.870   7.103   5.987  0.2464  0.1303 -0.0736
32988ION     NA49249   6.635  14.365  10.648 -0.0655  0.3852  0.2131
32989ION     NA49250  14.329  13.480  11.021  0.0713 -0.2537 -0.1698
32990ION     NA49251  12.176   3.901  11.067 -0.4838 -0.0290  0.0589
32991ION     NA49252   6.498  16.886  16.211 -0.0184  0.1310  0.2853
32992ION     NA49253   0.449   5.055  11.011 -0.3297 -0.3987 -0.0809
32993ION     NA49254   5.750  10.290  11.140 -0.2323 -0.1180 -0.3293
32994ION     NA49255   4.033   1.887  10.800  0.0452  0.1277  0.3567
32995ION     NA49256  12.720   9.659   6.298  0.0645  0.0221 -0.1044
32996ION     NA49257   0.673   7.343   6.218  0.1768 -0.1287 -0.1269
32997ION     NA49258  16.932   4.442   6.381 -0.3170 -0.0859  0.1879
32998ION     NA49259  11.321  15.287   6.228  0.1115 -0.0862 -0.1057
32999ION     NA49260   5.860   2.364  11.172 -0.1484  0.0519  0.1211
33000ION     NA49261  14.966   7.223  14.739 -0.3286 -0.0131 -0.0663
33001ION     NA49262   5.866   6.257  10.893 -0.3012  0.2744  0.1680
33002ION     NA49263   0.056   9.286  12.714  0.0297  0.0855  0.1482
33003ION     NA49264   3.276  14.820   6.039  0.1370 -0.0574  0.1867
33004ION     NA49265   7.442   7.848   2.316 -0.0007 -0.1018 -0.2510
33005ION     NA49266  11.265  10.643   6.449 -0.1347  0.0503 -0.2560
33006ION     NA49267   8.665  17.447  10.971 -0.0266  0.0217 -0.1908
33007ION     NA49268  13.748  15.610   6.347 -0.0882  0.4791  0.5040
33008ION     NA49269   5.610   4.322  15.912  0.3403  0.1051 -0.1167
33009ION     NA49270   9.365   0.750  10.925  0.1430 -0.0217 -0.1102
33010ION     NA49271  10.035  11.527   3.928  0.2879  0.0354  0.1037
33011ION     NA49272   6.067   3.847  10.930  0.3008 -0.0390  0.1715
33012ION     NA49273   4.204  16.551  11.006  0.0286  0.0251 -0.1110
33013ION     NA49274  10.126   9.792  10.453  0.0582  0.0606 -0.0321
33014ION     NA49275   9.720  16.204  11.067 -0.1510 -0.0164 -0.1220
33015ION     NA49276   1.097  16.425  10.831  0.1145 -0.3605  0.0554
33016ION     NA49277  17.791   8.093   6.273  0.0352 -0.1238 -0.0362
33017ION     NA49278  10.489   4.243  10.611 -0.2393 -0.2600  0.2577
33018ION     NA49279  11.531   5.252  10.493 -0.2975  0.0874  0.1049
33019ION     NA49280  16.748   4.369  10.902 -0.0436  0.2199  0.0934
33020ION     NA49281   1.326   5.020  11.059  0.1448  0.0694 -0.2039
33021ION     NA49282   4.305   6.565  11.161  0.1123  0.1048  0.1845
33022ION     NA49283   8.456  15.504  10.898  0.1169 -0.1167  0.1571
33023ION     NA49284  15.147   0.610  16.390 -0.0506 -0.0316 -0.1798
33024ION     NA49285   9.200  15.446   6.241  0.2382 -0.1270  0.0406
33025ION     NA49286   4.644  11.387   5.553  0.1550 -0.1435  0.1139
33026ION     NA49287  13.300   4.967   1.496 -0.2987  0.0449 -0.2834
33027ION     NA49288  11.023   3.555  10.694  0.3056 -0.0709 -0.1908
33028ION     NA49289  15.186  12.532  11.148 -0.1833  0.0772 -0.0059
33029ION     NA49290  17.625   7.536   6.111 -0.0777  0.0897  0.0754
33030ION     NA49291   8.621   6.488  10.636  0.3366 -0.1475 -0.1543
33031ION     NA49292  16.644  12.441  11.180  0.0678 -0.1347 -0.1876
33032ION     NA49293   3.743   9.012  11.331  0.1004 -0.0556 -0.1598
33033ION     NA49294   7.025  16.993  13.833 -0.0381 -0.0955 -0.1353
33034ION     NA49295   1.615   8.178  11.193 -0.0289 -0.1425  0.0444
33035ION     NA49296   9.803   0.308  14.024  0.0461 -0.2257 -0.0663
33036ION     NA49297   9.863  14.693  13.422  0.0016  0.2238  0.0949
33037ION     NA49298   1.115   7.919  11.285 -0.0843  0.3142 -0.1119
33038ION     NA49299  13.091  15.523  11.216 -0.2295 -0.0833 -0.1146
33039ION     NA49300   7.770  17.187  10.723  0.1541 -0.3277 -0.0030
33040ION     NA49301  11.615  12.613   2.051  0.2514 -0.0633  0.0022
33041ION     NA49302   9.968  13.960  11.478  0.0657 -0.1648 -0.2097
33042ION     NA49303  13.625  14.171   1.333 -0.0201  0.2760  0.1178
33043ION     NA49304   1.010  12.753  10.686 -0.0615  0.2603 -0.1248
33044ION     NA49305   8.795   7.461  10.519 -0.1238  0.1004 -0.4400
33045ION     NA49306  17.219   9.580  11.091 -0.0757  0.4421 -0.0970
33046ION     NA49307   6.341   9.188   3.327 -0.2501  0.2245 -0.0610
33047ION     NA49308   4.475   5.932   6.046 -0.1463 -0.1180  0.4602
33048ION     NA49309   0.448  15.385  13.509 -0.1085 -0.0517 -0.4062
33049ION     NA49310   7.894   1.654  11.056  0.1818  0.1328 -0.1891
33050ION     NA49311  10.661  11.697  10.922  0.4128 -0.0069 -0.2121
33051ION     NA49312   4.412  10.096  11.330  0.0981  0.1655 -0.4476
33052ION     NA49313   7.733   0.671  10.897  0.0377 -0.0270  0.3189
33053ION     NA49314   3.594  14.955  10.986  0.1248  0.3773 -0.0601
33054ION     NA49315  14.040   2.077  10.602 -0.1222 -0.0764 -0.0781
33055ION     NA49316  16.401   3.807   6.165  0.0590  0.0730 -0.0262
33056ION     NA49317  14.311   2.975  10.803 -0.0530  0.0312 -0.2619
33057ION     NA49318  14.419  10.219  10.667 -0.0688  0.0290 -0.3597
33058ION     NA49319  11.749   2.197  11.026 -0.0677 -0.0468  0.1209
33059ION     NA49320   5.532  14.721   4.978  0.0783  0.0896 -0.0159
33060ION     NA49321  14.164   0.094  10.710  0.1813 -0.0487 -0.1564
33061ION     NA49322   3.291   1.278  10.644  0.0360 -0.2913 -0.2697
33062ION     NA49323   0.043   9.518   3.706  0.0960 -0.0297  0.1317
33063ION     NA49324   4.676   8.732  11.428 -0.0995 -0.1065  0.0995
33064ION     NA49325   8.179   1.623   6.230 -0.0947  0.0732 -0.0877
33065ION     NA49326  13.003   5.826   5.799  0.2146  0.2199 -0.0317
33066ION     NA49327   2.628   1.970  13.924 -0.0203 -0.1725  0.1177
33067ION     NA49328   4.186  17.653  15.499 -0.3014  0.0928 -0.0169
33068ION     NA49329   9.976  10.258   6.420  0.1615  0.0550  0.0399
33069ION     NA49330   1.910  10.339  11.230  0.0498  0.0013 -0.3004
33070ION     NA49331   4.247   2.813  10.945  0.0796 -0.0447 -0.4553
33071ION     NA49332   2.253  16.857   5.763  0.1210  0.2851 -0.2745
33072ION     NA49333  11.622   8.656  10.360 -0.2747  0.0025 -0.2221
33073ION     NA49334   5.573   6.533   1.475  0.1590  0.1145 -0.1206
33074ION     NA49335   4.096  12.370  16.727 -0.1067 -0.0313  0.1325
33075ION     NA49336   3.808   3.604  10.834  0.1502 -0.1745  0.0578
33076ION     NA49337  12.226   3.896  10.552  0.2457 -0.0280 -0.2876
33077ION     NA49338  16.791   5.046  13.834  0.0416 -0.0515  0.1496
33078ION     NA49339  16.514  11.483  11.021  0.0709 -0.0920 -0.3160
33079ION     NA49340   4.796   0.613  13.255 -0.0257 -0.2726 -0.0305
33080ION     NA49341   5.104   3.374  10.888  0.0717 -0.0975  0.0027
33081ION     NA49342   5.111   9.585  11.248 -0.0955 -0.0584  0.0168
33082ION     NA49343   5.241  17.043  11.019  0.0078 -0.0704  0.2624
33083ION     NA49344   4.414  11.193  11.092  0.1893 -0.2206  0.0489
33084ION     NA49345  16.392   0.383   5.946 -0.1671  0.0114 -0.2260
33085ION     NA49346  14.665   8.182   0.537 -0.2957 -0.0020 -0.0479
33086ION     NA49347   7.649   6.372  10.973  0.1169  0.0270 -0.1518
33087ION     NA49348   6.819   2.618  14.561  0.0217  0.4323  0.1460
33088ION     NA49349   2.277  10.865   6.075 -0.1532  0.1171 -0.3913
33089ION     NA49350   9.298   6.747  15.191  0.0019  0.4139 -0.0136
33090ION     NA49351   8.521   3.632  13.467  0.1212 -0.1197  0.3197
33091ION     NA49352  12.284   6.245   0.034 -0.0135 -0.3546  0.0867
33092ION     NA49353  11.054   9.342  10.409 -0.1802 -0.2629 -0.1269
33093ION     NA49354  13.690   7.235  16.267  0.0620 -0.0028  0.1759
33094ION     NA49355   9.685  13.206  11.179  0.0271 -0.2199 -0.0460
33095ION     NA49356  10.245  12.444  11.173  0.0745 -0.0447 -0.1298
33096ION     NA49357   3.219   8.158  11.148 -0.1633 -0.0409  0.1206
33097ION     NA49358   1.900  14.311   6.247  0.1655 -0.2515 -0.0420
33098ION     NA49359   9.632  14.657   2.717 -0.2647 -0.1131  0.1682
33099ION     NA49360  14.717   7.266  10.884 -0.2197  0.2642  0.0774
33100ION     NA49361  13.921   6.830  10.643 -0.1364  0.1032  0.0724
33101ION     NA49362  14.935  17.638  10.958  0.0840 -0.1341  0.0676
33102ION     NA49363  13.990  16.214  14.297  0.2101  0.1374 -0.0848
33103ION     NA49364  12.935   4.825   5.732  0.2368 -0.0218  0.0410
33104ION     NA49365   1.798   3.688  10.742  0.2089  0.0380 -0.0544
33105ION     NA49366  13.659   6.097  11.005  0.2575  0.0471  0.1972
33106ION     NA49367  15.816   1.072  13.172  0.1388  0.0031  0.1386
33107ION     NA49368   3.590  13.428   4.522  0.1406  0.1478 -0.0830
33108ION     NA49369   2.833  12.228   4.951 -0.1272  0.0559 -0.0731
33109ION     NA49370   0.181  13.234  10.855  0.0083 -0.1137  0.1149
33110ION     NA49371  12.554   2.474  10.796  0.4011  0.3679 -0.0918
33111ION     NA49372  12.224   6.761  10.574 -0.1328  0.1262  0.0003
33112ION     NA49373   5.434  12.391  10.892 -0.2439  0.1779 -0.2093
33113ION     NA49374  16.997   9.009   0.668  0.1569  0.0302 -0.1654
33114ION     NA49375  13.784   1.992   3.414 -0.0893  0.2323 -0.1317
33115ION     NA49376  17.809   5.823  10.885 -0.0919 -0.1182 -0.4420
33116ION     NA49377  12.942   1.385  10.688  0.0464  0.1317 -0.2322
33117ION     NA49378  16.534   3.490  10.853  0.2890  0.0105 -0.1535
33118ION     NA49379   8.783   4.280  10.812  0.0942  0.0091  0.2426
33119ION     NA49380   1.327   9.551  11.203  0.0758 -0.0208 -0.0335
33120ION     NA49381   3.699  14.453  11.077  0.1085  0.2298  0.1703
33121ION     NA49382  14.939   2.396  10.749  0.0035 -0.0123 -0.0878
33122ION     NA49383   3.116  11.266   3.359 -0.2137  0.3418 -0.0733
33123ION     NA49384   3.660   0.450  10.653  0.0014  0.0848 -0.1263
33124ION     NA49385  11.888   6.008  10.474  0.2804  0.0591  0.2240
33125ION     NA49386   2.225  16.285   6.028 -0.2594 -0.0362 -0.0669
33126ION     NA49387   7.983   9.649   2.643 -0.1021  0.5244 -0.1405
33127ION     NA49388   5.022  14.019   6.376  0.1202  0.1455 -0.1447
33128ION     NA49389   6.059   9.466  11.000 -0.3230 -0.0892 -0.1379
33129ION     NA49390  16.277   6.941  11.698 -0.0459 -0.4284  0.1458
33130ION     NA49391  15.068   9.003  10.856 -0.0303  0.0559 -0.1352
33131ION     NA49392   0.409  14.611   5.457 -0.2548  0.0346  0.1271
33132ION     NA49393   8.077  15.382  12.182 -0.0604  0.0913  0.0575
33133ION     NA49394   4.171   1.084  10.655  0.1240  0.1274 -0.2169
33134ION     NA49395   1.544  11.030  11.029  0.0704 -0.0576  0.2327
33135ION     NA49396   3.432   6.193  11.032 -0.2015  0.1848 -0.1684
33136ION     NA49397   1.611   8.696   6.490  0.0824 -0.1797 -0.0715
33137ION     NA49398  15.510  10.380  10.865  0.1024 -0.2982  0.3013
33138ION     NA49399   7.034  13.480   6.535  0.1791  0.0787 -0.0130
33139ION     NA49400   4.387  13.885  11.351 -0.0455  0.2774 -0.0828
33140ION     NA49401  17.320  13.941  10.813  0.0749  0.1546 -0.0486
33141ION     NA49402  11.152   6.681  10.469 -0.1573  0.0511  0.0567
33142ION     NA49403  13.945  10.310  16.577 -0.2234 -0.0766 -0.3668
33143ION     NA49404  14.368   7.674  10.935 -0.1971  0.1592  0.0474
33144ION     NA49405  16.112   3.419   0.347  0.0585 -0.1729  0.5113
33145ION     NA49406  11.822  11.045  10.922 -0.0630  0.0842  0.0616
33146ION     NA49407  10.314   8.369   6.166  0.1047 -0.4202 -0.2453
33147ION     NA49408  11.237  14.399  11.041  0.1435  0.1055  0.1550
33148ION     NA49409   0.715   8.688  11.126  0.4957 -0.1281 -0.2800
33149ION     NA49410  11.228  11.528  10.651 -0.0589 -0.1829 -0.0929
33150ION     NA49411  16.537  12.287   6.352  0.1074 -0.1273 -0.1322
33151ION     NA49412   9.851  14.072   6.216 -0.0944 -0.1796 -0.0001
33152ION     NA49413   8.195   3.830   1.542 -0.0505  0.2630  0.0400
33153ION     NA49414   5.996   5.206  13.098 -0.1192  0.5384  0.0265
33154ION     NA49415  17.275   6.117   0.271 -0.0586  0.0194 -0.0105
33155ION     NA49416   9.835  17.477   6.385 -0.1641 -0.4433 -0.1032
33156ION     NA49417  11.788   9.850  10.375  0.3249  0.3374  0.0060
33157ION     NA49418  10.653   7.386  10.366  0.0559  0.0646  0.1387
33158ION     NA49419   2.400   0.209  14.557 -0.0908  0.1262  0.1210
33159ION     NA49420   3.185  14.041   4.780  0.3825  0.2268  0.1512
33160ION     NA49421   7.175   8.005  11.001 -0.1510 -0.0962  0.4091
33161ION     NA49422  17.785  16.390   6.016  0.2592 -0.3552  0.0448
33162ION     NA49423  10.990   0.064   4.364  0.1361 -0.0243  0.1057
33163ION     NA49424  15.207  12.587  13.586  0.2834  0.0261 -0.2656
33164ION     NA49425   6.611  10.144  10.905  0.2329 -0.0974  0.1659
33165ION     NA49426   6.378  10.749   1.630  0.0022 -0.2147  0.0079
33166ION     NA49427   5.536   0.751  10.990  0.1504 -0.0221 -0.1663
33167ION     NA49428   9.008  10.474   1.859 -0.0219 -0.1073  0.0432
  17.85215  17.85215  16.98779
