INSANE! Membrane UpperLeaflet>loPI:POPI:DPPI:PYPI:ERGO=180.0:5.0:3.0:2.0:10.0 LowerLeaflet>PSPI:POPI:POPS:YOPS:POPE:YOPE:POPC:YOPC:ERGO=6.0:14.0:21.0:9.0:9.0:21.0:12.0:48.0:60.0
49428
    1loPI    C1    1   3.006  18.318  10.141 -0.1031  0.1284 -0.2381
    1loPI    C2    2   2.787  18.053  10.345  0.3370 -0.0955 -0.0436
    1loPI    C3    3   2.823  18.428  10.479  0.0905 -0.0607 -0.0696
    1loPI   PO4    4   2.923  18.222   9.820  0.1858  0.0330  0.1393
    1loPI   GL1    5   2.823  18.327   9.492  0.1199  0.2075  0.0610
    1loPI   GL2    6   3.099  18.428   9.365 -0.0065  0.0264 -0.0462
    1loPI   C1A    7   2.608  18.275   9.138  0.1643  0.2025 -0.1866
    1loPI   C2A    8   2.559  18.179   8.783  0.2638 -0.2397 -0.1610
    1loPI   C3A    9   2.671  18.010   8.341  0.0663 -0.0567 -0.0538
    1loPI   C4A   10   2.623  17.872   7.942  0.0336 -0.0051  0.3262
    1loPI   C5A   11   2.463  17.592   7.580 -0.2752  0.1309 -0.1838
    1loPI   C6A   12   2.417  17.794   7.150 -0.0773  0.1371  0.3627
    1loPI   C1B   13   3.039  18.394   8.888 -0.2511  0.2072 -0.1642
    1loPI   C2B   14   3.064  18.414   8.445 -0.0158  0.0449  0.0462
    1loPI   C3B   15   2.993  18.313   8.103 -0.1562 -0.1586  0.0955
    1loPI   C4B   16   2.855  18.363   7.760  0.0688  0.0777 -0.0997
    2loPI    C1   17  16.221  10.564  10.056  0.0973 -0.1777  0.0654
    2loPI    C2   18  16.062  10.455  10.406 -0.0756 -0.1083  0.0094
    2loPI    C3   19  16.458  10.444  10.355 -0.0408 -0.0152  0.2432
    2loPI   PO4   20  16.002  10.461   9.811  0.0493  0.0797 -0.2219
    2loPI   GL1   21  16.079  10.162   9.469  0.0233  0.2045 -0.3364
    2loPI   GL2   22  15.753  10.345   9.257  0.0160  0.1076 -0.1545
    2loPI   C1A   23  16.197  10.170   9.074 -0.0583  0.4602 -0.0627
    2loPI   C2A   24  16.024   9.948   8.794  0.0795  0.1197 -0.1036
    2loPI   C3A   25  15.917   9.736   8.307  0.0622 -0.2078  0.0141
    2loPI   C4A   26  15.878   9.523   7.964 -0.3251 -0.1829 -0.5113
    2loPI   C5A   27  16.350   9.472   7.800 -0.3309  0.0947  0.2042
    2loPI   C6A   28  16.519   9.422   7.457 -0.0957 -0.0742  0.2403
    2loPI   C1B   29  15.908  10.477   8.803 -0.1864 -0.0210  0.3129
    2loPI   C2B   30  15.870  10.361   8.343 -0.1744 -0.0340 -0.0650
    2loPI   C3B   31  16.081  10.396   7.850 -0.2509  0.1111  0.1875
    2loPI   C4B   32  16.255  10.386   7.503 -0.2746 -0.2331 -0.0573
    3loPI    C1   33   1.686  10.481  10.285 -0.0272  0.0797 -0.2876
    3loPI    C2   34   1.596  10.142  10.477 -0.1533  0.1078 -0.2959
    3loPI    C3   35   1.469  10.493  10.621  0.0611  0.1615 -0.2327
    3loPI   PO4   36   1.559  10.401   9.964 -0.0652 -0.0749 -0.0081
    3loPI   GL1   37   1.595  10.580   9.568 -0.2661 -0.0637 -0.0388
    3loPI   GL2   38   1.448  10.793   9.461 -0.0104  0.0400  0.2313
    3loPI   C1A   39   1.734  10.258   9.208  0.0357 -0.3276 -0.2406
    3loPI   C2A   40   1.917  10.029   8.813 -0.3986  0.1550 -0.1373
    3loPI   C3A   41   1.834   9.915   8.453 -0.1961  0.0246  0.0413
    3loPI   C4A   42   1.784   9.893   7.996  0.1290  0.0703 -0.0851
    3loPI   C5A   43   1.485   9.966   7.711 -0.2942  0.1744 -0.1099
    3loPI   C6A   44   1.031  10.161   7.692 -0.1198 -0.2212  0.2947
    3loPI   C1B   45   1.520  10.712   9.009  0.1228 -0.0664 -0.1944
    3loPI   C2B   46   1.467  10.604   8.600 -0.1826 -0.0047 -0.2692
    3loPI   C3B   47   1.539  10.335   8.371  0.0154  0.0814 -0.0049
    3loPI   C4B   48   1.369  10.083   8.137 -0.0836 -0.0615  0.1148
    4loPI    C1   49   9.574  18.439  10.764 -0.2319 -0.0522 -0.2151
    4loPI    C2   50   9.509  18.055  10.856  0.1730 -0.0458  0.1278
    4loPI    C3   51   9.404  18.343  11.113  0.1078  0.0583 -0.0140
    4loPI   PO4   52   9.499  18.419  10.486 -0.0827 -0.0201  0.0295
    4loPI   GL1   53   9.283  18.601  10.142 -0.1303 -0.0292 -0.2290
    4loPI   GL2   54   9.355  18.288   9.965 -0.2106 -0.0159 -0.2698
    4loPI   C1A   55   9.583  18.769   9.786  0.1980  0.0717  0.0869
    4loPI   C2A   56   9.864  18.960   9.428  0.0703 -0.3417 -0.1379
    4loPI   C3A   57  10.100  19.123   9.064 -0.1237  0.3833 -0.3111
    4loPI   C4A   58  10.200  19.174   8.700  0.0363 -0.1901  0.0092
    4loPI   C5A   59  10.540  19.290   8.485 -0.1110 -0.1519 -0.1426
    4loPI   C6A   60  10.825  19.274   8.148  0.1812  0.1210 -0.1021
    4loPI   C1B   61   9.459  18.151   9.530 -0.1093  0.2191 -0.3545
    4loPI   C2B   62   9.250  18.176   9.159  0.1269 -0.0529 -0.1387
    4loPI   C3B   63   9.082  18.365   8.673 -0.2507  0.2659 -0.2375
    4loPI   C4B   64   9.187  18.693   8.431 -0.0292  0.0463 -0.0221
    5loPI    C1   65   1.997  15.924  10.160  0.1984  0.2709  0.1436
    5loPI    C2   66   2.179  16.059  10.490  0.1022  0.0647  0.2832
    5loPI    C3   67   2.008  15.697  10.489 -0.2143  0.2103  0.1208
    5loPI   PO4   68   1.967  16.082  10.026  0.0086 -0.0104  0.1997
    5loPI   GL1   69   2.106  16.030   9.639  0.1927  0.2285 -0.3209
    5loPI   GL2   70   2.268  15.837   9.360 -0.1724  0.2241 -0.0897
    5loPI   C1A   71   1.944  16.127   9.199  0.2491 -0.0075  0.1195
    5loPI   C2A   72   1.844  16.341   8.880 -0.0595 -0.0964 -0.1010
    5loPI   C3A   73   1.598  16.346   8.514 -0.0030 -0.1384 -0.2175
    5loPI   C4A   74   1.596  16.198   8.026 -0.1679  0.3363 -0.0709
    5loPI   C5A   75   1.845  15.920   7.806 -0.2358 -0.1714  0.2422
    5loPI   C6A   76   2.244  15.668   7.774 -0.0166 -0.1391 -0.1773
    5loPI   C1B   77   2.417  16.001   8.950 -0.1792  0.2652  0.0725
    5loPI   C2B   78   2.489  16.274   8.625 -0.1554  0.0923 -0.2253
    5loPI   C3B   79   2.430  16.551   8.261  0.0387 -0.0992 -0.2189
    5loPI   C4B   80   2.582  16.608   7.921 -0.1838  0.0281  0.0215
    6loPI    C1   81  11.791  14.414   9.919  0.1711  0.2727  0.0336
    6loPI    C2   82  11.568  14.439  10.250  0.3605  0.4050  0.1528
    6loPI    C3   83  11.923  14.255  10.262  0.1610 -0.0087 -0.0902
    6loPI   PO4   84  11.548  14.342   9.762 -0.5537 -0.0387  0.0162
    6loPI   GL1   85  11.417  14.365   9.336  0.0205  0.1135  0.0252
    6loPI   GL2   86  11.322  14.009   9.288  0.1318  0.3715  0.0996
    6loPI   C1A   87  11.254  14.548   8.932  0.1724  0.1635 -0.0965
    6loPI   C2A   88  11.309  14.698   8.663 -0.1544 -0.0385 -0.0017
    6loPI   C3A   89  11.527  14.799   8.299 -0.1744  0.0760 -0.2011
    6loPI   C4A   90  11.677  14.962   7.947  0.0651 -0.0634  0.0048
    6loPI   C5A   91  11.520  15.252   7.591 -0.1222 -0.0629 -0.0321
    6loPI   C6A   92  11.340  15.568   7.461 -0.0411  0.0330 -0.0967
    6loPI   C1B   93  11.431  14.095   8.926  0.0015  0.1020  0.1748
    6loPI   C2B   94  11.301  14.183   8.569 -0.2258  0.0639 -0.2265
    6loPI   C3B   95  11.288  14.382   8.212 -0.0981  0.0374 -0.1956
    6loPI   C4B   96  11.068  14.731   8.073  0.0350  0.3986 -0.0666
    7loPI    C1   97  11.084   9.642  10.296 -0.0135 -0.2365 -0.1638
    7loPI    C2   98  11.482   9.613  10.327 -0.0051 -0.1380 -0.1790
    7loPI    C3   99  11.252   9.563  10.650  0.0347  0.0582 -0.1184
    7loPI   PO4  100  11.111   9.563   9.981 -0.0337 -0.1250  0.0484
    7loPI   GL1  101  10.991   9.623   9.611  0.0066  0.2617 -0.1699
    7loPI   GL2  102  11.333   9.507   9.307 -0.0270 -0.0617  0.0047
    7loPI   C1A  103  10.898   9.230   9.365  0.0333  0.0444  0.1983
    7loPI   C2A  104  10.757   9.235   8.925 -0.2701  0.0527 -0.5623
    7loPI   C3A  105  10.651   9.314   8.538 -0.0487 -0.0915 -0.2144
    7loPI   C4A  106  10.607   9.361   8.114 -0.2849  0.0061  0.1192
    7loPI   C5A  107  10.908   9.140   7.769  0.1718  0.0935 -0.0751
    7loPI   C6A  108  11.194   9.085   7.493  0.1779 -0.0401 -0.0553
    7loPI   C1B  109  11.209   9.513   8.855  0.1974 -0.0121 -0.2190
    7loPI   C2B  110  11.110   9.616   8.437 -0.1383  0.0540 -0.1171
    7loPI   C3B  111  11.026   9.591   8.045  0.1001  0.3532 -0.1302
    7loPI   C4B  112  11.293   9.613   7.699 -0.0992 -0.0730  0.1533
    8loPI    C1  113   4.472  18.431  10.330  0.1979  0.0329  0.1109
    8loPI    C2  114   4.618  18.067  10.254  0.0629 -0.0191  0.0963
    8loPI    C3  115   4.437  18.141  10.603 -0.3306 -0.1001 -0.0852
    8loPI   PO4  116   4.411  18.495  10.086  0.2680 -0.0879 -0.3027
    8loPI   GL1  117   4.506  18.492   9.700 -0.0589 -0.0000  0.1198
    8loPI   GL2  118   4.803  18.313   9.814  0.5008  0.0919  0.0325
    8loPI   C1A  119   4.386  18.650   9.324  0.0809 -0.3308  0.1406
    8loPI   C2A  120   4.382  18.663   8.856 -0.2063 -0.0658 -0.1644
    8loPI   C3A  121   4.518  18.678   8.491  0.1871  0.0139 -0.2802
    8loPI   C4A  122   4.413  18.699   8.067 -0.0137 -0.3977 -0.0616
    8loPI   C5A  123   4.160  18.631   7.761  0.2052  0.3755  0.1043
    8loPI   C6A  124   3.875  18.870   7.417 -0.0601 -0.5300  0.0022
    8loPI   C1B  125   4.824  18.340   9.317  0.2190 -0.2494  0.2731
    8loPI   C2B  126   4.810  18.318   8.842 -0.0013  0.0192 -0.0907
    8loPI   C3B  127   4.931  18.290   8.432  0.0231  0.1504  0.0565
    8loPI   C4B  128   4.903  18.387   8.062  0.0666  0.0322 -0.1142
    9loPI    C1  129   8.837  10.087  10.272  0.0304  0.3433 -0.2533
    9loPI    C2  130   8.717  10.409  10.476 -0.1606  0.0169  0.1653
    9loPI    C3  131   9.054  10.220  10.580 -0.0665  0.0582 -0.0576
    9loPI   PO4  132   8.777  10.156   9.985 -0.0266  0.2413  0.0873
    9loPI   GL1  133   8.716  10.325   9.603 -0.1791  0.1294 -0.0961
    9loPI   GL2  134   9.153  10.543   9.749  0.0094 -0.0718  0.3110
    9loPI   C1A  135   8.310  10.155   9.299  0.1030  0.0712 -0.2761
    9loPI   C2A  136   8.099  10.199   8.947 -0.1842 -0.1391  0.0802
    9loPI   C3A  137   7.932  10.257   8.531  0.0458 -0.1131 -0.0382
    9loPI   C4A  138   7.748  10.214   8.252 -0.1971  0.0210 -0.1075
    9loPI   C5A  139   7.504  10.057   7.930  0.3052  0.1476 -0.2615
    9loPI   C6A  140   7.143   9.823   7.640  0.0449 -0.0037 -0.4666
    9loPI   C1B  141   9.209  10.429   9.276 -0.0831 -0.0198 -0.2176
    9loPI   C2B  142   9.132  10.285   8.811  0.1837 -0.2090  0.1020
    9loPI   C3B  143   9.148  10.395   8.450 -0.2983 -0.1072  0.1629
    9loPI   C4B  144   9.324  10.623   8.115  0.1798 -0.1035  0.0659
   10loPI    C1  145   1.925  15.101   9.727 -0.1701 -0.1124  0.1725
   10loPI    C2  146   2.021  14.718   9.786  0.2518 -0.0161  0.1408
   10loPI    C3  147   2.093  14.989  10.072  0.0354  0.0558  0.1290
   10loPI   PO4  148   1.675  15.074   9.650 -0.0932 -0.3495 -0.1579
   10loPI   GL1  149   1.454  15.090   9.322 -0.1040 -0.0703 -0.3033
   10loPI   GL2  150   1.734  14.889   9.179  0.3108 -0.2088  0.1097
   10loPI   C1A  151   1.318  14.770   8.897 -0.3924  0.1396  0.1684
   10loPI   C2A  152   1.179  14.609   8.497 -0.2017 -0.3390  0.0356
   10loPI   C3A  153   1.268  14.603   8.089 -0.0293  0.1556  0.1091
   10loPI   C4A  154   1.457  14.493   7.613 -0.1623 -0.0470 -0.3834
   10loPI   C5A  155   1.472  14.139   7.378 -0.0156  0.1479  0.1467
   10loPI   C6A  156   1.543  13.866   7.593  0.2106 -0.1508  0.1841
   10loPI   C1B  157   1.793  14.843   8.690 -0.0830 -0.0281 -0.2312
   10loPI   C2B  158   1.483  14.987   8.298  0.2209  0.0954 -0.0066
   10loPI   C3B  159   1.207  14.975   7.765  0.3110 -0.3217  0.1007
   10loPI   C4B  160   1.187  14.969   7.328  0.4068 -0.1095  0.2720
   11loPI    C1  161  17.907   0.370   9.824 -0.1388 -0.2466  0.0071
   11loPI    C2  162  17.931   0.436  10.217  0.0876  0.1866 -0.0732
   11loPI    C3  163  18.214   0.222  10.033  0.0527  0.0969 -0.0235
   11loPI   PO4  164  17.759   0.615   9.750 -0.0999  0.2078  0.2663
   11loPI   GL1  165  17.502   0.587   9.342 -0.0071 -0.2285  0.3523
   11loPI   GL2  166  17.745   0.299   9.343 -0.2325 -0.2570  0.0089
   11loPI   C1A  167  17.577   0.575   8.933  0.2160 -0.4847 -0.0035
   11loPI   C2A  168  17.856   0.511   8.699 -0.0936  0.1014 -0.0273
   11loPI   C3A  169  18.228   0.707   8.445 -0.1205 -0.1189 -0.2472
   11loPI   C4A  170  18.710   0.884   8.353  0.2113  0.0830 -0.0527
   11loPI   C5A  171  18.766   0.996   7.842 -0.0967  0.1384 -0.1338
   11loPI   C6A  172  18.853   1.243   7.490  0.0898  0.0162 -0.0928
   11loPI   C1B  173  17.574   0.066   9.023  0.0620 -0.0290  0.0636
   11loPI   C2B  174  17.702  -0.057   8.635 -0.1963  0.0852 -0.1506
   11loPI   C3B  175  17.852   0.017   8.307  0.0961  0.2830 -0.0495
   11loPI   C4B  176  17.949  -0.069   7.926 -0.1953  0.0108 -0.1690
   12loPI    C1  177  17.000   3.282  10.105  0.1442 -0.1894  0.1549
   12loPI    C2  178  16.635   3.121  10.134  0.2768 -0.4984  0.1446
   12loPI    C3  179  16.818   3.264  10.460  0.0532 -0.1239  0.1120
   12loPI   PO4  180  17.003   3.465   9.841  0.1945  0.0329 -0.1067
   12loPI   GL1  181  17.062   3.320   9.346 -0.1773  0.0645  0.1036
   12loPI   GL2  182  16.801   3.167   9.268 -0.3101 -0.4931  0.0756
   12loPI   C1A  183  17.098   3.462   8.868 -0.0483  0.3033 -0.1175
   12loPI   C2A  184  17.071   3.607   8.457  0.0602 -0.1950 -0.0214
   12loPI   C3A  185  16.903   3.540   8.101 -0.1768 -0.1643  0.0509
   12loPI   C4A  186  16.980   3.467   7.661 -0.2643  0.3369 -0.1289
   12loPI   C5A  187  16.930   3.561   7.189  0.0903  0.0018  0.1148
   12loPI   C6A  188  16.846   3.197   6.956 -0.1393 -0.2294 -0.0622
   12loPI   C1B  189  16.838   2.957   8.919  0.3131  0.0673  0.1665
   12loPI   C2B  190  17.029   3.133   8.433 -0.1136  0.0345  0.0224
   12loPI   C3B  191  17.242   3.157   8.156 -0.1739  0.2184 -0.2588
   12loPI   C4B  192  17.454   3.318   7.730  0.0906  0.0514  0.2108
   13loPI    C1  193   3.517  13.459   9.867  0.0181  0.0015 -0.0910
   13loPI    C2  194   3.146  13.607   9.881  0.0728  0.1540 -0.2213
   13loPI    C3  195   3.246  13.296  10.112  0.0089  0.4356  0.1980
   13loPI   PO4  196   3.609  13.665   9.780 -0.0289 -0.2055  0.3082
   13loPI   GL1  197   3.473  13.728   9.409 -0.0027  0.0175  0.2220
   13loPI   GL2  198   3.212  13.582   9.233 -0.0317  0.0399 -0.0332
   13loPI   C1A  199   3.546  13.797   8.970  0.0679 -0.0327  0.2889
   13loPI   C2A  200   3.527  13.909   8.573 -0.2010 -0.1985 -0.3225
   13loPI   C3A  201   3.807  14.040   8.110  0.3346 -0.4486  0.1485
   13loPI   C4A  202   3.969  14.355   7.846  0.1400 -0.1589 -0.1985
   13loPI   C5A  203   4.002  14.344   7.444 -0.2099  0.2089  0.1653
   13loPI   C6A  204   3.705  14.098   7.197  0.2166 -0.0332  0.0454
   13loPI   C1B  205   3.105  13.648   8.748  0.2188  0.3545  0.0374
   13loPI   C2B  206   3.201  13.580   8.319 -0.1203 -0.0739  0.0641
   13loPI   C3B  207   3.379  13.615   7.934  0.1119 -0.0967 -0.1580
   13loPI   C4B  208   3.458  13.487   7.582  0.0006  0.0874  0.1040
   14loPI    C1  209  11.063  14.387   9.713  0.0604 -0.0193 -0.0275
   14loPI    C2  210  11.089  14.361  10.112  0.0430 -0.0139 -0.0260
   14loPI    C3  211  11.192  14.700   9.926  0.3090 -0.1045 -0.0489
   14loPI   PO4  212  10.763  14.122   9.653 -0.2244 -0.2526 -0.3325
   14loPI   GL1  213  10.608  14.004   9.280  0.1237 -0.0561  0.0464
   14loPI   GL2  214  10.425  14.272   9.302 -0.2039  0.0812  0.0827
   14loPI   C1A  215  10.931  13.861   9.043  0.5138 -0.2017 -0.1440
   14loPI   C2A  216  11.154  13.687   8.741 -0.2734 -0.3873 -0.0351
   14loPI   C3A  217  11.043  13.637   8.304  0.2429 -0.4667 -0.1691
   14loPI   C4A  218  11.033  13.949   7.949 -0.0548  0.0971 -0.3154
   14loPI   C5A  219  11.209  14.353   7.737  0.1931  0.0435  0.0617
   14loPI   C6A  220  11.360  14.765   7.529 -0.2884 -0.0277 -0.3784
   14loPI   C1B  221  10.308  14.464   8.890 -0.0313  0.1075 -0.2724
   14loPI   C2B  222  10.305  14.297   8.410  0.0139 -0.1806  0.3159
   14loPI   C3B  223  10.252  14.054   7.960 -0.2069  0.2892  0.0093
   14loPI   C4B  224  10.272  14.256   7.488  0.2036 -0.2047 -0.2841
   15loPI    C1  225   6.104  17.036  10.580  0.1658 -0.1671 -0.0973
   15loPI    C2  226   6.472  17.177  10.511  0.1218  0.0404  0.0785
   15loPI    C3  227   6.340  17.137  10.886 -0.1043  0.1504  0.0122
   15loPI   PO4  228   5.971  17.173  10.477  0.0296 -0.2208  0.0374
   15loPI   GL1  229   5.888  17.330  10.130 -0.0844 -0.0096  0.2269
   15loPI   GL2  230   5.618  17.503  10.047  0.0770  0.0624 -0.0811
   15loPI   C1A  231   5.970  17.348   9.744  0.0946  0.0657 -0.2694
   15loPI   C2A  232   6.063  17.420   9.287  0.1096  0.0532  0.0564
   15loPI   C3A  233   6.136  17.520   8.776  0.0519 -0.5617 -0.1141
   15loPI   C4A  234   6.125  17.635   8.294 -0.0015  0.1565 -0.1217
   15loPI   C5A  235   6.404  17.929   8.077 -0.1458 -0.0469 -0.0452
   15loPI   C6A  236   6.716  18.306   7.955 -0.0784  0.2966  0.0986
   15loPI   C1B  237   5.658  17.771   9.758  0.1841  0.0770  0.0966
   15loPI   C2B  238   5.623  17.841   9.334  0.2943  0.2608 -0.2394
   15loPI   C3B  239   5.694  17.753   8.912  0.1281 -0.1396  0.2754
   15loPI   C4B  240   5.713  17.790   8.523  0.1689 -0.2583  0.2064
   16loPI    C1  241   3.168  11.176  10.034  0.1424  0.0784 -0.1248
   16loPI    C2  242   3.357  11.217  10.384  0.0968  0.0006 -0.0907
   16loPI    C3  243   3.016  11.010  10.364  0.0535  0.0784 -0.1655
   16loPI   PO4  244   3.175  11.373   9.882  0.1854  0.2157 -0.1537
   16loPI   GL1  245   3.102  11.567   9.502  0.0732 -0.0821 -0.0101
   16loPI   GL2  246   2.993  11.726   9.392  0.1673 -0.3859  0.2374
   16loPI   C1A  247   3.207  11.206   9.234  0.0193  0.0568 -0.1188
   16loPI   C2A  248   3.360  11.005   8.952  0.2941 -0.0966  0.2446
   16loPI   C3A  249   3.470  10.864   8.510  0.3582 -0.1210 -0.3397
   16loPI   C4A  250   3.742  10.534   8.276 -0.2283 -0.0129  0.1583
   16loPI   C5A  251   3.945  10.470   7.900 -0.1926  0.0458 -0.0027
   16loPI   C6A  252   4.323  10.568   7.765  0.2328  0.1910 -0.1125
   16loPI   C1B  253   2.747  11.710   9.096 -0.1267 -0.1855  0.1064
   16loPI   C2B  254   2.561  11.373   8.722 -0.1221 -0.0887  0.0228
   16loPI   C3B  255   2.177  11.370   8.461 -0.2212  0.1412  0.3087
   16loPI   C4B  256   2.048  11.380   8.133  0.2195 -0.3457  0.0753
   17loPI    C1  257   3.930   3.003  10.443  0.1049  0.2002 -0.0435
   17loPI    C2  258   3.959   3.385  10.556  0.2412  0.1616  0.0540
   17loPI    C3  259   3.861   3.104  10.823  0.2928  0.1075  0.0163
   17loPI   PO4  260   3.854   3.056  10.146 -0.2161  0.1738  0.2013
   17loPI   GL1  261   3.800   2.864   9.808  0.1463 -0.0597  0.1471
   17loPI   GL2  262   4.094   2.685   9.737 -0.0268  0.0857 -0.1362
   17loPI   C1A  263   3.493   3.003   9.375 -0.1331  0.0843 -0.0547
   17loPI   C2A  264   3.623   3.004   8.903  0.1987  0.1064  0.0161
   17loPI   C3A  265   3.799   2.907   8.406  0.2396 -0.0184  0.0990
   17loPI   C4A  266   3.652   2.890   7.868  0.0008 -0.1703  0.0327
   17loPI   C5A  267   3.528   3.112   7.515 -0.0991  0.0290  0.2156
   17loPI   C6A  268   3.617   3.545   7.336 -0.0182  0.1766  0.2600
   17loPI   C1B  269   4.004   2.835   9.248  0.1479 -0.0648 -0.2279
   17loPI   C2B  270   4.049   2.685   8.872  0.3992 -0.0846 -0.4298
   17loPI   C3B  271   4.104   2.462   8.516 -0.2165  0.1901  0.1772
   17loPI   C4B  272   4.073   2.641   8.066  0.3219  0.0849  0.0868
   18loPI    C1  273  14.947  10.033   9.855 -0.0616 -0.2387  0.1615
   18loPI    C2  274  15.046   9.758  10.128  0.1874 -0.1445  0.1685
   18loPI    C3  275  15.251  10.101  10.105 -0.0194 -0.0259  0.0551
   18loPI   PO4  276  14.675   9.915   9.796  0.1659 -0.1463  0.2175
   18loPI   GL1  277  14.603   9.849   9.352 -0.1379 -0.0148 -0.4105
   18loPI   GL2  278  14.620  10.113   9.273 -0.0616  0.1942 -0.1626
   18loPI   C1A  279  14.426   9.880   8.891 -0.0077  0.1104 -0.1239
   18loPI   C2A  280  14.546   9.870   8.374  0.0059 -0.2143  0.0765
   18loPI   C3A  281  14.763   9.695   8.032  0.0521  0.2526 -0.2287
   18loPI   C4A  282  15.081   9.432   7.775  0.0805 -0.1279 -0.0278
   18loPI   C5A  283  15.382   9.405   7.527 -0.0749 -0.0215 -0.1307
   18loPI   C6A  284  15.622   9.143   7.781 -0.3097  0.2194  0.2443
   18loPI   C1B  285  14.522  10.446   8.926  0.0176  0.1921  0.1341
   18loPI   C2B  286  14.347  10.406   8.429  0.1092  0.2509  0.1215
   18loPI   C3B  287  14.603  10.350   8.084  0.0041  0.0583 -0.1958
   18loPI   C4B  288  14.478  10.540   7.722  0.0422 -0.1931 -0.1069
   19loPI    C1  289   1.101   2.590   9.852 -0.0512  0.1326 -0.0579
   19loPI    C2  290   1.311   2.564  10.192  0.0282  0.3947 -0.0845
   19loPI    C3  291   0.984   2.338  10.140  0.2123  0.0980  0.0216
   19loPI   PO4  292   1.341   2.562   9.683  0.2305  0.1316  0.1382
   19loPI   GL1  293   1.659   2.700   9.348  0.2194 -0.2642  0.1213
   19loPI   GL2  294   1.831   2.470   9.264  0.0625 -0.2590 -0.2351
   19loPI   C1A  295   1.739   2.988   9.017 -0.1949 -0.3386 -0.0256
   19loPI   C2A  296   1.857   3.030   8.525 -0.0629 -0.0327  0.0507
   19loPI   C3A  297   1.842   3.065   8.102  0.1179  0.0553 -0.0360
   19loPI   C4A  298   2.020   3.064   7.707 -0.1322  0.2132  0.0768
   19loPI   C5A  299   2.041   2.903   7.391 -0.0365  0.1434  0.0002
   19loPI   C6A  300   2.287   3.048   7.060 -0.0666 -0.2613 -0.0082
   19loPI   C1B  301   1.703   2.478   8.853  0.0447  0.1798  0.0957
   19loPI   C2B  302   1.874   2.505   8.403 -0.2555 -0.3284 -0.0017
   19loPI   C3B  303   1.850   2.413   8.075 -0.4751  0.0358 -0.2060
   19loPI   C4B  304   1.911   2.427   7.658 -0.2138  0.4948 -0.0383
   20loPI    C1  305  11.371  17.574  10.072 -0.1790  0.2285  0.0404
   20loPI    C2  306  11.121  17.266  10.025 -0.0181  0.0795  0.1492
   20loPI    C3  307  11.384  17.266  10.326  0.2506  0.1397 -0.0806
   20loPI   PO4  308  11.097  17.779   9.948 -0.2923  0.0574 -0.2082
   20loPI   GL1  309  10.820  17.589   9.673  0.1274  0.0092  0.0355
   20loPI   GL2  310  10.701  17.269   9.578  0.0110  0.0348  0.0307
   20loPI   C1A  311  10.563  17.709   9.293 -0.2490 -0.2330  0.0840
   20loPI   C2A  312  10.583  17.853   8.893  0.0539  0.2911  0.0562
   20loPI   C3A  313  10.796  17.945   8.528 -0.1097  0.2333 -0.0799
   20loPI   C4A  314  11.081  17.958   8.207 -0.2517 -0.2398  0.0931
   20loPI   C5A  315  11.419  18.042   8.073  0.1512  0.1409  0.1575
   20loPI   C6A  316  11.826  18.172   7.878  0.2326  0.1079  0.0279
   20loPI   C1B  317  10.751  17.231   9.154  0.0608 -0.0337  0.2885
   20loPI   C2B  318  10.779  17.411   8.722 -0.0779  0.0260  0.0775
   20loPI   C3B  319  10.673  17.331   8.371  0.1178 -0.0640 -0.0450
   20loPI   C4B  320  10.397  17.232   8.048  0.0568 -0.1501 -0.1526
   21loPI    C1  321  11.122  18.775  10.642  0.1215 -0.0092 -0.1612
   21loPI    C2  322  11.333  19.038  10.857  0.0950  0.0246 -0.1766
   21loPI    C3  323  10.993  18.886  11.003  0.1012  0.0123 -0.1750
   21loPI   PO4  324  11.189  18.896  10.390 -0.0514  0.0215 -0.2271
   21loPI   GL1  325  11.092  19.126  10.085 -0.0487  0.0654 -0.0342
   21loPI   GL2  326  10.913  19.037   9.724  0.2167  0.1412 -0.0430
   21loPI   C1A  327  11.507  19.265   9.890  0.2653 -0.5092  0.1213
   21loPI   C2A  328  11.665  19.484   9.568  0.3387  0.3335 -0.0204
   21loPI   C3A  329  11.611  19.474   9.128  0.0022 -0.0720 -0.1874
   21loPI   C4A  330  11.617  19.472   8.684 -0.3137  0.0421  0.1801
   21loPI   C5A  331  11.715  19.351   8.278 -0.4120  0.0596 -0.2124
   21loPI   C6A  332  11.571  19.020   8.001  0.2373 -0.2047  0.1249
   21loPI   C1B  333  11.232  19.227   9.462 -0.2256 -0.0926 -0.0990
   21loPI   C2B  334  11.186  19.197   9.010  0.2138  0.0847  0.0788
   21loPI   C3B  335  11.024  19.165   8.699  0.3665 -0.1121  0.0990
   21loPI   C4B  336  11.246  19.141   8.383 -0.0125 -0.0524 -0.0632
   22loPI    C1  337  12.440   6.756  10.284 -0.1756 -0.0074 -0.0535
   22loPI    C2  338  12.389   6.797  10.679 -0.0573  0.0620 -0.0451
   22loPI    C3  339  12.456   7.120  10.451 -0.1617  0.0261 -0.1274
   22loPI   PO4  340  12.732   6.630  10.284 -0.1410  0.3793  0.1820
   22loPI   GL1  341  12.923   6.709   9.876 -0.1287 -0.1939  0.2361
   22loPI   GL2  342  13.175   6.561   9.670 -0.2692 -0.0555 -0.0359
   22loPI   C1A  343  12.729   6.584   9.503 -0.0358  0.1996  0.1934
   22loPI   C2A  344  12.696   6.612   8.994  0.2210 -0.2571  0.2630
   22loPI   C3A  345  12.780   6.698   8.533 -0.2890 -0.1423 -0.0561
   22loPI   C4A  346  12.743   6.547   8.235  0.0685  0.3044  0.0970
   22loPI   C5A  347  12.654   6.499   7.818  0.1563 -0.1088 -0.0526
   22loPI   C6A  348  12.800   6.753   7.548  0.1948 -0.0340 -0.0367
   22loPI   C1B  349  13.174   6.572   9.321 -0.2683  0.1152  0.0994
   22loPI   C2B  350  13.275   6.670   8.867  0.1058 -0.2539 -0.0589
   22loPI   C3B  351  13.394   6.703   8.436 -0.0776  0.0804 -0.1317
   22loPI   C4B  352  13.599   6.834   8.139  0.1600  0.1937 -0.2400
   23loPI    C1  353   5.260   8.922  10.566  0.1865  0.0196 -0.1111
   23loPI    C2  354   5.362   9.272  10.730  0.0928 -0.0042 -0.0011
   23loPI    C3  355   5.121   9.021  10.927  0.0408 -0.0665 -0.1428
   23loPI   PO4  356   5.197   8.957  10.289  0.2809 -0.0877  0.0594
   23loPI   GL1  357   5.316   9.006   9.862 -0.0597 -0.0568 -0.1292
   23loPI   GL2  358   5.175   8.783   9.704 -0.1530 -0.0075  0.2098
   23loPI   C1A  359   5.362   9.107   9.390  0.4479  0.0742 -0.3649
   23loPI   C2A  360   5.308   9.234   8.978 -0.3542 -0.1932  0.0681
   23loPI   C3A  361   5.368   9.426   8.581 -0.1621  0.1663  0.0388
   23loPI   C4A  362   5.208   9.298   8.148  0.0196 -0.0293  0.0006
   23loPI   C5A  363   4.984   9.104   7.815  0.1650  0.0595  0.1427
   23loPI   C6A  364   4.624   8.806   7.903 -0.2312  0.1807  0.3532
   23loPI   C1B  365   5.002   8.733   9.253 -0.2732  0.1221 -0.1207
   23loPI   C2B  366   4.955   8.829   8.803  0.0582  0.1569  0.1278
   23loPI   C3B  367   5.137   8.931   8.437  0.1730 -0.1004 -0.0571
   23loPI   C4B  368   5.140   8.678   8.001  0.6744  0.0554 -0.1134
   24loPI    C1  369   6.483   3.368  10.970 -0.2246 -0.0864 -0.1834
   24loPI    C2  370   6.531   2.989  11.086  0.0637  0.0509  0.1668
   24loPI    C3  371   6.225   3.204  11.228 -0.0130 -0.0043  0.0860
   24loPI   PO4  372   6.525   3.282  10.625  0.1344 -0.1374  0.0412
   24loPI   GL1  373   6.879   3.217  10.331  0.1358  0.4402  0.0025
   24loPI   GL2  374   6.689   2.913  10.249 -0.0178 -0.2462 -0.2490
   24loPI   C1A  375   6.794   3.240   9.882 -0.2432 -0.1399 -0.2315
   24loPI   C2A  376   6.770   3.251   9.453  0.0727 -0.0092 -0.0215
   24loPI   C3A  377   6.783   3.234   9.113 -0.0600 -0.0111  0.1946
   24loPI   C4A  378   6.737   3.297   8.657  0.4200 -0.1322  0.3550
   24loPI   C5A  379   6.868   3.151   8.262 -0.2164  0.0759  0.1986
   24loPI   C6A  380   6.705   2.926   7.889 -0.3356  0.1585 -0.0747
   24loPI   C1B  381   6.312   3.044  10.026 -0.3224  0.3313 -0.5007
   24loPI   C2B  382   6.328   3.016   9.547  0.3011 -0.1619 -0.1689
   24loPI   C3B  383   6.375   2.956   9.145 -0.3239 -0.3286  0.2870
   24loPI   C4B  384   6.337   2.939   8.673 -0.3016  0.1289 -0.3323
   25loPI    C1  385  10.998   3.372  10.763 -0.0780  0.0324  0.0500
   25loPI    C2  386  11.300   3.301  11.016  0.0026  0.1587 -0.0098
   25loPI    C3  387  11.025   3.578  11.106 -0.0521  0.0987  0.0083
   25loPI   PO4  388  10.999   3.107  10.565 -0.0767  0.0485 -0.0598
   25loPI   GL1  389  11.260   3.048  10.220  0.2911  0.2019 -0.1354
   25loPI   GL2  390  11.223   3.356  10.125 -0.1140 -0.2100  0.2166
   25loPI   C1A  391  10.975   3.067   9.821 -0.1464  0.2643 -0.2539
   25loPI   C2A  392  10.842   2.910   9.378  0.1579 -0.0145 -0.2853
   25loPI   C3A  393  10.923   2.849   8.897  0.1663 -0.2017 -0.0297
   25loPI   C4A  394  10.938   3.026   8.421  0.2998  0.0464 -0.1003
   25loPI   C5A  395  10.773   2.865   8.117 -0.0456 -0.2320  0.1462
   25loPI   C6A  396  10.665   2.632   7.694 -0.0469  0.1961 -0.1948
   25loPI   C1B  397  10.994   3.535   9.781 -0.2426 -0.2842  0.2773
   25loPI   C2B  398  10.821   3.413   9.417 -0.0434  0.1289  0.0824
   25loPI   C3B  399  10.841   3.352   8.997  0.0113  0.0610  0.2691
   25loPI   C4B  400  10.935   3.485   8.616  0.0038 -0.0735 -0.0760
   26loPI    C1  401  15.305  12.937  10.203 -0.3483  0.0010 -0.1735
   26loPI    C2  402  15.136  13.274  10.337 -0.0387  0.1579 -0.1684
   26loPI    C3  403  15.226  12.980  10.593 -0.1452  0.1436 -0.1468
   26loPI   PO4  404  15.229  12.871   9.964 -0.1121  0.0674  0.3520
   26loPI   GL1  405  15.088  12.640   9.423 -0.1381  0.0917  0.2164
   26loPI   GL2  406  15.013  12.499   9.205  0.0628  0.2023  0.0652
   26loPI   C1A  407  15.227  13.010   9.267  0.0095 -0.1839 -0.2924
   26loPI   C2A  408  15.491  12.879   9.064  0.1032 -0.0812 -0.0940
   26loPI   C3A  409  15.730  12.745   8.734 -0.2283 -0.2564  0.5079
   26loPI   C4A  410  16.085  12.544   8.537 -0.2470 -0.3297 -0.2897
   26loPI   C5A  411  16.289  12.272   8.348  0.0265 -0.1665 -0.3119
   26loPI   C6A  412  16.588  12.055   8.459  0.3528  0.1390 -0.0261
   26loPI   C1B  413  14.970  12.651   8.749  0.0944  0.4233  0.1644
   26loPI   C2B  414  15.135  12.575   8.395  0.0079  0.2566  0.3174
   26loPI   C3B  415  15.282  12.332   8.070 -0.1005  0.0443  0.0545
   26loPI   C4B  416  15.586  12.375   7.778  0.1399 -0.0564  0.3148
   27loPI    C1  417   1.881  11.844  10.162 -0.1368  0.1312  0.1526
   27loPI    C2  418   1.535  11.766  10.346 -0.1425 -0.0131  0.0822
   27loPI    C3  419   1.686  12.136  10.353 -0.2653  0.0361  0.1681
   27loPI   PO4  420   1.839  11.817   9.875  0.2013  0.2549 -0.0212
   27loPI   GL1  421   1.676  11.443   9.611 -0.2728 -0.3448 -0.0553
   27loPI   GL2  422   1.811  11.172   9.571  0.0513  0.1329  0.1366
   27loPI   C1A  423   1.893  11.301   9.144  0.1621 -0.2169 -0.0287
   27loPI   C2A  424   1.936  10.981   8.845 -0.3876 -0.1405  0.2882
   27loPI   C3A  425   2.228  10.839   8.503 -0.1074  0.2200  0.1126
   27loPI   C4A  426   2.277  10.933   8.091 -0.4820  0.0100  0.1938
   27loPI   C5A  427   2.611  10.979   7.891 -0.0803  0.0177 -0.0388
   27loPI   C6A  428   2.822  11.161   7.627 -0.1726 -0.0042  0.1162
   27loPI   C1B  429   1.958  10.825   9.342 -0.0677  0.2329 -0.0514
   27loPI   C2B  430   2.057  10.563   8.997 -0.2035  0.2039  0.1419
   27loPI   C3B  431   1.950  10.479   8.576 -0.1761  0.2217  0.1404
   27loPI   C4B  432   2.044  10.368   8.208  0.3497 -0.1901  0.1481
   28loPI    C1  433   8.054   8.042  10.829  0.1380 -0.0858 -0.0335
   28loPI    C2  434   7.669   8.046  10.720  0.0844  0.0635  0.1551
   28loPI    C3  435   7.884   8.384  10.711  0.2177 -0.0232  0.0316
   28loPI   PO4  436   8.201   7.894  10.671 -0.1448  0.0053 -0.0321
   28loPI   GL1  437   7.962   7.925  10.271 -0.2865 -0.1109  0.0172
   28loPI   GL2  438   7.739   7.759  10.296 -0.0371 -0.4131  0.0978
   28loPI   C1A  439   7.984   7.830   9.817 -0.0904 -0.2242  0.1218
   28loPI   C2A  440   8.015   7.558   9.461  0.0216 -0.2787 -0.0536
   28loPI   C3A  441   8.011   7.615   9.018  0.1111 -0.4709 -0.0152
   28loPI   C4A  442   8.101   7.820   8.587  0.0027 -0.1690  0.0122
   28loPI   C5A  443   8.233   7.649   8.170  0.0820  0.2563  0.1452
   28loPI   C6A  444   8.289   7.896   7.814  0.1587  0.0399 -0.0078
   28loPI   C1B  445   7.504   7.720   9.982  0.0692  0.2373 -0.0413
   28loPI   C2B  446   7.489   7.943   9.637 -0.3416  0.0660  0.0576
   28loPI   C3B  447   7.430   8.342   9.427  0.0042 -0.0156  0.0990
   28loPI   C4B  448   7.390   8.688   9.223  0.0386  0.3666  0.2673
   29loPI    C1  449   6.057  13.232  10.289 -0.0967  0.1006 -0.1133
   29loPI    C2  450   5.794  13.002  10.095  0.1002 -0.1149 -0.1291
   29loPI    C3  451   5.830  12.973  10.492 -0.0544  0.0738 -0.1001
   29loPI   PO4  452   6.251  13.226  10.129  0.2989  0.0697 -0.1125
   29loPI   GL1  453   6.136  13.054   9.758 -0.1210 -0.0377 -0.0304
   29loPI   GL2  454   6.423  13.078   9.695  0.0244  0.1186 -0.0250
   29loPI   C1A  455   5.812  13.214   9.365 -0.1033  0.0932  0.0283
   29loPI   C2A  456   5.851  13.317   8.940 -0.1855  0.4070  0.0441
   29loPI   C3A  457   5.928  13.376   8.437 -0.0633  0.2500  0.1029
   29loPI   C4A  458   6.112  13.276   8.126  0.0203 -0.1407  0.1104
   29loPI   C5A  459   6.147  13.528   7.689 -0.1527  0.1527 -0.1361
   29loPI   C6A  460   6.226  13.705   7.268  0.0086  0.1291 -0.2149
   29loPI   C1B  461   6.273  13.368   9.339  0.1300 -0.1469  0.2983
   29loPI   C2B  462   6.393  13.483   8.951  0.1819  0.1060  0.1702
   29loPI   C3B  463   6.494  13.566   8.559 -0.0045 -0.0388  0.0742
   29loPI   C4B  464   6.540  13.537   8.088 -0.0107 -0.3202 -0.1127
   30loPI    C1  465   4.011  14.456  10.314  0.0829  0.1090  0.0422
   30loPI    C2  466   3.998  14.823  10.157  0.2164  0.2153  0.2747
   30loPI    C3  467   3.722  14.709  10.423  0.1208  0.1133  0.1337
   30loPI   PO4  468   4.206  14.375  10.147 -0.1263 -0.4821 -0.3818
   30loPI   GL1  469   4.120  14.446   9.693  0.0343  0.2205  0.0861
   30loPI   GL2  470   4.460  14.565   9.788  0.0788 -0.2733 -0.2547
   30loPI   C1A  471   3.722  14.582   9.489  0.0565 -0.2126 -0.0460
   30loPI   C2A  472   3.734  14.500   8.911  0.0337 -0.3823  0.1891
   30loPI   C3A  473   3.734  14.509   8.394  0.2540  0.2939  0.0031
   30loPI   C4A  474   3.403  14.686   8.176  0.0987  0.1758  0.0992
   30loPI   C5A  475   3.304  14.944   7.822 -0.1083 -0.3069  0.1399
   30loPI   C6A  476   3.270  15.362   7.750  0.0957  0.2495  0.0976
   30loPI   C1B  477   4.639  14.373   9.410  0.1382 -0.1670  0.0005
   30loPI   C2B  478   4.631  14.189   9.005  0.1528  0.0158  0.1972
   30loPI   C3B  479   4.646  14.208   8.528 -0.0114 -0.0492 -0.0736
   30loPI   C4B  480   4.788  14.292   8.120 -0.0546  0.0350  0.2496
   31loPI    C1  481  12.947   9.990   9.990 -0.0549  0.0184 -0.1510
   31loPI    C2  482  12.597  10.147  10.105 -0.0289  0.1395 -0.2351
   31loPI    C3  483  12.931  10.228  10.311 -0.0773 -0.1166 -0.0516
   31loPI   PO4  484  12.856   9.760   9.865 -0.1254  0.1375  0.2088
   31loPI   GL1  485  12.835   9.662   9.458 -0.0899 -0.1421 -0.0613
   31loPI   GL2  486  12.529   9.811   9.413  0.1726  0.0850  0.2881
   31loPI   C1A  487  12.935   9.924   9.164 -0.0663 -0.0347  0.1144
   31loPI   C2A  488  12.855  10.163   8.699 -0.0652  0.2601  0.0022
   31loPI   C3A  489  12.946  10.126   8.330 -0.0976 -0.0789 -0.0211
   31loPI   C4A  490  13.176   9.935   7.998 -0.1035 -0.0145 -0.0505
   31loPI   C5A  491  13.142   9.824   7.552 -0.3262  0.0518  0.1149
   31loPI   C6A  492  13.169   9.537   7.222  0.0160 -0.2252  0.0014
   31loPI   C1B  493  12.234   9.816   9.188 -0.0004  0.0870  0.0827
   31loPI   C2B  494  12.123   9.723   8.724 -0.0209 -0.1157 -0.3473
   31loPI   C3B  495  11.954   9.719   8.277 -0.0190  0.1341 -0.2275
   31loPI   C4B  496  12.086   9.528   7.875  0.1211  0.2805  0.0844
   32loPI    C1  497   4.110  16.151  10.517  0.2279  0.2713  0.0759
   32loPI    C2  498   3.977  15.946  10.833 -0.2651  0.2447 -0.1404
   32loPI    C3  499   4.214  16.264  10.886 -0.1162  0.0769  0.2365
   32loPI   PO4  500   4.209  16.047  10.240 -0.1972 -0.0323  0.3413
   32loPI   GL1  501   4.264  16.237   9.777 -0.2935 -0.0130 -0.0570
   32loPI   GL2  502   4.436  15.990   9.824  0.0978  0.0908  0.0041
   32loPI   C1A  503   4.526  16.272   9.436  0.0285 -0.1721 -0.0641
   32loPI   C2A  504   4.707  16.260   8.953  0.0806  0.1374  0.1549
   32loPI   C3A  505   4.815  16.277   8.543  0.2602  0.0650 -0.0381
   32loPI   C4A  506   4.893  16.284   8.095 -0.0660 -0.1275 -0.0911
   32loPI   C5A  507   4.919  16.028   7.623 -0.4190 -0.2157 -0.0345
   32loPI   C6A  508   5.047  15.707   7.347  0.0740  0.1858 -0.0398
   32loPI   C1B  509   4.661  15.797   9.517  0.0860  0.0804  0.1661
   32loPI   C2B  510   4.648  15.724   9.100 -0.0415 -0.1768  0.1610
   32loPI   C3B  511   4.818  15.750   8.709  0.1521  0.0942  0.0276
   32loPI   C4B  512   4.789  15.813   8.303  0.3423  0.0473 -0.2947
   33loPI    C1  513  12.576   1.288  10.603  0.0224  0.0131 -0.1604
   33loPI    C2  514  12.635   1.679  10.544 -0.2264  0.0674 -0.0618
   33loPI    C3  515  12.320   1.555  10.757 -0.0661 -0.1808  0.0337
   33loPI   PO4  516  12.615   1.211  10.305  0.1537  0.1044  0.3505
   33loPI   GL1  517  12.391   1.057   9.904 -0.2949  0.1484 -0.2538
   33loPI   GL2  518  12.077   0.961   9.943  0.0491  0.2208  0.0325
   33loPI   C1A  519  12.579   0.757   9.561  0.2455 -0.0400 -0.0248
   33loPI   C2A  520  12.590   0.681   9.151  0.1299 -0.1596  0.2737
   33loPI   C3A  521  12.598   0.643   8.761  0.1393 -0.0733 -0.1452
   33loPI   C4A  522  12.530   0.695   8.321 -0.3935 -0.1809  0.3096
   33loPI   C5A  523  12.221   0.645   7.989 -0.2198  0.4028 -0.3651
   33loPI   C6A  524  12.222   0.489   7.540 -0.0688  0.1095 -0.3645
   33loPI   C1B  525  12.027   1.039   9.622  0.2300 -0.1707 -0.0773
   33loPI   C2B  526  12.094   1.002   9.281 -0.1011  0.0863 -0.2897
   33loPI   C3B  527  12.080   0.866   8.798  0.0645  0.1667 -0.2141
   33loPI   C4B  528  12.084   0.854   8.388  0.1644 -0.2332  0.0071
   34loPI    C1  529   2.601  14.742  10.107  0.1324  0.0820 -0.1496
   34loPI    C2  530   2.329  14.719  10.400  0.1058 -0.1662 -0.1919
   34loPI    C3  531   2.715  14.650  10.479  0.1544  0.1511 -0.1391
   34loPI   PO4  532   2.495  14.692   9.884 -0.2216  0.1520  0.0115
   34loPI   GL1  533   2.416  14.512   9.464  0.0915 -0.2867 -0.1356
   34loPI   GL2  534   2.729  14.426   9.287  0.1808  0.2198 -0.0853
   34loPI   C1A  535   2.192  14.721   9.120 -0.1069 -0.0540 -0.2198
   34loPI   C2A  536   2.135  15.181   8.992  0.1666  0.2689  0.0367
   34loPI   C3A  537   2.373  15.566   8.682 -0.1271 -0.2314 -0.1135
   34loPI   C4A  538   2.418  15.781   8.304  0.4019 -0.0414  0.2186
   34loPI   C5A  539   2.647  16.038   7.889  0.1637  0.0220 -0.1871
   34loPI   C6A  540   2.801  16.374   7.528 -0.1411  0.0039  0.0243
   34loPI   C1B  541   2.660  14.516   8.822 -0.2185  0.0068  0.0338
   34loPI   C2B  542   2.664  14.489   8.304 -0.2530  0.3183  0.0084
   34loPI   C3B  543   2.740  14.369   7.846  0.1233 -0.1069 -0.0988
   34loPI   C4B  544   2.921  14.085   7.646 -0.3910 -0.3173 -0.3158
   35loPI    C1  545  17.425   5.161  10.175  0.0904 -0.0477 -0.0924
   35loPI    C2  546  17.629   4.823  10.112  0.0023 -0.1476  0.1465
   35loPI    C3  547  17.723   5.058  10.422 -0.0387 -0.0320  0.0717
   35loPI   PO4  548  17.403   5.240   9.969  0.1533 -0.1007  0.0824
   35loPI   GL1  549  17.296   5.141   9.509  0.0492 -0.2695  0.0582
   35loPI   GL2  550  17.104   4.912   9.294  0.2469  0.0631  0.3834
   35loPI   C1A  551  17.536   5.494   9.279 -0.2964  0.0591  0.0357
   35loPI   C2A  552  17.627   5.706   8.946 -0.0561  0.0863  0.2739
   35loPI   C3A  553  17.835   5.717   8.578 -0.2741  0.0284 -0.1339
   35loPI   C4A  554  17.837   5.885   8.160 -0.0645  0.1855 -0.0361
   35loPI   C5A  555  17.488   5.927   7.759  0.0981 -0.0341  0.2440
   35loPI   C6A  556  17.168   5.841   7.451 -0.1980 -0.0613 -0.0270
   35loPI   C1B  557  17.172   4.836   8.810 -0.0126 -0.2915  0.4027
   35loPI   C2B  558  17.383   4.935   8.413  0.1563 -0.4679  0.0396
   35loPI   C3B  559  17.550   4.599   8.118  0.1845  0.1690 -0.1024
   35loPI   C4B  560  17.456   4.326   7.801 -0.1583  0.1049 -0.0563
   36loPI    C1  561  14.470   9.084  10.139 -0.0132  0.0027 -0.0698
   36loPI    C2  562  14.393   8.693  10.167  0.1645 -0.0154  0.1927
   36loPI    C3  563  14.520   8.896  10.488 -0.0014  0.2750  0.0781
   36loPI   PO4  564  14.296   9.207  10.084 -0.0333  0.1208 -0.0538
   36loPI   GL1  565  14.136   9.327   9.700  0.0334  0.0805  0.1793
   36loPI   GL2  566  13.965   9.181   9.524 -0.0239 -0.0417 -0.0425
   36loPI   C1A  567  14.488   9.337   9.377  0.0176  0.4346 -0.2965
   36loPI   C2A  568  14.544   9.388   8.895  0.1607  0.0829  0.2652
   36loPI   C3A  569  14.609   9.384   8.395 -0.0165  0.1978 -0.0031
   36loPI   C4A  570  14.588   9.192   7.995  0.0069  0.1206 -0.1676
   36loPI   C5A  571  14.289   9.157   7.811 -0.2868  0.1362  0.2144
   36loPI   C6A  572  14.030   9.318   7.588  0.1169  0.2936 -0.1564
   36loPI   C1B  573  13.790   9.206   9.250  0.3061 -0.2208 -0.1105
   36loPI   C2B  574  13.807   9.089   8.842 -0.1138 -0.1341  0.1702
   36loPI   C3B  575  13.789   9.038   8.453  0.1944  0.0098 -0.1597
   36loPI   C4B  576  13.819   8.939   7.985  0.2270  0.2933  0.1305
   37loPI    C1  577   4.460   1.173  10.466 -0.0081 -0.0306  0.0283
   37loPI    C2  578   4.243   1.038  10.774 -0.2494 -0.0156 -0.1321
   37loPI    C3  579   4.634   0.955  10.753 -0.2336 -0.0282  0.1691
   37loPI   PO4  580   4.365   1.196  10.204  0.2079  0.2888 -0.0590
   37loPI   GL1  581   4.225   1.376   9.843  0.0572  0.2368 -0.0459
   37loPI   GL2  582   4.098   1.262   9.613  0.2530 -0.2259 -0.2410
   37loPI   C1A  583   4.537   1.400   9.477  0.1668 -0.1142 -0.2532
   37loPI   C2A  584   4.528   1.409   8.995 -0.6124 -0.0809  0.1199
   37loPI   C3A  585   4.493   1.274   8.568  0.0384 -0.0435 -0.2310
   37loPI   C4A  586   4.442   1.391   8.190 -0.1091  0.1919 -0.2283
   37loPI   C5A  587   4.564   1.372   7.705  0.2403 -0.0026 -0.1891
   37loPI   C6A  588   4.604   1.575   7.260  0.3941 -0.2398 -0.0628
   37loPI   C1B  589   4.159   1.177   9.236 -0.1392  0.2659  0.3692
   37loPI   C2B  590   4.028   1.044   8.806  0.1205 -0.1329 -0.0351
   37loPI   C3B  591   4.026   1.063   8.408 -0.1196 -0.0449  0.0018
   37loPI   C4B  592   3.970   1.096   7.944  0.1444 -0.1737 -0.2455
   38loPI    C1  593   3.568  16.036  10.367  0.0382  0.2641 -0.1116
   38loPI    C2  594   3.283  16.240  10.559 -0.0050  0.0200  0.0897
   38loPI    C3  595   3.659  16.245  10.695 -0.0200 -0.0898  0.1354
   38loPI   PO4  596   3.424  16.088  10.055 -0.2527  0.1658 -0.2567
   38loPI   GL1  597   3.432  16.026   9.698  0.0123  0.2409  0.1132
   38loPI   GL2  598   3.692  16.169   9.609 -0.1380 -0.0986  0.4126
   38loPI   C1A  599   3.284  15.835   9.379 -0.1309  0.1146 -0.0370
   38loPI   C2A  600   3.468  15.889   9.024 -0.1179 -0.1353 -0.2688
   38loPI   C3A  601   3.751  15.846   8.559 -0.2382  0.1576 -0.0414
   38loPI   C4A  602   3.967  15.823   8.153  0.3861  0.1174 -0.0219
   38loPI   C5A  603   4.097  15.589   7.772 -0.2462  0.3192  0.3334
   38loPI   C6A  604   4.382  15.818   7.500  0.3399 -0.0120  0.2129
   38loPI   C1B  605   3.808  16.219   9.154 -0.0222 -0.0560 -0.4510
   38loPI   C2B  606   3.806  16.281   8.692  0.0409 -0.0974  0.1533
   38loPI   C3B  607   3.933  16.335   8.253 -0.0050  0.0922  0.3085
   38loPI   C4B  608   3.881  16.278   7.844  0.3102 -0.3057  0.0864
   39loPI    C1  609  18.330  18.214   9.975  0.1781  0.1687  0.0434
   39loPI    C2  610  18.104  18.491  10.153 -0.0863 -0.0396  0.0387
   39loPI    C3  611  18.416  18.334  10.347 -0.1728 -0.0248  0.1919
   39loPI   PO4  612  18.386  18.347   9.714 -0.0637 -0.2764 -0.2189
   39loPI   GL1  613  18.331  18.274   9.347  0.1482  0.2875  0.1143
   39loPI   GL2  614  18.283  18.520   9.236  0.0074 -0.0623 -0.0991
   39loPI   C1A  615  18.500  18.174   8.923  0.2970  0.0807  0.1382
   39loPI   C2A  616  18.555  18.119   8.465  0.0928  0.0723 -0.1565
   39loPI   C3A  617  18.776  18.123   8.125 -0.1510  0.0035 -0.1201
   39loPI   C4A  618  19.151  18.103   7.879 -0.1182 -0.0074  0.0913
   39loPI   C5A  619  19.303  17.846   7.539 -0.1896 -0.0947  0.3614
   39loPI   C6A  620  19.708  17.707   7.287  0.1441 -0.0986  0.1678
   39loPI   C1B  621  18.104  18.850   9.012  0.2619  0.0750  0.1893
   39loPI   C2B  622  18.231  18.961   8.588  0.1308 -0.0389  0.2062
   39loPI   C3B  623  18.244  19.069   8.155  0.1539  0.2257  0.2011
   39loPI   C4B  624  18.423  19.448   7.952 -0.3552  0.0469 -0.1509
   40loPI    C1  625   9.897   0.362  10.415 -0.1712 -0.1260  0.3036
   40loPI    C2  626   9.709   0.049  10.252 -0.0926 -0.0024 -0.0321
   40loPI    C3  627  10.087   0.013  10.377 -0.1873 -0.1264  0.2249
   40loPI   PO4  628   9.688   0.539  10.563 -0.1387  0.2424 -0.3688
   40loPI   GL1  629   9.359   0.730  10.353  0.0758 -0.2307  0.0719
   40loPI   GL2  630   9.295   0.389  10.242  0.1901 -0.1547 -0.1728
   40loPI   C1A  631   9.328   1.115  10.197  0.3129 -0.2732 -0.2336
   40loPI   C2A  632   9.395   1.125   9.829  0.0595 -0.2765 -0.1650
   40loPI   C3A  633   9.370   1.196   9.364  0.1399 -0.1328  0.0542
   40loPI   C4A  634   9.287   1.201   9.001 -0.1698 -0.0410  0.2562
   40loPI   C5A  635   9.233   1.174   8.535  0.1675 -0.2254 -0.0793
   40loPI   C6A  636   9.046   1.018   8.159  0.1707 -0.2292 -0.0962
   40loPI   C1B  637   9.509   0.454   9.937  0.1328 -0.1687  0.0380
   40loPI   C2B  638   9.535   0.485   9.556 -0.0154 -0.0663  0.2659
   40loPI   C3B  639   9.347   0.579   9.132  0.2963 -0.0732  0.2099
   40loPI   C4B  640   9.350   0.693   8.616 -0.0622 -0.1449  0.1910
   41loPI    C1  641   1.290  11.172  10.277 -0.0345  0.0758  0.1300
   41loPI    C2  642   1.576  10.921  10.401  0.1974  0.2767  0.0097
   41loPI    C3  643   1.473  11.235  10.627  0.0666  0.2014  0.0556
   41loPI   PO4  644   1.379  11.175   9.932  0.1080  0.0771 -0.1323
   41loPI   GL1  645   1.082  11.192   9.567  0.0784  0.0262 -0.1244
   41loPI   GL2  646   0.947  10.919   9.423 -0.0503  0.1894 -0.0777
   41loPI   C1A  647   1.352  11.209   9.165 -0.3201 -0.2497  0.0027
   41loPI   C2A  648   1.477  11.132   8.762 -0.0733 -0.0753 -0.1430
   41loPI   C3A  649   1.674  11.101   8.391 -0.0034 -0.0387 -0.0430
   41loPI   C4A  650   1.742  10.749   8.109 -0.0590 -0.0696  0.0467
   41loPI   C5A  651   1.817  10.567   7.677 -0.0113  0.0665  0.0018
   41loPI   C6A  652   1.702  10.242   7.343  0.4743 -0.3009 -0.1198
   41loPI   C1B  653   1.033  10.867   8.989 -0.5089  0.0764 -0.0168
   41loPI   C2B  654   0.933  10.778   8.547 -0.3895 -0.1435  0.1529
   41loPI   C3B  655   0.580  10.518   8.336  0.1765 -0.4777  0.2137
   41loPI   C4B  656   0.225  10.350   8.118  0.1352  0.0552  0.0352
   42loPI    C1  657  11.611   0.902  10.470 -0.1046  0.1236 -0.0845
   42loPI    C2  658  11.444   0.542  10.419  0.0465  0.0512 -0.0765
   42loPI    C3  659  11.229   0.842  10.573 -0.0713 -0.0437 -0.0539
   42loPI   PO4  660  11.742   1.007  10.260  0.0966  0.2343  0.0805
   42loPI   GL1  661  11.748   1.343   9.963 -0.1907  0.5186  0.2594
   42loPI   GL2  662  11.553   1.154   9.810  0.3438  0.1972 -0.1566
   42loPI   C1A  663  11.638   1.600   9.704 -0.1095  0.2181 -0.1069
   42loPI   C2A  664  11.525   1.668   9.388  0.1019 -0.0557 -0.0662
   42loPI   C3A  665  11.547   1.764   8.984 -0.1150 -0.4385 -0.3744
   42loPI   C4A  666  11.533   1.651   8.514 -0.1745 -0.2491 -0.1462
   42loPI   C5A  667  11.538   1.590   8.062 -0.1478  0.0881  0.0899
   42loPI   C6A  668  11.278   1.657   7.617 -0.0714  0.2854 -0.1743
   42loPI   C1B  669  11.556   1.114   9.362  0.1718 -0.1648 -0.1930
   42loPI   C2B  670  11.548   1.211   9.005  0.0522 -0.0117  0.0327
   42loPI   C3B  671  11.611   1.151   8.637  0.2466  0.3202  0.1779
   42loPI   C4B  672  11.511   1.010   8.248  0.2582 -0.1325 -0.0486
   43loPI    C1  673  14.182   0.573  10.232 -0.0336 -0.0975  0.0822
   43loPI    C2  674  14.530   0.744  10.331  0.0914 -0.2901 -0.0213
   43loPI    C3  675  14.253   0.679  10.612  0.0376  0.0900  0.0177
   43loPI   PO4  676  14.076   0.776  10.003 -0.1758 -0.1781  0.1263
   43loPI   GL1  677  14.056   0.649   9.530 -0.0980 -0.0695  0.2050
   43loPI   GL2  678  14.389   0.469   9.417  0.3974  0.0572  0.2068
   43loPI   C1A  679  13.925   0.601   9.082 -0.0605 -0.0293 -0.0509
   43loPI   C2A  680  13.878   0.595   8.684 -0.1332  0.0742  0.0694
   43loPI   C3A  681  13.887   0.587   8.241  0.0217  0.0348  0.0498
   43loPI   C4A  682  13.790   0.509   7.766  0.1353 -0.1520 -0.0862
   43loPI   C5A  683  13.512   0.527   7.396 -0.1035 -0.0154  0.2506
   43loPI   C6A  684  13.451   0.399   7.002  0.1909 -0.1404 -0.0832
   43loPI   C1B  685  14.468   0.526   8.982  0.1473  0.1620  0.3082
   43loPI   C2B  686  14.371   0.411   8.580  0.1586 -0.0378  0.1041
   43loPI   C3B  687  14.529   0.463   8.201  0.3166 -0.1728  0.2893
   43loPI   C4B  688  14.819   0.313   7.956  0.0660  0.1987  0.2996
   44loPI    C1  689  15.190   8.008  10.064 -0.0106 -0.3237 -0.0634
   44loPI    C2  690  15.522   7.795  10.128  0.3179  0.1896 -0.0039
   44loPI    C3  691  15.548   8.168   9.986 -0.2338  0.2586  0.0561
   44loPI   PO4  692  15.020   7.907   9.890  0.1210 -0.0395  0.1924
   44loPI   GL1  693  14.902   7.951   9.437  0.1007  0.1168 -0.2030
   44loPI   GL2  694  14.666   7.967   9.188 -0.3578 -0.1309  0.0202
   44loPI   C1A  695  15.081   8.234   9.132  0.1573  0.1776 -0.0885
   44loPI   C2A  696  15.141   8.129   8.711 -0.2386 -0.1366  0.0783
   44loPI   C3A  697  15.235   8.154   8.256  0.1927  0.1123 -0.0932
   44loPI   C4A  698  15.388   8.021   7.885  0.0146  0.1564 -0.1569
   44loPI   C5A  699  15.334   7.704   7.500  0.4330 -0.3760  0.0440
   44loPI   C6A  700  15.051   7.402   7.479 -0.5123 -0.2019  0.1055
   44loPI   C1B  701  14.483   7.977   8.824  0.0149  0.0443 -0.1110
   44loPI   C2B  702  14.701   8.175   8.489  0.3367  0.1662 -0.0093
   44loPI   C3B  703  14.776   8.238   8.029 -0.1367  0.4178  0.2225
   44loPI   C4B  704  15.099   8.390   7.639  0.0087  0.1821 -0.0656
   45loPI    C1  705  11.163   5.419  10.431 -0.2081  0.0896  0.2647
   45loPI    C2  706  11.529   5.309  10.548 -0.1234 -0.0614 -0.1271
   45loPI    C3  707  11.208   5.185  10.752  0.0184 -0.3246 -0.0599
   45loPI   PO4  708  11.238   5.675  10.306 -0.1081 -0.0304 -0.1920
   45loPI   GL1  709  11.069   5.824   9.948  0.0610  0.2229 -0.0801
   45loPI   GL2  710  11.424   6.041   9.936  0.2499 -0.2576  0.0624
   45loPI   C1A  711  11.066   5.737   9.476  0.0014 -0.3153  0.4381
   45loPI   C2A  712  11.077   5.992   9.079 -0.2321  0.1567  0.1131
   45loPI   C3A  713  11.038   5.855   8.752 -0.0718 -0.2228 -0.3827
   45loPI   C4A  714  10.891   5.735   8.227 -0.1275 -0.0222 -0.3098
   45loPI   C5A  715  11.009   5.672   7.780  0.1377 -0.0266  0.4499
   45loPI   C6A  716  11.213   5.885   7.395  0.2180  0.0449 -0.0943
   45loPI   C1B  717  11.425   6.150   9.484 -0.2541 -0.3672 -0.0822
   45loPI   C2B  718  11.532   6.120   9.121  0.0181  0.0614 -0.2985
   45loPI   C3B  719  11.477   6.152   8.670 -0.1936  0.0216 -0.2164
   45loPI   C4B  720  11.265   6.069   8.338  0.0574 -0.1120  0.0055
   46loPI    C1  721   0.618  12.576  10.185  0.0792  0.1916  0.1641
   46loPI    C2  722   0.932  12.336  10.245 -0.0413 -0.0457 -0.1327
   46loPI    C3  723   0.839  12.615  10.516  0.3374 -0.0685  0.0259
   46loPI   PO4  724   0.626  12.566   9.884  0.0079  0.2596  0.1114
   46loPI   GL1  725   0.187  12.525   9.578 -0.4390  0.2535 -0.0351
   46loPI   GL2  726   0.012  12.370   9.322 -0.1702 -0.1621 -0.1274
   46loPI   C1A  727   0.555  12.472   9.230  0.1213  0.1178 -0.0466
   46loPI   C2A  728   0.858  12.483   8.844 -0.4249 -0.0070  0.1698
   46loPI   C3A  729   1.020  12.339   8.467 -0.2914 -0.1298 -0.0096
   46loPI   C4A  730   1.065  12.443   8.035 -0.0122 -0.2360 -0.3791
   46loPI   C5A  731   1.114  12.168   7.699 -0.4369  0.0865 -0.0537
   46loPI   C6A  732   1.011  11.760   7.478  0.1193 -0.0258  0.2188
   46loPI   C1B  733  -0.025  12.298   8.943 -0.1883 -0.2193 -0.2458
   46loPI   C2B  734   0.010  12.269   8.567  0.1414 -0.2029  0.0038
   46loPI   C3B  735   0.076  12.257   8.074 -0.2579  0.2320 -0.0165
   46loPI   C4B  736   0.062  12.270   7.647 -0.2389  0.1486 -0.0147
   47loPI    C1  737  13.016  15.153   9.920 -0.2790 -0.2198 -0.1504
   47loPI    C2  738  13.345  14.975  10.060 -0.1877 -0.0684 -0.1712
   47loPI    C3  739  13.080  15.133  10.314 -0.1673 -0.0539 -0.1590
   47loPI   PO4  740  13.013  14.983   9.640 -0.0276  0.0479  0.0882
   47loPI   GL1  741  13.089  14.772   9.297 -0.1047  0.1248  0.0758
   47loPI   GL2  742  13.267  15.070   9.227  0.0687 -0.4054 -0.3290
   47loPI   C1A  743  12.987  14.939   8.814  0.1056 -0.0503 -0.0411
   47loPI   C2A  744  13.005  14.727   8.462 -0.0776  0.0017 -0.0022
   47loPI   C3A  745  12.993  14.809   8.075 -0.1069  0.1980 -0.1830
   47loPI   C4A  746  13.035  14.673   7.689 -0.1629 -0.3793  0.1398
   47loPI   C5A  747  12.760  14.548   7.368  0.0398 -0.1578 -0.0278
   47loPI   C6A  748  12.596  14.106   7.161 -0.0860 -0.0727 -0.3263
   47loPI   C1B  749  13.347  15.330   8.913 -0.1113 -0.0263 -0.0948
   47loPI   C2B  750  13.459  15.507   8.584  0.1757 -0.3099  0.3656
   47loPI   C3B  751  13.512  15.633   8.189 -0.1463  0.1013 -0.1457
   47loPI   C4B  752  13.705  15.518   7.796  0.1206  0.3051 -0.2421
   48loPI    C1  753  13.823   3.423  10.093 -0.1713 -0.1088  0.1025
   48loPI    C2  754  13.676   3.227  10.409  0.0103  0.1710  0.3665
   48loPI    C3  755  14.026   3.418  10.437  0.1078  0.0652 -0.0558
   48loPI   PO4  756  13.914   3.307   9.859  0.1859 -0.0849 -0.1782
   48loPI   GL1  757  14.211   3.170   9.468 -0.1441  0.1268 -0.0396
   48loPI   GL2  758  14.078   3.434   9.289  0.1494  0.3424 -0.0227
   48loPI   C1A  759  14.121   3.015   9.031 -0.2992  0.3517  0.2124
   48loPI   C2A  760  14.063   2.982   8.577  0.1963 -0.2282  0.2180
   48loPI   C3A  761  14.036   3.080   8.112  0.3289 -0.0670 -0.1082
   48loPI   C4A  762  13.854   2.930   7.786  0.1475  0.3240 -0.2517
   48loPI   C5A  763  13.912   2.839   7.346  0.1552  0.0248  0.2026
   48loPI   C6A  764  14.051   2.583   7.003  0.0393  0.3970 -0.3244
   48loPI   C1B  765  13.994   3.444   8.805 -0.0231  0.2202  0.1780
   48loPI   C2B  766  13.896   3.519   8.404 -0.2893  0.1215 -0.1743
   48loPI   C3B  767  13.892   3.654   7.948 -0.0201 -0.0428 -0.3551
   48loPI   C4B  768  13.848   3.864   7.525 -0.0196 -0.0918  0.0101
   49loPI    C1  769   2.017   5.868  10.343 -0.0675  0.0014  0.1135
   49loPI    C2  770   2.002   5.919   9.946  0.1205  0.0256  0.1089
   49loPI    C3  771   1.664   5.875  10.155  0.0165  0.0961 -0.0429
   49loPI   PO4  772   2.355   5.609  10.274  0.2613  0.0559 -0.0292
   49loPI   GL1  773   2.383   5.348   9.967  0.1439 -0.0629  0.1447
   49loPI   GL2  774   2.382   5.000   9.936  0.1922  0.1653 -0.0196
   49loPI   C1A  775   2.312   5.419   9.558 -0.1772 -0.2471 -0.0178
   49loPI   C2A  776   2.227   5.363   9.103  0.0918  0.0662  0.0136
   49loPI   C3A  777   2.331   5.403   8.702 -0.0327 -0.1221 -0.1159
   49loPI   C4A  778   2.383   5.388   8.315 -0.1468  0.0861 -0.0544
   49loPI   C5A  779   2.794   5.487   8.054 -0.2041  0.4740 -0.2530
   49loPI   C6A  780   2.996   5.766   7.819  0.1616 -0.0010 -0.3298
   49loPI   C1B  781   2.486   4.882   9.506 -0.0433 -0.0134  0.0376
   49loPI   C2B  782   2.297   4.885   9.139  0.2052 -0.2502  0.1391
   49loPI   C3B  783   2.234   4.863   8.664  0.0320 -0.0585 -0.4085
   49loPI   C4B  784   2.276   4.780   8.244  0.2027 -0.0289  0.0698
   50loPI    C1  785  16.548  11.303  10.138  0.0213 -0.1114  0.0323
   50loPI    C2  786  16.461  10.925  10.238 -0.2024 -0.0230  0.1791
   50loPI    C3  787  16.550  11.192  10.522  0.0601  0.0111  0.0678
   50loPI   PO4  788  16.764  11.239  10.016  0.1594 -0.2086  0.3047
   50loPI   GL1  789  16.929  11.246   9.679  0.1132 -0.3670 -0.0248
   50loPI   GL2  790  17.055  11.520   9.534 -0.0535 -0.0243  0.1951
   50loPI   C1A  791  16.696  11.144   9.328 -0.0436  0.0695  0.1443
   50loPI   C2A  792  16.640  10.985   8.950  0.1851  0.1135 -0.0593
   50loPI   C3A  793  16.568  11.039   8.455 -0.1380  0.0187  0.0786
   50loPI   C4A  794  16.785  10.935   8.158 -0.2293  0.2204  0.1695
   50loPI   C5A  795  17.060  10.777   7.783  0.0477 -0.1354  0.2433
   50loPI   C6A  796  17.110  11.165   7.468 -0.0357  0.3321  0.1940
   50loPI   C1B  797  17.257  11.666   9.128  0.0177 -0.1271  0.1166
   50loPI   C2B  798  17.348  11.700   8.757  0.0346  0.2068  0.1650
   50loPI   C3B  799  17.191  11.904   8.465 -0.1476 -0.5030  0.0837
   50loPI   C4B  800  16.941  11.835   8.139 -0.1277  0.4038  0.0676
   51loPI    C1  801  17.954   3.514   9.645 -0.0367  0.1920  0.0186
   51loPI    C2  802  18.163   3.214   9.482  0.0176  0.3489 -0.2050
   51loPI    C3  803  17.918   3.143   9.790  0.3042  0.1400 -0.0199
   51loPI   PO4  804  17.909   3.634   9.487 -0.1712 -0.6314 -0.0090
   51loPI   GL1  805  18.134   3.974   9.227 -0.2013  0.2067  0.2291
   51loPI   GL2  806  17.971   4.265   9.282 -0.0284 -0.1514 -0.0506
   51loPI   C1A  807  18.018   4.065   8.809  0.0518 -0.0483 -0.0454
   51loPI   C2A  808  17.585   4.125   8.567  0.3839  0.2896  0.2636
   51loPI   C3A  809  17.346   4.151   8.243 -0.2006 -0.2933  0.1980
   51loPI   C4A  810  17.335   3.839   7.847 -0.0278  0.2620 -0.2894
   51loPI   C5A  811  17.283   3.963   7.445 -0.3312  0.0564 -0.1617
   51loPI   C6A  812  17.284   3.975   7.038 -0.2360  0.0447 -0.0531
   51loPI   C1B  813  18.154   4.580   9.012 -0.1477 -0.0322  0.0300
   51loPI   C2B  814  18.463   4.523   8.555 -0.2368  0.3116 -0.1705
   51loPI   C3B  815  18.826   4.219   8.272  0.0435 -0.2283 -0.1510
   51loPI   C4B  816  18.885   4.103   7.827  0.0417  0.3419 -0.3046
   52loPI    C1  817  14.090  18.753  10.339  0.1570 -0.1532 -0.0652
   52loPI    C2  818  14.009  18.364  10.382 -0.1904 -0.1088 -0.2812
   52loPI    C3  819  13.781  18.637  10.564  0.2491 -0.0081  0.1396
   52loPI   PO4  820  14.061  18.767  10.041 -0.2755 -0.1245 -0.1633
   52loPI   GL1  821  13.855  18.869   9.706  0.1019  0.0324  0.2420
   52loPI   GL2  822  13.898  18.978   9.450 -0.0932 -0.2617  0.0274
   52loPI   C1A  823  13.516  18.704   9.358 -0.2310 -0.1340 -0.0727
   52loPI   C2A  824  13.520  18.590   8.919 -0.1194 -0.1375 -0.0142
   52loPI   C3A  825  13.563  18.586   8.457  0.1174 -0.1434  0.0172
   52loPI   C4A  826  13.626  18.478   8.000  0.0631 -0.0960 -0.0784
   52loPI   C5A  827  13.694  18.608   7.676 -0.1748 -0.2423 -0.2526
   52loPI   C6A  828  13.820  18.897   7.422 -0.2159 -0.1053  0.2862
   52loPI   C1B  829  14.148  18.970   8.954 -0.1531 -0.1449 -0.2611
   52loPI   C2B  830  13.969  18.930   8.564  0.2058 -0.3436 -0.2377
   52loPI   C3B  831  14.049  18.892   8.159 -0.0492 -0.0473  0.3532
   52loPI   C4B  832  14.216  19.032   7.876 -0.0481  0.1762  0.1719
   53loPI    C1  833   1.065  10.174  10.574 -0.0238  0.2711 -0.0372
   53loPI    C2  834   0.798  10.409  10.757 -0.0333  0.1341  0.1273
   53loPI    C3  835   1.138  10.310  10.943 -0.0485 -0.0164  0.0761
   53loPI   PO4  836   1.154  10.238  10.293 -0.1848  0.1173 -0.2417
   53loPI   GL1  837   1.125  10.221   9.805 -0.0562 -0.2504  0.0711
   53loPI   GL2  838   0.786  10.154   9.704 -0.0215 -0.0370 -0.2602
   53loPI   C1A  839   1.126  10.368   9.404 -0.0330  0.0226  0.0512
   53loPI   C2A  840   1.176  10.338   9.062 -0.3111  0.1342  0.0643
   53loPI   C3A  841   1.432  10.024   8.791  0.0172 -0.3037 -0.5097
   53loPI   C4A  842   1.411   9.658   8.421  0.1589 -0.3338 -0.0974
   53loPI   C5A  843   1.359   9.488   7.994 -0.1934 -0.2465 -0.1064
   53loPI   C6A  844   1.106   9.659   7.683 -0.0272 -0.0170  0.0200
   53loPI   C1B  845   0.998   9.891   9.468  0.0207 -0.0755  0.6103
   53loPI   C2B  846   1.186   9.739   9.129 -0.0321 -0.0542  0.0170
   53loPI   C3B  847   1.126   9.301   8.888  0.2595 -0.2188 -0.1930
   53loPI   C4B  848   1.060   8.954   8.798 -0.1857  0.2061 -0.0516
   54loPI    C1  849  11.863   5.955  10.777 -0.1961  0.3361  0.0031
   54loPI    C2  850  11.655   5.943  11.118 -0.1409  0.2541  0.0343
   54loPI    C3  851  12.046   5.859  11.120 -0.1629  0.1470 -0.0661
   54loPI   PO4  852  11.666   5.849  10.607 -0.2119 -0.1834 -0.0336
   54loPI   GL1  853  11.723   5.693  10.240 -0.0193 -0.2890  0.0381
   54loPI   GL2  854  11.651   5.571  10.109 -0.0479  0.1448  0.3303
   54loPI   C1A  855  11.976   5.914   9.897  0.0718  0.4149  0.2122
   54loPI   C2A  856  11.896   5.961   9.463  0.0457  0.3273 -0.0360
   54loPI   C3A  857  11.970   5.845   9.037  0.0176 -0.0403  0.0784
   54loPI   C4A  858  11.874   5.867   8.652 -0.1118 -0.0561  0.3187
   54loPI   C5A  859  11.734   5.840   8.233 -0.0304 -0.1694  0.1659
   54loPI   C6A  860  11.445   5.768   7.949  0.1531  0.0005 -0.3510
   54loPI   C1B  861  11.471   5.608   9.707 -0.2281  0.3082  0.1688
   54loPI   C2B  862  11.545   5.643   9.295 -0.1896  0.0990 -0.2154
   54loPI   C3B  863  11.477   5.676   8.882  0.0565 -0.1495 -0.2369
   54loPI   C4B  864  11.419   5.643   8.495 -0.2704  0.2732 -0.0687
   55loPI    C1  865  10.174   7.082  10.689  0.0342  0.0135 -0.1056
   55loPI    C2  866   9.870   7.163  10.936  0.1099  0.2919 -0.1005
   55loPI    C3  867  10.220   7.351  10.982  0.3155 -0.0938 -0.0479
   55loPI   PO4  868  10.100   7.069  10.451 -0.1856  0.0461  0.1396
   55loPI   GL1  869   9.963   7.144   9.972 -0.2052 -0.1238 -0.0993
   55loPI   GL2  870   9.770   6.915   9.963 -0.1129 -0.1641  0.0329
   55loPI   C1A  871   9.961   7.183   9.544 -0.0988  0.0024  0.1822
   55loPI   C2A  872   9.848   7.354   9.134 -0.1654 -0.1386 -0.2214
   55loPI   C3A  873   9.980   7.316   8.598  0.1132 -0.0468  0.1522
   55loPI   C4A  874  10.252   7.334   8.159  0.1645  0.2518  0.0165
   55loPI   C5A  875  10.348   7.323   7.717 -0.3911  0.1321  0.1460
   55loPI   C6A  876  10.653   7.118   7.406  0.0557  0.0729  0.3547
   55loPI   C1B  877   9.520   6.955   9.640  0.3408  0.2813 -0.1349
   55loPI   C2B  878   9.415   7.031   9.213  0.0710 -0.1035  0.0985
   55loPI   C3B  879   9.385   6.990   8.783 -0.2242  0.2759 -0.0886
   55loPI   C4B  880   9.390   6.985   8.323  0.0172  0.0099 -0.2742
   56loPI    C1  881  12.682  15.508   9.834  0.2028 -0.0772  0.2818
   56loPI    C2  882  13.009  15.738   9.829  0.1650 -0.0258 -0.0442
   56loPI    C3  883  12.817  15.671  10.173  0.1986  0.3980  0.0629
   56loPI   PO4  884  12.656  15.455   9.648 -0.0612 -0.1277  0.0257
   56loPI   GL1  885  12.740  15.536   9.195  0.1551  0.0928 -0.4364
   56loPI   GL2  886  12.578  15.858   9.200  0.2294  0.3843 -0.0157
   56loPI   C1A  887  12.836  15.382   8.773  0.2628  0.1748  0.0014
   56loPI   C2A  888  12.987  15.250   8.363 -0.2161 -0.3663  0.1085
   56loPI   C3A  889  13.099  15.463   8.064  0.0682  0.0713  0.0798
   56loPI   C4A  890  13.191  15.582   7.674  0.0165 -0.0143 -0.0015
   56loPI   C5A  891  12.956  15.720   7.329 -0.2929  0.2422 -0.2618
   56loPI   C6A  892  13.149  15.946   7.034 -0.0380 -0.1943 -0.2107
   56loPI   C1B  893  12.614  15.930   8.835 -0.1364  0.3401  0.1205
   56loPI   C2B  894  12.522  16.028   8.415 -0.0275  0.1058  0.1495
   56loPI   C3B  895  12.189  16.178   8.010  0.1386 -0.1065 -0.0230
   56loPI   C4B  896  11.772  16.259   7.864  0.4239  0.2226  0.1592
   57loPI    C1  897   6.205  18.013  10.473  0.0822  0.0341 -0.2554
   57loPI    C2  898   5.863  17.915  10.657  0.1465  0.2256 -0.0273
   57loPI    C3  899   6.045  17.651  10.418 -0.1371  0.1075 -0.1175
   57loPI   PO4  900   6.193  18.271  10.368  0.2251  0.1965 -0.0877
   57loPI   GL1  901   5.967  18.524  10.066 -0.1589  0.0277 -0.0602
   57loPI   GL2  902   6.244  18.614   9.927  0.0565 -0.2762  0.0781
   57loPI   C1A  903   5.783  18.347   9.620 -0.2913  0.2247 -0.3219
   57loPI   C2A  904   5.759  18.297   9.224 -0.0477 -0.0178  0.0558
   57loPI   C3A  905   5.823  18.215   8.814 -0.0149 -0.0487 -0.2243
   57loPI   C4A  906   5.861  18.371   8.530  0.0838 -0.4749  0.3942
   57loPI   C5A  907   5.830  18.274   8.139  0.1085 -0.1676  0.3161
   57loPI   C6A  908   5.858  17.883   7.860 -0.2352 -0.1040  0.1058
   57loPI   C1B  909   6.323  18.342   9.632  0.0920 -0.2480 -0.0035
   57loPI   C2B  910   6.194  18.426   9.273 -0.1526  0.0331  0.1007
   57loPI   C3B  911   6.252  18.547   8.770 -0.2446  0.2147  0.2372
   57loPI   C4B  912   6.290  18.498   8.260 -0.0464 -0.0111  0.0258
   58loPI    C1  913   0.657   4.856  10.295  0.0333 -0.0133 -0.2357
   58loPI    C2  914   0.642   4.456  10.275 -0.1224 -0.0150 -0.1111
   58loPI    C3  915   0.311   4.665  10.358 -0.0196  0.1338 -0.0690
   58loPI   PO4  916   0.847   4.907  10.037  0.0756  0.0565 -0.3388
   58loPI   GL1  917   1.084   5.077   9.801  0.1602 -0.0120  0.1148
   58loPI   GL2  918   1.304   5.347   9.776  0.0786 -0.0668  0.0052
   58loPI   C1A  919   0.951   5.112   9.351  0.3952  0.1233 -0.2765
   58loPI   C2A  920   0.982   5.131   8.790  0.0123 -0.2968  0.1674
   58loPI   C3A  921   0.968   5.175   8.372  0.0355  0.0616  0.2203
   58loPI   C4A  922   0.996   5.151   7.935 -0.0677  0.0815 -0.0282
   58loPI   C5A  923   1.130   5.113   7.459  0.2444  0.1876 -0.0631
   58loPI   C6A  924   1.274   5.132   7.055  0.3697  0.0473  0.4728
   58loPI   C1B  925   1.452   5.344   9.369  0.2028  0.1178 -0.1424
   58loPI   C2B  926   1.410   5.427   8.975 -0.1138  0.1081  0.1882
   58loPI   C3B  927   1.423   5.377   8.555 -0.0561 -0.1458  0.0156
   58loPI   C4B  928   1.478   5.359   8.165  0.4697  0.3115  0.1754
   59loPI    C1  929   5.978  15.750  10.588 -0.2040  0.2241 -0.1251
   59loPI    C2  930   6.213  15.797  10.909 -0.0833 -0.2059 -0.1446
   59loPI    C3  931   5.815  15.818  10.947 -0.0674 -0.1958  0.0231
   59loPI   PO4  932   6.148  15.907  10.408 -0.0569 -0.0776 -0.4015
   59loPI   GL1  933   6.202  16.227  10.247  0.2228  0.4306  0.1400
   59loPI   GL2  934   6.361  15.926   9.966 -0.0220 -0.0057 -0.1006
   59loPI   C1A  935   6.208  16.414   9.830 -0.0364 -0.1002  0.4255
   59loPI   C2A  936   6.184  16.406   9.363 -0.0004  0.1437  0.0512
   59loPI   C3A  937   6.095  16.490   8.926  0.3552 -0.3835  0.0274
   59loPI   C4A  938   6.126  16.386   8.443  0.0403  0.2153  0.2419
   59loPI   C5A  939   6.296  16.562   8.008  0.0543 -0.4016  0.0734
   59loPI   C6A  940   6.644  16.481   7.775  0.1080 -0.0268 -0.1718
   59loPI   C1B  941   6.469  16.023   9.614 -0.0694 -0.2858  0.0919
   59loPI   C2B  942   6.598  16.165   9.227  0.0483 -0.0543  0.1900
   59loPI   C3B  943   6.552  16.214   8.753  0.0425  0.0832 -0.0802
   59loPI   C4B  944   6.545  16.214   8.256 -0.2390 -0.1478  0.0090
   60loPI    C1  945   3.935  15.347  10.211  0.1567 -0.1280  0.1851
   60loPI    C2  946   4.262  15.576  10.228  0.0071  0.1265 -0.2009
   60loPI    C3  947   3.922  15.701  10.397  0.0970 -0.1297  0.1844
   60loPI   PO4  948   3.907  15.287   9.929  0.3231  0.4133 -0.2313
   60loPI   GL1  949   4.195  15.430   9.712 -0.1340  0.0431  0.0559
   60loPI   GL2  950   4.430  15.482   9.793 -0.0047 -0.2653  0.0975
   60loPI   C1A  951   4.247  15.313   9.299 -0.2646 -0.1277  0.1927
   60loPI   C2A  952   4.487  15.330   8.920 -0.1856  0.2630  0.0321
   60loPI   C3A  953   4.693  15.282   8.416  0.1687  0.2754 -0.2312
   60loPI   C4A  954   4.690  15.077   8.031 -0.1707 -0.0520  0.0655
   60loPI   C5A  955   4.436  15.148   7.679 -0.0182  0.0117  0.2595
   60loPI   C6A  956   4.066  15.436   7.256 -0.1261  0.1178  0.0842
   60loPI   C1B  957   4.618  15.062   9.545 -0.1815 -0.0194 -0.4263
   60loPI   C2B  958   4.703  14.829   9.201 -0.3249 -0.0966 -0.1084
   60loPI   C3B  959   4.692  14.694   8.800 -0.1193 -0.0078 -0.2888
   60loPI   C4B  960   4.673  14.729   8.336  0.2643 -0.0428  0.1418
   61loPI    C1  961   2.800  13.918   9.929  0.0170 -0.2487  0.0051
   61loPI    C2  962   2.667  14.159  10.220 -0.0791 -0.2887 -0.0052
   61loPI    C3  963   2.884  13.835  10.312  0.0679 -0.1878  0.0071
   61loPI   PO4  964   2.579  13.975   9.713  0.2215 -0.2523 -0.0475
   61loPI   GL1  965   2.424  13.998   9.390  0.0054  0.0004  0.3968
   61loPI   GL2  966   2.286  13.653   9.358 -0.1149 -0.1864 -0.0301
   61loPI   C1A  967   2.309  14.255   9.019 -0.1600 -0.0088  0.0216
   61loPI   C2A  968   2.188  14.459   8.662  0.0888  0.1744  0.0494
   61loPI   C3A  969   2.134  14.214   8.206  0.1661 -0.0239 -0.0233
   61loPI   C4A  970   2.299  14.058   7.742 -0.2565 -0.2142  0.1185
   61loPI   C5A  971   2.505  13.784   7.445 -0.0296  0.0378  0.1512
   61loPI   C6A  972   2.514  13.651   6.929 -0.2925  0.4663 -0.1304
   61loPI   C1B  973   2.177  13.464   8.930  0.2144  0.3899  0.0939
   61loPI   C2B  974   2.047  13.304   8.701 -0.0192  0.1061  0.1430
   61loPI   C3B  975   2.243  13.176   8.381 -0.0435  0.1168  0.0353
   61loPI   C4B  976   2.367  12.715   8.187  0.1944 -0.0431 -0.2393
   62loPI    C1  977  12.196  10.737   9.761  0.0019 -0.1127  0.0055
   62loPI    C2  978  12.180  10.896  10.127 -0.2748  0.0140 -0.0592
   62loPI    C3  979  12.472  10.639  10.033 -0.0818  0.1403  0.1843
   62loPI   PO4  980  12.248  10.973   9.558 -0.1297  0.0722  0.0026
   62loPI   GL1  981  12.270  10.928   9.101 -0.3296  0.4694 -0.0734
   62loPI   GL2  982  12.056  10.702   8.936  0.1910  0.1020  0.0034
   62loPI   C1A  983  12.380  11.031   8.714 -0.2266  0.1918 -0.0825
   62loPI   C2A  984  12.467  11.009   8.304  0.2029 -0.3133 -0.0730
   62loPI   C3A  985  12.171  10.950   7.928 -0.1315  0.4023 -0.3099
   62loPI   C4A  986  11.862  10.846   7.478 -0.0734 -0.0411  0.0291
   62loPI   C5A  987  11.785  11.044   7.090 -0.0087 -0.1876 -0.0652
   62loPI   C6A  988  11.695  10.900   6.558  0.0149  0.0651 -0.0182
   62loPI   C1B  989  12.009  10.645   8.588  0.4687  0.0382 -0.0820
   62loPI   C2B  990  11.782  10.728   8.110  0.0787  0.1823  0.3514
   62loPI   C3B  991  11.484  10.819   7.812  0.0327  0.1295 -0.0735
   62loPI   C4B  992  11.140  10.884   7.543  0.0168 -0.0399 -0.0999
   63loPI    C1  993   1.055   9.139  10.453 -0.1791 -0.0647 -0.0868
   63loPI    C2  994   0.819   8.969  10.728 -0.1947 -0.0765 -0.1074
   63loPI    C3  995   0.982   9.327  10.798 -0.5187  0.1023 -0.2454
   63loPI   PO4  996   0.945   9.264  10.205 -0.2748 -0.1205  0.1094
   63loPI   GL1  997   1.126   9.278   9.801 -0.3527 -0.0355  0.0579
   63loPI   GL2  998   1.267   9.643   9.776  0.0617 -0.2082  0.2405
   63loPI   C1A  999   1.129   9.013   9.427  0.1403  0.1684 -0.0288
   63loPI   C2A 1000   0.796   8.881   9.282  0.1818  0.4060  0.0340
   63loPI   C3A 1001   0.606   8.729   8.927 -0.1805 -0.3673 -0.2127
   63loPI   C4A 1002   0.544   8.828   8.496 -0.0799  0.1307 -0.0273
   63loPI   C5A 1003   0.718   8.884   8.057 -0.1654  0.1460  0.0799
   63loPI   C6A 1004   0.951   9.148   7.840 -0.1574  0.3027 -0.1894
   63loPI   C1B 1005   1.535   9.475   9.409  0.0473 -0.0886 -0.2099
   63loPI   C2B 1006   1.607   9.503   8.914 -0.1595  0.2557  0.3046
   63loPI   C3B 1007   1.804   9.401   8.448  0.3022  0.0189  0.1371
   63loPI   C4B 1008   2.168   9.457   8.203 -0.1721  0.1932  0.1091
   64loPI    C1 1009  16.024  17.386   9.892 -0.2930 -0.0834 -0.1597
   64loPI    C2 1010  15.991  17.009   9.762 -0.1868 -0.0679 -0.2326
   64loPI    C3 1011  15.920  17.095  10.146  0.1352 -0.2213 -0.1347
   64loPI   PO4 1012  15.793  17.542   9.709  0.0451  0.2164 -0.1698
   64loPI   GL1 1013  15.684  17.643   9.346 -0.0482 -0.0445 -0.0264
   64loPI   GL2 1014  15.650  17.961   9.245 -0.0688  0.0322  0.1017
   64loPI   C1A 1015  15.959  17.656   8.989 -0.1174  0.0069 -0.0193
   64loPI   C2A 1016  16.011  17.532   8.562 -0.3735 -0.0460  0.0009
   64loPI   C3A 1017  16.219  17.475   8.133  0.0939  0.0480  0.0243
   64loPI   C4A 1018  16.454  17.616   7.814  0.0368  0.3416 -0.2325
   64loPI   C5A 1019  16.394  17.655   7.338  0.0446  0.1186  0.2584
   64loPI   C6A 1020  16.006  17.645   7.087 -0.1905 -0.1190  0.2983
   64loPI   C1B 1021  15.579  17.784   8.704 -0.0264  0.0908  0.1747
   64loPI   C2B 1022  15.685  17.827   8.344  0.3509 -0.2818  0.1073
   64loPI   C3B 1023  15.823  17.858   7.837 -0.3192  0.0610 -0.1586
   64loPI   C4B 1024  15.929  18.019   7.458 -0.0754  0.4284 -0.1119
   65loPI    C1 1025   5.037  15.053  10.497 -0.0194 -0.1062  0.0718
   65loPI    C2 1026   5.015  15.168  10.880 -0.0376  0.1366 -0.0005
   65loPI    C3 1027   5.015  14.779  10.787 -0.0865  0.0775  0.2425
   65loPI   PO4 1028   5.274  15.237  10.462 -0.0838  0.1026 -0.0522
   65loPI   GL1 1029   5.542  15.294  10.094 -0.2864  0.1336 -0.0813
   65loPI   GL2 1030   5.391  15.201   9.897  0.2225 -0.2444 -0.2128
   65loPI   C1A 1031   5.931  15.373   9.688  0.3344 -0.3265 -0.1192
   65loPI   C2A 1032   5.941  15.412   9.294 -0.2258  0.0115  0.1096
   65loPI   C3A 1033   6.014  15.422   8.913  0.0616  0.2651 -0.5476
   65loPI   C4A 1034   6.136  15.375   8.441  0.1955  0.2197 -0.2577
   65loPI   C5A 1035   6.082  15.452   8.065  0.0784 -0.1946 -0.2071
   65loPI   C6A 1036   5.828  15.794   7.882 -0.3746 -0.1647 -0.1562
   65loPI   C1B 1037   5.468  15.166   9.543 -0.0313  0.0415  0.1130
   65loPI   C2B 1038   5.584  15.197   9.004  0.0295  0.0915  0.1242
   65loPI   C3B 1039   5.647  15.182   8.552  0.0668  0.2305  0.1186
   65loPI   C4B 1040   5.554  15.294   8.116 -0.0351 -0.0732 -0.2156
   66loPI    C1 1041   2.524  11.227  10.041  0.0227 -0.1050  0.0335
   66loPI    C2 1042   2.236  11.290   9.771  0.0861  0.1192  0.0158
   66loPI    C3 1043   2.242  11.502  10.110  0.1619  0.0297  0.0709
   66loPI   PO4 1044   2.596  10.934  10.034 -0.2925 -0.0433  0.1378
   66loPI   GL1 1045   2.303  10.793   9.684 -0.3448  0.3292  0.2405
   66loPI   GL2 1046   2.107  10.451   9.844  0.3104  0.0426  0.0406
   66loPI   C1A 1047   2.464  10.744   9.394  0.0320  0.0097 -0.0614
   66loPI   C2A 1048   2.896  10.825   9.163  0.0893 -0.0217 -0.1073
   66loPI   C3A 1049   2.958  10.978   8.661 -0.2848 -0.0700  0.0713
   66loPI   C4A 1050   2.739  10.881   8.404  0.0769  0.0416  0.4747
   66loPI   C5A 1051   2.542  10.526   8.213 -0.2261 -0.0205 -0.0517
   66loPI   C6A 1052   2.277  10.516   7.824  0.1064  0.2140 -0.0447
   66loPI   C1B 1053   2.186  10.266   9.438  0.1373 -0.3919 -0.2156
   66loPI   C2B 1054   2.335  10.056   9.089 -0.0388  0.1143 -0.0816
   66loPI   C3B 1055   2.674   9.772   9.036  0.1944 -0.0406  0.0106
   66loPI   C4B 1056   2.866   9.475   8.804 -0.0573 -0.1666 -0.0630
   67loPI    C1 1057   3.227  17.383  10.344  0.1211  0.0221 -0.2455
   67loPI    C2 1058   3.356  17.032  10.486 -0.0930 -0.0213 -0.1535
   67loPI    C3 1059   3.388  17.362  10.710  0.0358  0.0046 -0.2088
   67loPI   PO4 1060   3.339  17.374  10.154  0.0646 -0.0280 -0.0741
   67loPI   GL1 1061   3.382  17.546   9.776  0.1357 -0.0709 -0.2128
   67loPI   GL2 1062   3.094  17.316   9.701 -0.0707  0.2260  0.2224
   67loPI   C1A 1063   3.521  17.598   9.306 -0.0404  0.0836  0.4510
   67loPI   C2A 1064   3.461  17.703   8.926  0.1354 -0.1477 -0.0222
   67loPI   C3A 1065   3.531  17.572   8.532 -0.3293  0.2952 -0.2153
   67loPI   C4A 1066   3.619  17.587   8.095 -0.0030 -0.2749 -0.0298
   67loPI   C5A 1067   3.469  17.625   7.710 -0.1408 -0.0071 -0.0665
   67loPI   C6A 1068   3.610  17.434   7.302 -0.0538 -0.1930  0.0452
   67loPI   C1B 1069   2.955  17.319   9.222 -0.0996 -0.4171  0.1055
   67loPI   C2B 1070   3.143  17.292   8.884  0.1840 -0.1898  0.0640
   67loPI   C3B 1071   3.067  17.389   8.494  0.0090 -0.1671 -0.0173
   67loPI   C4B 1072   3.211  17.234   8.105  0.1948  0.0371  0.0994
   68loPI    C1 1073   8.033  16.302  10.644  0.1168 -0.0490 -0.0981
   68loPI    C2 1074   7.813  16.634  10.687 -0.0236 -0.1507 -0.0241
   68loPI    C3 1075   8.212  16.656  10.692 -0.0325  0.0156 -0.0091
   68loPI   PO4 1076   7.816  16.174  10.475  0.1559  0.0570 -0.2832
   68loPI   GL1 1077   7.478  16.119  10.212  0.0619 -0.0961  0.4398
   68loPI   GL2 1078   7.465  16.355  10.064  0.1305 -0.2347 -0.1427
   68loPI   C1A 1079   7.309  15.975   9.731  0.1545 -0.2597  0.0845
   68loPI   C2A 1080   7.338  16.061   9.386  0.0055 -0.0040 -0.1737
   68loPI   C3A 1081   7.578  15.979   9.026 -0.1629  0.4553 -0.1997
   68loPI   C4A 1082   7.467  16.118   8.573 -0.2715  0.2622 -0.2620
   68loPI   C5A 1083   7.700  16.256   8.223 -0.0116 -0.2237  0.0603
   68loPI   C6A 1084   8.107  16.177   7.953  0.0034  0.1092 -0.1335
   68loPI   C1B 1085   7.686  16.270   9.707  0.1569 -0.1940 -0.0601
   68loPI   C2B 1086   7.475  16.527   9.301  0.3322 -0.2175  0.1234
   68loPI   C3B 1087   7.413  16.814   9.059  0.4099  0.0267  0.1651
   68loPI   C4B 1088   7.614  17.124   8.911  0.1926  0.2526 -0.0210
   69loPI    C1 1089   9.709   5.213  10.894  0.1475  0.0474  0.1305
   69loPI    C2 1090   9.460   5.393  11.151  0.0866 -0.0365  0.1308
   69loPI    C3 1091   9.506   4.995  11.161  0.1196 -0.0351  0.0425
   69loPI   PO4 1092   9.601   5.239  10.668 -0.2742  0.2460  0.0629
   69loPI   GL1 1093   9.830   5.040  10.354  0.0727 -0.3403  0.0849
   69loPI   GL2 1094   9.918   4.834  10.287  0.0569 -0.1441 -0.0259
   69loPI   C1A 1095  10.246   5.230  10.060 -0.0908  0.2360  0.0352
   69loPI   C2A 1096  10.247   5.173   9.602 -0.0849  0.0328 -0.3280
   69loPI   C3A 1097  10.258   5.285   9.121  0.2233  0.5092  0.0510
   69loPI   C4A 1098  10.134   5.268   8.740 -0.2283  0.1444 -0.1696
   69loPI   C5A 1099  10.190   5.117   8.362 -0.1470 -0.2952 -0.0877
   69loPI   C6A 1100  10.048   5.101   7.975  0.0086  0.4148  0.1471
   69loPI   C1B 1101   9.823   4.834   9.871 -0.1223  0.0392  0.2373
   69loPI   C2B 1102   9.877   4.865   9.402 -0.0531  0.0909  0.2293
   69loPI   C3B 1103   9.845   4.919   8.976 -0.0440  0.0842 -0.0924
   69loPI   C4B 1104   9.745   4.836   8.600 -0.0778  0.2753 -0.1216
   70loPI    C1 1105  10.740  15.237   9.840  0.1720 -0.0906 -0.2527
   70loPI    C2 1106  10.913  15.362  10.178 -0.2301 -0.0480 -0.0565
   70loPI    C3 1107  10.950  15.578   9.844  0.0841 -0.0371 -0.0179
   70loPI   PO4 1108  10.778  14.977   9.826  0.0321 -0.1164  0.0828
   70loPI   GL1 1109  10.766  14.621   9.413 -0.0262 -0.1370 -0.1933
   70loPI   GL2 1110  11.012  14.757   9.356 -0.0481 -0.1878 -0.1669
   70loPI   C1A 1111  10.790  14.416   8.950  0.1871  0.0271 -0.2087
   70loPI   C2A 1112  10.744  14.561   8.595 -0.1410 -0.4168 -0.2838
   70loPI   C3A 1113  10.630  14.701   8.268  0.4184 -0.0818  0.1505
   70loPI   C4A 1114  10.564  14.918   7.847 -0.0684 -0.4032 -0.0137
   70loPI   C5A 1115  10.826  14.744   7.526 -0.0414  0.1284  0.1192
   70loPI   C6A 1116  11.161  14.456   7.200 -0.2151 -0.3408  0.1248
   70loPI   C1B 1117  10.962  14.971   8.926  0.0657 -0.0446  0.0035
   70loPI   C2B 1118  10.981  15.059   8.476  0.1433 -0.3013 -0.0215
   70loPI   C3B 1119  10.806  15.252   8.120 -0.3312 -0.1141  0.2042
   70loPI   C4B 1120  11.013  15.408   7.841 -0.0602  0.5997 -0.0016
   71loPI    C1 1121  13.164  11.079   9.854 -0.3347  0.1134 -0.1316
   71loPI    C2 1122  13.153  11.448  10.008 -0.2310  0.1129 -0.1226
   71loPI    C3 1123  13.138  11.130  10.250 -0.3444  0.1109 -0.1317
   71loPI   PO4 1124  13.019  11.152   9.605  0.0010 -0.2198 -0.2715
   71loPI   GL1 1125  12.999  11.122   9.138  0.1477 -0.1550 -0.2362
   71loPI   GL2 1126  12.622  11.251   9.087 -0.1098  0.0666  0.0666
   71loPI   C1A 1127  13.263  11.000   8.718  0.0101 -0.2296  0.1897
   71loPI   C2A 1128  13.189  11.047   8.251 -0.0446 -0.0489 -0.2610
   71loPI   C3A 1129  12.791  11.178   7.994  0.1328  0.0479  0.0059
   71loPI   C4A 1130  12.645  11.179   7.526 -0.0909  0.1608 -0.2797
   71loPI   C5A 1131  12.555  11.601   7.432  0.2343 -0.0657  0.0887
   71loPI   C6A 1132  12.656  11.987   7.544  0.0850  0.2866  0.2586
   71loPI   C1B 1133  12.780  11.276   8.623  0.1553 -0.0845  0.0993
   71loPI   C2B 1134  12.684  11.580   8.323 -0.0404  0.4246  0.0368
   71loPI   C3B 1135  12.801  11.672   7.924 -0.0166 -0.1905  0.0240
   71loPI   C4B 1136  13.007  11.506   7.574  0.0823 -0.1613 -0.0676
   72loPI    C1 1137  17.087   0.318  10.021  0.0360  0.0962  0.1332
   72loPI    C2 1138  17.426   0.250   9.820 -0.0604  0.0981 -0.0320
   72loPI    C3 1139  17.439   0.411  10.186  0.1331 -0.1797  0.0863
   72loPI   PO4 1140  16.936   0.248   9.786  0.3059  0.0699 -0.1108
   72loPI   GL1 1141  17.047   0.464   9.477  0.3023 -0.0226  0.0119
   72loPI   GL2 1142  16.764   0.318   9.364 -0.0002  0.1569  0.0021
   72loPI   C1A 1143  17.145   0.343   9.061 -0.2747 -0.1758 -0.1405
   72loPI   C2A 1144  17.157   0.275   8.662  0.0309 -0.0124  0.3541
   72loPI   C3A 1145  17.441   0.415   8.379  0.1550  0.0534  0.2634
   72loPI   C4A 1146  17.355   0.606   7.893  0.0283  0.1627 -0.1492
   72loPI   C5A 1147  17.414   0.353   7.476 -0.3669 -0.0154 -0.1816
   72loPI   C6A 1148  17.166   0.032   7.235 -0.1049 -0.1977  0.0598
   72loPI   C1B 1149  16.607   0.236   8.936 -0.0974 -0.2000  0.2750
   72loPI   C2B 1150  16.329   0.201   8.556 -0.0354 -0.3771 -0.1575
   72loPI   C3B 1151  16.407   0.265   8.148  0.0442 -0.1717 -0.1807
   72loPI   C4B 1152  16.445   0.443   7.800  0.1561 -0.0276 -0.2140
   73loPI    C1 1153   6.426   0.349  10.933 -0.0402 -0.1566 -0.0890
   73loPI    C2 1154   6.605   0.309  11.288 -0.2036 -0.3342 -0.0249
   73loPI    C3 1155   6.317   0.582  11.240  0.0709 -0.0568 -0.1247
   73loPI   PO4 1156   6.547   0.327  10.766  0.2430 -0.0326  0.4826
   73loPI   GL1 1157   6.545   0.360  10.371 -0.0619 -0.0011 -0.0089
   73loPI   GL2 1158   6.623   0.679  10.294  0.0035  0.0166  0.0169
   73loPI   C1A 1159   6.646   0.126  10.080 -0.0963 -0.2886  0.0514
   73loPI   C2A 1160   6.792   0.246   9.667  0.2378  0.2101 -0.0762
   73loPI   C3A 1161   6.729   0.398   9.410  0.1416 -0.0570  0.2525
   73loPI   C4A 1162   6.787   0.493   8.971  0.2428  0.0069  0.1541
   73loPI   C5A 1163   6.747   0.462   8.584  0.5200 -0.2874  0.0480
   73loPI   C6A 1164   6.588   0.527   8.177  0.0821 -0.1253  0.2453
   73loPI   C1B 1165   6.633   0.705   9.846  0.0295 -0.1383 -0.2814
   73loPI   C2B 1166   6.687   0.911   9.432  0.1902  0.4460 -0.0236
   73loPI   C3B 1167   6.642   1.107   9.025  0.0173  0.2269  0.1216
   73loPI   C4B 1168   6.649   1.055   8.527  0.0203 -0.3067  0.1575
   74loPI    C1 1169  16.434   9.613  10.412  0.0654 -0.0129  0.1121
   74loPI    C2 1170  16.243   9.962  10.370  0.1716  0.0419  0.0803
   74loPI    C3 1171  16.378   9.849  10.730 -0.0472 -0.0639  0.1306
   74loPI   PO4 1172  16.527   9.583  10.109 -0.0144 -0.0592  0.0710
   74loPI   GL1 1173  16.457   9.633   9.725  0.0896 -0.1396 -0.0678
   74loPI   GL2 1174  16.434   9.390   9.525 -0.1293 -0.0618 -0.0567
   74loPI   C1A 1175  16.657   9.745   9.262 -0.3505  0.0032  0.4219
   74loPI   C2A 1176  16.537   9.862   8.857 -0.1050  0.0028 -0.0155
   74loPI   C3A 1177  16.378  10.070   8.348 -0.0755  0.2208  0.2971
   74loPI   C4A 1178  16.210   9.917   7.962  0.1732  0.1003  0.1194
   74loPI   C5A 1179  15.951   9.830   7.590  0.0561 -0.4044 -0.0051
   74loPI   C6A 1180  15.561   9.822   7.310 -0.4246 -0.2774 -0.1281
   74loPI   C1B 1181  16.839   9.307   9.344 -0.0016 -0.0616 -0.2878
   74loPI   C2B 1182  17.021   9.316   9.069  0.0092 -0.2560  0.0665
   74loPI   C3B 1183  17.128   9.199   8.645 -0.0832  0.0785 -0.1577
   74loPI   C4B 1184  17.229   9.300   8.147 -0.3550 -0.1017 -0.3294
   75loPI    C1 1185   0.328   0.042   9.955 -0.0230 -0.1314  0.0223
   75loPI    C2 1186   0.096   0.154  10.261 -0.0994  0.0256 -0.0917
   75loPI    C3 1187   0.486   0.087  10.320 -0.1452 -0.1046  0.0725
   75loPI   PO4 1188   0.228   0.214   9.670 -0.0831  0.1716  0.0017
   75loPI   GL1 1189   0.281   0.063   9.227 -0.0289 -0.2816  0.3651
   75loPI   GL2 1190   0.568  -0.017   9.318  0.1554  0.1741  0.0107
   75loPI   C1A 1191   0.387   0.154   8.760 -0.1140 -0.1053  0.3790
   75loPI   C2A 1192   0.260   0.636   8.488 -0.1380  0.2008  0.1822
   75loPI   C3A 1193   0.354   0.772   8.097  0.1882  0.1011  0.2279
   75loPI   C4A 1194   0.622   0.627   7.777  0.0611 -0.2787 -0.1852
   75loPI   C5A 1195   0.710   0.439   7.428 -0.0678  0.1507  0.1262
   75loPI   C6A 1196   0.777   0.021   7.445 -0.1675  0.2040 -0.2141
   75loPI   C1B 1197   0.840  -0.185   9.051 -0.1166 -0.2209  0.0080
   75loPI   C2B 1198   0.714  -0.193   8.546  0.0679 -0.1730  0.2655
   75loPI   C3B 1199   0.467   0.008   8.255  0.1012  0.3988 -0.0948
   75loPI   C4B 1200   0.466   0.128   7.802  0.1408 -0.0665 -0.4394
   76loPI    C1 1201   0.728  16.699   9.773 -0.0478  0.0866 -0.1605
   76loPI    C2 1202   0.733  16.943  10.090 -0.1198 -0.0417 -0.0600
   76loPI    C3 1203   0.503  16.615  10.092 -0.0743 -0.0756 -0.2208
   76loPI   PO4 1204   0.962  16.686   9.653  0.1406  0.1295 -0.1330
   76loPI   GL1 1205   1.045  16.421   9.377 -0.1647  0.1652  0.2067
   76loPI   GL2 1206   1.327  16.510   9.307 -0.0448  0.0298 -0.0274
   76loPI   C1A 1207   0.980  16.265   8.879  0.1140 -0.1869 -0.2469
   76loPI   C2A 1208   0.710  16.126   8.513 -0.0427  0.3974  0.1578
   76loPI   C3A 1209   0.549  16.315   8.237  0.1403  0.0730  0.3022
   76loPI   C4A 1210   0.383  16.434   7.779  0.1284 -0.2562  0.2429
   76loPI   C5A 1211   0.185  16.496   7.495  0.0749 -0.0149 -0.1471
   76loPI   C6A 1212  -0.167  16.700   7.494  0.0437 -0.2613 -0.0986
   76loPI   C1B 1213   1.664  16.699   9.167 -0.0707 -0.1670  0.0726
   76loPI   C2B 1214   1.690  16.834   8.715  0.1383  0.0099 -0.0091
   76loPI   C3B 1215   1.889  16.670   8.329  0.0443 -0.1908  0.3214
   76loPI   C4B 1216   1.923  16.753   7.902 -0.1332 -0.0652 -0.1059
   77loPI    C1 1217  14.965  13.693  10.097  0.1241 -0.2392  0.0090
   77loPI    C2 1218  15.354  13.651  10.181  0.1077 -0.0151  0.2073
   77loPI    C3 1219  15.099  13.765  10.467 -0.0839 -0.0369  0.0470
   77loPI   PO4 1220  15.032  13.869   9.830  0.3924 -0.1286 -0.2143
   77loPI   GL1 1221  15.081  14.137   9.456 -0.3438 -0.1366  0.2324
   77loPI   GL2 1222  15.399  14.265   9.406  0.2547 -0.2046 -0.1154
   77loPI   C1A 1223  15.010  14.153   9.054  0.1266 -0.0068 -0.0426
   77loPI   C2A 1224  15.177  14.050   8.653 -0.3141 -0.0573 -0.1445
   77loPI   C3A 1225  15.172  13.907   8.310  0.2585  0.2009  0.1380
   77loPI   C4A 1226  15.478  13.839   7.937 -0.1437 -0.3359  0.0039
   77loPI   C5A 1227  15.528  13.584   7.607  0.2109 -0.2886 -0.1842
   77loPI   C6A 1228  15.501  13.305   7.217  0.1071 -0.0933 -0.3010
   77loPI   C1B 1229  15.736  14.216   9.005 -0.2111  0.0365  0.0640
   77loPI   C2B 1230  15.652  14.061   8.576  0.2700  0.0048 -0.0674
   77loPI   C3B 1231  15.854  14.100   8.191 -0.0840 -0.3669  0.0030
   77loPI   C4B 1232  15.847  14.250   7.799 -0.2781  0.0076 -0.0573
   78loPI    C1 1233   9.582  13.481  10.334 -0.1120  0.2022  0.1387
   78loPI    C2 1234   9.381  13.215  10.556  0.2570 -0.0094  0.2275
   78loPI    C3 1235   9.780  13.200  10.538  0.2503  0.1808 -0.2306
   78loPI   PO4 1236   9.562  13.505  10.109  0.1540 -0.1293 -0.5233
   78loPI   GL1 1237   9.528  13.485   9.587  0.0341  0.1841 -0.0532
   78loPI   GL2 1238   9.319  13.651   9.610  0.0786 -0.2788  0.2971
   78loPI   C1A 1239   9.453  13.259   9.179 -0.3243  0.1186  0.0722
   78loPI   C2A 1240   9.274  13.488   8.739 -0.1869  0.0277  0.1390
   78loPI   C3A 1241   9.309  13.666   8.407 -0.0676  0.0792 -0.2328
   78loPI   C4A 1242   9.660  13.726   8.115  0.3942  0.0170 -0.1488
   78loPI   C5A 1243   9.805  13.481   7.772 -0.1467 -0.0148 -0.1905
   78loPI   C6A 1244   9.631  13.284   7.395 -0.0164 -0.1080  0.0954
   78loPI   C1B 1245   9.163  13.879   9.183  0.0369 -0.0497  0.0681
   78loPI   C2B 1246   8.818  13.950   8.786  0.0221  0.0516  0.2534
   78loPI   C3B 1247   8.692  13.960   8.415  0.2887 -0.1268 -0.1773
   78loPI   C4B 1248   8.685  14.118   8.023 -0.0540 -0.1758  0.2552
   79loPI    C1 1249   8.067   1.802  10.859  0.0705 -0.1566 -0.2008
   79loPI    C2 1250   8.336   1.536  10.988 -0.1037 -0.1533  0.1852
   79loPI    C3 1251   8.262   1.865  11.203  0.1562  0.2493 -0.3183
   79loPI   PO4 1252   8.041   1.616  10.591 -0.1876 -0.0597  0.3013
   79loPI   GL1 1253   7.757   1.491  10.243  0.2500 -0.0026  0.0501
   79loPI   GL2 1254   7.911   1.254  10.075  0.2902  0.0169  0.2055
   79loPI   C1A 1255   7.845   1.740   9.924  0.0646 -0.1000 -0.0873
   79loPI   C2A 1256   7.761   1.859   9.469  0.1705  0.0201  0.0100
   79loPI   C3A 1257   7.901   1.865   9.123 -0.0740 -0.1225  0.0823
   79loPI   C4A 1258   7.757   1.868   8.627  0.0602  0.3510 -0.1956
   79loPI   C5A 1259   7.686   1.906   8.186 -0.0898 -0.0169 -0.1481
   79loPI   C6A 1260   7.433   1.759   7.820  0.0356 -0.1897  0.1156
   79loPI   C1B 1261   8.082   1.296   9.666  0.2748  0.2984 -0.0213
   79loPI   C2B 1262   8.061   1.167   9.228 -0.3326  0.0213 -0.0726
   79loPI   C3B 1263   8.041   1.161   8.685  0.1028 -0.0222 -0.1425
   79loPI   C4B 1264   8.057   1.047   8.234 -0.0901  0.2541 -0.2945
   80loPI    C1 1265  17.722   8.282  10.222  0.0542  0.1115 -0.1672
   80loPI    C2 1266  17.400   8.396  10.014  0.1009  0.2063 -0.1882
   80loPI    C3 1267  17.414   8.458  10.409 -0.0343 -0.0740 -0.1368
   80loPI   PO4 1268  17.928   8.387  10.045  0.1702 -0.2642 -0.3812
   80loPI   GL1 1269  18.265   8.045   9.805  0.0590  0.3544  0.4774
   80loPI   GL2 1270  18.530   7.875   9.627 -0.1126 -0.0254 -0.2932
   80loPI   C1A 1271  18.305   8.340   9.515  0.0845  0.1277  0.3444
   80loPI   C2A 1272  18.168   8.521   9.157 -0.0845  0.1826 -0.0578
   80loPI   C3A 1273  18.147   8.551   8.644 -0.1413 -0.1430  0.0848
   80loPI   C4A 1274  18.126   8.689   8.253  0.0140 -0.0138  0.0672
   80loPI   C5A 1275  18.019   8.992   7.909  0.0428 -0.1361  0.4218
   80loPI   C6A 1276  17.939   9.279   7.500 -0.1794 -0.1146  0.2645
   80loPI   C1B 1277  18.331   7.831   9.287  0.0621 -0.0973 -0.3422
   80loPI   C2B 1278  18.471   7.647   8.953 -0.0350  0.0181  0.0710
   80loPI   C3B 1279  18.511   7.603   8.553 -0.1342 -0.0060 -0.1038
   80loPI   C4B 1280  18.723   7.627   8.277  0.2249 -0.3158 -0.0657
   81loPI    C1 1281   9.631  14.688  10.110  0.2149  0.0202 -0.1869
   81loPI    C2 1282   9.945  14.860  10.290 -0.0276  0.1782  0.0936
   81loPI    C3 1283   9.669  14.669  10.508 -0.0505 -0.0915 -0.1651
   81loPI   PO4 1284   9.654  14.612   9.845 -0.0958  0.1380 -0.1106
   81loPI   GL1 1285   9.733  14.582   9.434  0.2347 -0.2421 -0.1989
   81loPI   GL2 1286   9.874  14.916   9.461  0.0703 -0.2847 -0.2517
   81loPI   C1A 1287   9.831  14.327   9.037  0.0819  0.2104  0.1305
   81loPI   C2A 1288   9.761  14.330   8.532 -0.0866  0.0167  0.0615
   81loPI   C3A 1289   9.857  14.171   8.173 -0.0955 -0.1425 -0.2161
   81loPI   C4A 1290   9.810  14.168   7.721 -0.1552 -0.1517 -0.0399
   81loPI   C5A 1291   9.503  14.420   7.511  0.0147 -0.1378  0.0693
   81loPI   C6A 1292   9.598  14.621   7.113 -0.1190 -0.0549 -0.1719
   81loPI   C1B 1293   9.896  14.912   9.059  0.0716 -0.1986  0.1296
   81loPI   C2B 1294   9.985  14.917   8.661  0.0522 -0.0279  0.1450
   81loPI   C3B 1295  10.115  14.774   8.203 -0.4019  0.0523 -0.2774
   81loPI   C4B 1296  10.162  14.606   7.829 -0.2000 -0.0534  0.0182
   82loPI    C1 1297   5.667  10.501  10.498 -0.0346  0.0088 -0.1207
   82loPI    C2 1298   5.390  10.759  10.627  0.2140  0.2905 -0.1374
   82loPI    C3 1299   5.775  10.818  10.717  0.2684 -0.1173 -0.0827
   82loPI   PO4 1300   5.623  10.416  10.271 -0.1764 -0.1815 -0.1260
   82loPI   GL1 1301   5.740  10.504   9.970  0.1094  0.1658 -0.0355
   82loPI   GL2 1302   5.412  10.583   9.865  0.2010  0.0832 -0.2419
   82loPI   C1A 1303   5.783  10.485   9.530  0.2034  0.3323 -0.1033
   82loPI   C2A 1304   5.935  10.226   9.285  0.0536 -0.0748  0.0154
   82loPI   C3A 1305   6.166  10.428   9.067  0.1618  0.0928 -0.0198
   82loPI   C4A 1306   6.333  10.277   8.595 -0.3923  0.2314 -0.0329
   82loPI   C5A 1307   6.363  10.325   8.139  0.0635  0.0621  0.1335
   82loPI   C6A 1308   6.244  10.512   7.729 -0.0253  0.1811 -0.1615
   82loPI   C1B 1309   5.309  10.459   9.481  0.0346  0.1336 -0.2931
   82loPI   C2B 1310   5.486  10.350   9.115  0.1993 -0.0001  0.1872
   82loPI   C3B 1311   5.802  10.369   8.750  0.0289  0.1694 -0.1774
   82loPI   C4B 1312   5.898  10.293   8.378  0.2347 -0.3509 -0.0146
   83loPI    C1 1313  13.302  11.918   9.911 -0.1477  0.2289 -0.0983
   83loPI    C2 1314  13.027  11.912  10.201 -0.1234  0.3901 -0.0707
   83loPI    C3 1315  13.394  12.052  10.277  0.0017  0.0740 -0.0782
   83loPI   PO4 1316  13.179  12.031   9.734  0.5369 -0.0824  0.0373
   83loPI   GL1 1317  13.245  12.368   9.396  0.3687  0.1236 -0.1207
   83loPI   GL2 1318  12.860  12.271   9.417  0.0899  0.3307 -0.0387
   83loPI   C1A 1319  13.194  12.068   9.041 -0.0408 -0.0585 -0.0646
   83loPI   C2A 1320  13.423  11.941   8.686 -0.2357  0.0786  0.1050
   83loPI   C3A 1321  13.663  11.953   8.314 -0.3381  0.0813 -0.1914
   83loPI   C4A 1322  13.707  11.871   7.835  0.0754 -0.4255 -0.1155
   83loPI   C5A 1323  13.796  11.830   7.399  0.0410 -0.2417 -0.0828
   83loPI   C6A 1324  14.100  12.218   7.278 -0.2345 -0.0463  0.1544
   83loPI   C1B 1325  12.863  12.466   9.068 -0.2142 -0.1131  0.0868
   83loPI   C2B 1326  13.015  12.472   8.674  0.2221  0.3791  0.0272
   83loPI   C3B 1327  12.957  12.524   8.165  0.0449 -0.1913  0.1188
   83loPI   C4B 1328  13.066  12.378   7.830  0.0130  0.1133 -0.0873
   84loPI    C1 1329  12.573  12.650   9.771 -0.1135  0.0079  0.2156
   84loPI    C2 1330  12.736  13.014   9.741 -0.0995 -0.0085  0.0875
   84loPI    C3 1331  12.654  12.861  10.101 -0.1912  0.1593  0.1391
   84loPI   PO4 1332  12.447  12.662   9.641  0.1678 -0.4051  0.0693
   84loPI   GL1 1333  12.293  12.374   9.271 -0.0150  0.1544  0.0012
   84loPI   GL2 1334  12.039  12.384   9.392  0.0012 -0.3234 -0.1882
   84loPI   C1A 1335  12.393  12.253   8.865  0.0085 -0.0049  0.0043
   84loPI   C2A 1336  12.347  11.934   8.531 -0.0671 -0.1875  0.1064
   84loPI   C3A 1337  12.281  11.929   8.146  0.1714 -0.0500 -0.0666
   84loPI   C4A 1338  12.157  11.804   7.704 -0.1265  0.1720  0.4088
   84loPI   C5A 1339  11.995  11.986   7.292  0.0564  0.1548  0.1293
   84loPI   C6A 1340  11.607  12.306   7.249 -0.1899 -0.0233 -0.0466
   84loPI   C1B 1341  11.918  12.443   8.981  0.0468  0.1855  0.0196
   84loPI   C2B 1342  11.716  12.596   8.679 -0.2802 -0.0556 -0.0454
   84loPI   C3B 1343  11.707  12.715   8.278  0.2763  0.0443 -0.1932
   84loPI   C4B 1344  11.612  13.067   8.201 -0.3519  0.1073  0.0315
   85loPI    C1 1345   7.115  17.155  10.784  0.2155 -0.0759 -0.0169
   85loPI    C2 1346   6.824  17.391  10.924  0.1857  0.0822 -0.3356
   85loPI    C3 1347   7.041  17.170  11.177 -0.0052  0.1978 -0.0653
   85loPI   PO4 1348   7.085  17.036  10.522  0.4471 -0.2973  0.0297
   85loPI   GL1 1349   6.999  17.266  10.101  0.1506 -0.0125  0.1170
   85loPI   GL2 1350   6.834  17.613   9.987 -0.0338 -0.0928 -0.0572
   85loPI   C1A 1351   6.879  17.134   9.755 -0.1585  0.1541  0.4512
   85loPI   C2A 1352   6.947  17.131   9.338  0.1067 -0.0114  0.0071
   85loPI   C3A 1353   7.003  16.943   8.866  0.0917 -0.1525 -0.1830
   85loPI   C4A 1354   7.161  16.940   8.449  0.1895  0.1436 -0.2338
   85loPI   C5A 1355   7.318  16.695   8.152 -0.0567  0.4082 -0.3233
   85loPI   C6A 1356   7.584  16.497   7.801  0.0185 -0.0949 -0.0016
   85loPI   C1B 1357   6.805  17.654   9.539  0.2141 -0.0610  0.2705
   85loPI   C2B 1358   6.800  17.660   9.104  0.0156  0.2672 -0.0495
   85loPI   C3B 1359   6.680  17.763   8.805 -0.1390 -0.1957  0.2381
   85loPI   C4B 1360   6.747  17.702   8.313  0.1442  0.5418 -0.0686
   86loPI    C1 1361   7.819   8.981  10.844  0.2591 -0.0841  0.3205
   86loPI    C2 1362   7.631   8.696  11.053  0.0845 -0.1482  0.0805
   86loPI    C3 1363   7.487   9.070  11.048  0.0363 -0.1678  0.0010
   86loPI   PO4 1364   7.961   8.861  10.580 -0.4235  0.1774 -0.2453
   86loPI   GL1 1365   7.815   8.823  10.213  0.2172 -0.0926  0.0022
   86loPI   GL2 1366   7.982   8.873  10.006 -0.3650 -0.1439 -0.0192
   86loPI   C1A 1367   7.397   8.745  10.033 -0.1604 -0.2233 -0.3992
   86loPI   C2A 1368   7.332   9.006   9.638 -0.0917 -0.0527  0.1216
   86loPI   C3A 1369   7.011   8.959   9.226  0.2189  0.1347  0.0095
   86loPI   C4A 1370   7.211   8.853   8.766  0.1053 -0.0103  0.0859
   86loPI   C5A 1371   7.320   8.862   8.229  0.5188 -0.2627  0.1167
   86loPI   C6A 1372   7.396   8.603   7.967  0.1931 -0.2085  0.1371
   86loPI   C1B 1373   7.779   8.645   9.732  0.2236  0.1711 -0.3998
   86loPI   C2B 1374   7.856   8.513   9.259 -0.0115  0.1254 -0.0857
   86loPI   C3B 1375   7.772   8.050   9.150  0.0459 -0.1121 -0.4298
   86loPI   C4B 1376   7.529   7.732   9.207  0.0679 -0.4244 -0.1695
   87loPI    C1 1377  10.877   4.895  11.033 -0.1868  0.3554  0.2435
   87loPI    C2 1378  11.155   4.608  11.026 -0.1629  0.3822  0.0209
   87loPI    C3 1379  10.837   4.572  11.265 -0.0769  0.2495  0.1169
   87loPI   PO4 1380  10.780   4.919  10.821  0.1543 -0.1549 -0.1997
   87loPI   GL1 1381  10.876   4.990  10.372 -0.3816  0.1263  0.1387
   87loPI   GL2 1382  10.530   4.788  10.428 -0.0573  0.1906 -0.0338
   87loPI   C1A 1383  10.655   4.981   9.980  0.0652 -0.0257  0.0368
   87loPI   C2A 1384  10.728   5.015   9.492  0.1410  0.3444 -0.2197
   87loPI   C3A 1385  10.716   5.055   9.116 -0.0617 -0.0808  0.0739
   87loPI   C4A 1386  10.590   5.019   8.669  0.0867  0.4341 -0.0324
   87loPI   C5A 1387  10.722   5.028   8.246 -0.0299  0.3990  0.1488
   87loPI   C6A 1388  10.569   4.736   7.946  0.0028  0.2525 -0.1978
   87loPI   C1B 1389  10.367   4.638  10.029 -0.1461 -0.0494  0.2095
   87loPI   C2B 1390  10.309   4.662   9.665 -0.2347 -0.1199 -0.3967
   87loPI   C3B 1391  10.281   4.684   9.142 -0.1573 -0.1338 -0.2110
   87loPI   C4B 1392  10.220   4.708   8.756 -0.1225 -0.4185 -0.0924
   88loPI    C1 1393  17.799   7.725  10.366 -0.0800  0.0308  0.2110
   88loPI    C2 1394  18.007   7.881  10.671  0.0328  0.1283  0.0854
   88loPI    C3 1395  18.018   7.487  10.601  0.1703  0.1319  0.0839
   88loPI   PO4 1396  17.910   7.806  10.143  0.4027  0.0264  0.2534
   88loPI   GL1 1397  18.057   7.560   9.683 -0.0832 -0.4006  0.1435
   88loPI   GL2 1398  17.879   7.695   9.453  0.2264  0.2162  0.1565
   88loPI   C1A 1399  18.313   7.370   9.409 -0.1064  0.0219 -0.0370
   88loPI   C2A 1400  18.340   7.188   9.004 -0.1762 -0.0867  0.0587
   88loPI   C3A 1401  18.485   7.088   8.546 -0.1934 -0.2467  0.3472
   88loPI   C4A 1402  18.628   7.137   8.137 -0.1981  0.1026  0.0524
   88loPI   C5A 1403  18.562   7.404   7.767  0.1890 -0.0844  0.0840
   88loPI   C6A 1404  18.425   7.624   7.395 -0.1379  0.1015  0.0716
   88loPI   C1B 1405  17.997   7.504   9.034  0.2323  0.0658 -0.1913
   88loPI   C2B 1406  18.064   7.397   8.670  0.1988 -0.0670 -0.2873
   88loPI   C3B 1407  18.071   7.406   8.295  0.0115  0.2854 -0.0132
   88loPI   C4B 1408  18.051   7.527   7.895  0.1959 -0.1425 -0.0272
   89loPI    C1 1409  14.344  18.271   9.918 -0.2567 -0.2021  0.0936
   89loPI    C2 1410  14.583  18.076  10.172 -0.0014 -0.2642 -0.1885
   89loPI    C3 1411  14.466  18.449  10.255  0.0960 -0.2762  0.0097
   89loPI   PO4 1412  14.467  18.231   9.696 -0.1950  0.0092  0.1924
   89loPI   GL1 1413  14.496  18.286   9.313 -0.1737 -0.0423 -0.0120
   89loPI   GL2 1414  14.642  17.931   9.324  0.0508 -0.3420 -0.0866
   89loPI   C1A 1415  14.461  18.415   8.868 -0.0349 -0.1265 -0.1626
   89loPI   C2A 1416  14.379  18.651   8.513 -0.0239 -0.1419 -0.3883
   89loPI   C3A 1417  14.494  18.754   8.176  0.3062 -0.2955  0.0572
   89loPI   C4A 1418  14.659  18.719   7.717 -0.4970  0.3881 -0.1029
   89loPI   C5A 1419  14.968  18.901   7.443 -0.3459  0.0559  0.1361
   89loPI   C6A 1420  15.053  19.180   7.080  0.2181  0.1552 -0.3246
   89loPI   C1B 1421  14.631  17.916   8.818  0.3135  0.1287 -0.2281
   89loPI   C2B 1422  14.694  17.712   8.501 -0.1068 -0.1742  0.3605
   89loPI   C3B 1423  14.670  17.494   8.128 -0.0193 -0.2148  0.0040
   89loPI   C4B 1424  15.020  17.324   7.939 -0.3088  0.2643  0.0697
   90loPI    C1 1425  15.251  14.303   9.956  0.1408  0.0029  0.1608
   90loPI    C2 1426  15.007  14.233  10.265 -0.1633  0.4279  0.0256
   90loPI    C3 1427  15.296  14.507  10.297 -0.0197  0.2784  0.0208
   90loPI   PO4 1428  15.437  14.215   9.884  0.1316 -0.2181  0.2655
   90loPI   GL1 1429  15.871  14.162   9.677  0.2394 -0.3861  0.0786
   90loPI   GL2 1430  16.227  14.184   9.816  0.4646 -0.0407 -0.0144
   90loPI   C1A 1431  15.924  13.963   9.366 -0.0259 -0.1031 -0.1824
   90loPI   C2A 1432  15.860  13.744   8.908  0.0259 -0.2263 -0.0159
   90loPI   C3A 1433  16.107  13.658   8.514  0.2943  0.0443  0.1362
   90loPI   C4A 1434  16.322  13.606   8.122 -0.1758  0.1898  0.2894
   90loPI   C5A 1435  16.700  13.555   7.872  0.1677 -0.0376  0.4706
   90loPI   C6A 1436  16.735  13.400   7.547 -0.1205 -0.3211 -0.1272
   90loPI   C1B 1437  16.452  14.450   9.562  0.2991  0.0315  0.0568
   90loPI   C2B 1438  16.741  14.729   9.510 -0.2840 -0.0527 -0.4505
   90loPI   C3B 1439  16.991  14.983   9.202  0.2852  0.0599  0.1392
   90loPI   C4B 1440  16.939  15.291   8.743  0.1558 -0.0151 -0.0420
   91loPI    C1 1441  12.488  18.764  10.461  0.2526  0.1936  0.2539
   91loPI    C2 1442  12.200  18.962  10.266  0.2753  0.1952  0.2219
   91loPI    C3 1443  12.106  18.720  10.570  0.2255  0.0787  0.1148
   91loPI   PO4 1444  12.674  18.736  10.178 -0.0169  0.1314 -0.0537
   91loPI   GL1 1445  12.631  18.592   9.788  0.1070  0.0740 -0.0637
   91loPI   GL2 1446  12.324  18.739   9.846  0.0384  0.0305  0.0513
   91loPI   C1A 1447  12.649  18.431   9.406  0.0568  0.0241  0.1589
   91loPI   C2A 1448  12.590  18.408   9.043 -0.0712 -0.1191 -0.0415
   91loPI   C3A 1449  12.671  18.379   8.757 -0.2903 -0.1865  0.0614
   91loPI   C4A 1450  12.733  18.370   8.362 -0.1463  0.1737 -0.0745
   91loPI   C5A 1451  12.657  18.489   7.863 -0.3403 -0.0324  0.1594
   91loPI   C6A 1452  12.527  18.875   7.693 -0.1754 -0.0812  0.0379
   91loPI   C1B 1453  12.203  18.622   9.395  0.2121  0.1641  0.4486
   91loPI   C2B 1454  12.245  18.720   8.962 -0.0182  0.0784 -0.1537
   91loPI   C3B 1455  12.256  18.545   8.573 -0.1204  0.0819  0.3260
   91loPI   C4B 1456  12.157  18.599   8.164 -0.0825 -0.1540  0.1349
   92loPI    C1 1457  10.575   9.661  10.300  0.1056  0.0401  0.0540
   92loPI    C2 1458  10.747   9.353  10.488  0.0177 -0.0024  0.0656
   92loPI    C3 1459  10.693   9.699  10.680 -0.1358 -0.0679  0.1419
   92loPI   PO4 1460  10.607   9.575  10.025 -0.1210 -0.1120 -0.0713
   92loPI   GL1 1461  10.548   9.721   9.653 -0.2912  0.0822  0.3819
   92loPI   GL2 1462  10.427   9.533   9.400  0.3827 -0.2535  0.1025
   92loPI   C1A 1463  10.822   9.734   9.167 -0.1695 -0.0065 -0.0874
   92loPI   C2A 1464  10.813   9.790   8.777 -0.3107 -0.0381 -0.0605
   92loPI   C3A 1465  10.629   9.881   8.308 -0.0562 -0.3278 -0.1355
   92loPI   C4A 1466  10.611  10.202   7.966 -0.0813  0.1515 -0.0504
   92loPI   C5A 1467  10.567  10.420   7.520 -0.2226  0.3213  0.1569
   92loPI   C6A 1468  10.318  10.494   7.147 -0.3031  0.1056  0.2756
   92loPI   C1B 1469  10.314   9.357   9.070 -0.0084 -0.2971 -0.2058
   92loPI   C2B 1470  10.085   9.138   8.780 -0.1030 -0.0302  0.0665
   92loPI   C3B 1471   9.890   9.008   8.424 -0.1319 -0.0386  0.2180
   92loPI   C4B 1472   9.602   8.743   8.283  0.1261 -0.0851  0.2492
   93loPI    C1 1473  16.555   6.873  10.086  0.0775 -0.2594 -0.0401
   93loPI    C2 1474  16.294   7.169  10.022  0.0949 -0.2112  0.1080
   93loPI    C3 1475  16.300   6.980  10.375  0.3492 -0.1218  0.1537
   93loPI   PO4 1476  16.643   6.796   9.944  0.0282 -0.0391  0.2831
   93loPI   GL1 1477  16.876   6.813   9.672  0.0173 -0.1622 -0.1096
   93loPI   GL2 1478  17.126   6.722   9.661 -0.1656 -0.0388 -0.0139
   93loPI   C1A 1479  16.721   6.665   9.139 -0.2316  0.1400  0.4771
   93loPI   C2A 1480  17.073   6.525   8.831  0.3149  0.2642 -0.1485
   93loPI   C3A 1481  17.156   6.368   8.401  0.0694 -0.1393  0.2537
   93loPI   C4A 1482  16.979   6.214   8.077  0.1023  0.0907 -0.0782
   93loPI   C5A 1483  16.917   5.866   7.855  0.0723  0.2136 -0.0008
   93loPI   C6A 1484  16.950   5.429   7.660  0.2943  0.1083 -0.3592
   93loPI   C1B 1485  17.315   6.823   9.331  0.1403  0.0583  0.2993
   93loPI   C2B 1486  17.531   6.713   8.989 -0.1572 -0.0978 -0.1866
   93loPI   C3B 1487  17.615   6.595   8.561 -0.0959 -0.2966  0.0342
   93loPI   C4B 1488  17.698   6.794   8.101 -0.1677  0.2085 -0.1718
   94loPI    C1 1489   3.489   9.160  10.503 -0.0435 -0.0316  0.1107
   94loPI    C2 1490   3.256   9.061  10.813 -0.1375  0.3665  0.1731
   94loPI    C3 1491   3.643   9.144  10.872  0.0320 -0.2932  0.0698
   94loPI   PO4 1492   3.393   9.031  10.319  0.1168 -0.1909  0.2544
   94loPI   GL1 1493   3.309   9.118   9.873 -0.1058 -0.0787  0.0311
   94loPI   GL2 1494   3.090   8.954   9.806 -0.1088 -0.2038 -0.0600
   94loPI   C1A 1495   3.431   9.086   9.465  0.1152  0.2487  0.0424
   94loPI   C2A 1496   3.472   8.947   9.044  0.3143 -0.1941  0.1551
   94loPI   C3A 1497   3.479   8.785   8.631 -0.0369  0.0972 -0.3009
   94loPI   C4A 1498   3.328   8.819   8.189 -0.0523  0.0822  0.0256
   94loPI   C5A 1499   2.980   8.587   8.088 -0.0662  0.3372 -0.0908
   94loPI   C6A 1500   2.760   8.556   7.700  0.1163 -0.1024 -0.0234
   94loPI   C1B 1501   3.125   8.709   9.481  0.0265  0.1636 -0.2031
   94loPI   C2B 1502   3.106   8.505   9.115  0.1038  0.2861 -0.4438
   94loPI   C3B 1503   3.140   8.267   8.768  0.0149 -0.0161  0.0161
   94loPI   C4B 1504   3.118   8.110   8.361  0.0745  0.2131  0.0213
   95loPI    C1 1505  15.468  15.561  10.321 -0.0335  0.0160 -0.3238
   95loPI    C2 1506  15.267  15.282  10.527 -0.2074  0.1235 -0.3462
   95loPI    C3 1507  15.114  15.649  10.485  0.1581  0.3148 -0.0600
   95loPI   PO4 1508  15.620  15.386  10.151  0.0726  0.1140 -0.0017
   95loPI   GL1 1509  15.836  15.475   9.654  0.1594  0.0384 -0.0716
   95loPI   GL2 1510  15.808  15.183   9.468 -0.0219 -0.3534  0.3235
   95loPI   C1A 1511  15.712  15.825   9.463 -0.1497  0.2624 -0.0183
   95loPI   C2A 1512  15.756  16.090   9.154  0.1357 -0.1537  0.0904
   95loPI   C3A 1513  15.796  16.126   8.676 -0.0427  0.1115  0.4053
   95loPI   C4A 1514  16.134  16.070   8.426 -0.1646  0.1440 -0.1004
   95loPI   C5A 1515  16.396  16.123   7.995  0.0160  0.1545  0.1958
   95loPI   C6A 1516  16.479  16.208   7.587  0.0750  0.2799  0.1816
   95loPI   C1B 1517  16.190  15.082   9.224  0.0545  0.0434  0.0001
   95loPI   C2B 1518  16.535  14.795   9.071  0.0439 -0.0121 -0.0705
   95loPI   C3B 1519  16.889  14.811   8.771  0.4492  0.0761  0.2188
   95loPI   C4B 1520  17.173  14.874   8.365 -0.0601 -0.3117  0.2201
   96loPI    C1 1521   7.538   2.589  10.888  0.0279  0.1425 -0.0139
   96loPI    C2 1522   7.157   2.653  10.992 -0.0967 -0.1727 -0.2571
   96loPI    C3 1523   7.435   2.595  11.274 -0.2087  0.1499 -0.0756
   96loPI   PO4 1524   7.563   2.490  10.724 -0.0541 -0.0287 -0.0137
   96loPI   GL1 1525   7.638   2.572  10.332  0.1359 -0.1531 -0.0232
   96loPI   GL2 1526   7.697   2.253  10.165  0.0934 -0.0537  0.1964
   96loPI   C1A 1527   7.798   2.720   9.948 -0.2405 -0.3960  0.0809
   96loPI   C2A 1528   7.715   2.886   9.613  0.0816  0.2212  0.2161
   96loPI   C3A 1529   7.771   2.751   9.174  0.0906  0.1411  0.0970
   96loPI   C4A 1530   7.710   2.855   8.772  0.0850 -0.0420  0.1843
   96loPI   C5A 1531   7.726   2.932   8.355 -0.3005 -0.4738  0.0768
   96loPI   C6A 1532   8.032   2.746   7.968 -0.0274  0.1234  0.2772
   96loPI   C1B 1533   7.760   2.301   9.746 -0.2285  0.2347 -0.0783
   96loPI   C2B 1534   7.846   2.286   9.302 -0.3561 -0.0229  0.1235
   96loPI   C3B 1535   7.813   2.329   8.817 -0.0437  0.0424  0.0901
   96loPI   C4B 1536   8.051   2.236   8.422  0.1970 -0.2195  0.1110
   97loPI    C1 1537   5.128  17.390  10.421  0.0305 -0.4045  0.0653
   97loPI    C2 1538   4.888  17.708  10.450  0.2933 -0.1822 -0.1377
   97loPI    C3 1539   4.789  17.365  10.631 -0.0007  0.0079  0.0709
   97loPI   PO4 1540   5.169  17.398  10.145  0.0415 -0.1910 -0.0814
   97loPI   GL1 1541   5.190  17.232   9.824 -0.1874 -0.2960 -0.0541
   97loPI   GL2 1542   4.946  17.168   9.656 -0.2169  0.4368 -0.2919
   97loPI   C1A 1543   5.219  17.575   9.534  0.2570  0.1168  0.0319
   97loPI   C2A 1544   5.280  17.483   9.074 -0.1710 -0.2685 -0.2021
   97loPI   C3A 1545   5.286  17.535   8.587  0.1555  0.0866  0.0265
   97loPI   C4A 1546   5.561  17.621   8.125  0.0418 -0.2215 -0.1756
   97loPI   C5A 1547   5.408  17.830   7.729 -0.0889  0.1311 -0.2458
   97loPI   C6A 1548   5.043  17.960   7.678 -0.1856 -0.2495  0.0664
   97loPI   C1B 1549   4.852  17.276   9.320 -0.1542  0.0400 -0.2141
   97loPI   C2B 1550   4.855  17.281   8.759 -0.0406  0.0251 -0.0713
   97loPI   C3B 1551   4.970  17.304   8.279  0.0988 -0.0258  0.0802
   97loPI   C4B 1552   5.014  17.318   7.816  0.4735  0.0093 -0.2738
   98loPI    C1 1553  12.309   3.780  10.473  0.0588  0.0543 -0.1302
   98loPI    C2 1554  12.518   3.505  10.675  0.1553  0.3952  0.2477
   98loPI    C3 1555  12.234   3.716  10.861 -0.1744  0.2989 -0.1322
   98loPI   PO4 1556  12.228   3.619  10.264  0.1359  0.0152 -0.1217
   98loPI   GL1 1557  12.272   3.247  10.037 -0.0168  0.1937 -0.1455
   98loPI   GL2 1558  12.495   2.969  10.089  0.0246  0.2009  0.0835
   98loPI   C1A 1559  11.962   3.098   9.836 -0.0841  0.2257  0.1593
   98loPI   C2A 1560  11.759   3.063   9.358  0.1752 -0.0897  0.1036
   98loPI   C3A 1561  11.847   2.999   9.001  0.0957 -0.0011 -0.2709
   98loPI   C4A 1562  11.769   3.077   8.507 -0.3362  0.1086 -0.2854
   98loPI   C5A 1563  11.812   3.061   8.143 -0.0115 -0.2603  0.1410
   98loPI   C6A 1564  12.061   2.907   7.825  0.3121 -0.0801  0.0018
   98loPI   C1B 1565  12.370   2.913   9.614 -0.3583  0.2207  0.3073
   98loPI   C2B 1566  12.282   2.736   9.205 -0.3247  0.1569 -0.0272
   98loPI   C3B 1567  12.300   2.897   8.750 -0.3068  0.1562 -0.1227
   98loPI   C4B 1568  12.165   2.894   8.385  0.0179 -0.3930 -0.0256
   99loPI    C1 1569  18.489  14.272  10.027  0.1043 -0.1720 -0.0892
   99loPI    C2 1570  18.244  14.319  10.339  0.1388 -0.0914 -0.0738
   99loPI    C3 1571  18.540  14.050  10.356  0.1179 -0.1132 -0.0516
   99loPI   PO4 1572  18.314  14.397   9.862  0.0972 -0.1055  0.2272
   99loPI   GL1 1573  18.013  14.599   9.624  0.1599 -0.3746  0.0596
   99loPI   GL2 1574  17.679  14.379   9.421  0.2355 -0.0057  0.2359
   99loPI   C1A 1575  18.233  14.519   9.229 -0.0655 -0.0728 -0.0968
   99loPI   C2A 1576  18.547  14.200   8.951  0.0952  0.4964  0.2685
   99loPI   C3A 1577  18.637  14.112   8.434  0.2043  0.1436 -0.4176
   99loPI   C4A 1578  18.480  13.922   8.024  0.2351  0.0501 -0.1573
   99loPI   C5A 1579  18.082  13.936   7.783  0.0467 -0.2108  0.5630
   99loPI   C6A 1580  17.947  13.934   7.330 -0.0801  0.1100 -0.1613
   99loPI   C1B 1581  17.960  14.098   9.133  0.1001 -0.3667 -0.3550
   99loPI   C2B 1582  18.123  13.914   8.740  0.3162  0.1868 -0.2466
   99loPI   C3B 1583  18.107  13.708   8.248 -0.0604  0.3532 -0.3236
   99loPI   C4B 1584  18.053  13.431   8.076  0.0127  0.0222 -0.2736
  100loPI    C1 1585   6.579  13.928  10.428  0.1261  0.0112 -0.0051
  100loPI    C2 1586   6.506  13.536  10.401 -0.2748  0.0908 -0.1364
  100loPI    C3 1587   6.603  13.697  10.754 -0.4012 -0.0799 -0.0220
  100loPI   PO4 1588   6.502  14.047  10.176  0.1120  0.0103 -0.2556
  100loPI   GL1 1589   6.206  14.132   9.896 -0.1184  0.1519  0.1968
  100loPI   GL2 1590   5.878  14.121   9.766  0.2431 -0.0894  0.2570
  100loPI   C1A 1591   6.259  13.888   9.496 -0.3032  0.0475 -0.3993
  100loPI   C2A 1592   6.441  14.058   9.075 -0.0588  0.1706 -0.2058
  100loPI   C3A 1593   6.438  14.107   8.665 -0.0882 -0.0207 -0.3187
  100loPI   C4A 1594   6.492  14.045   8.239 -0.0759 -0.0628 -0.3886
  100loPI   C5A 1595   6.457  14.213   7.877 -0.0305  0.1533 -0.0415
  100loPI   C6A 1596   6.422  14.200   7.392  0.1348  0.1136  0.2925
  100loPI   C1B 1597   5.908  14.248   9.326  0.1568  0.1817 -0.1596
  100loPI   C2B 1598   5.979  14.344   8.884 -0.1078  0.1709  0.3257
  100loPI   C3B 1599   6.060  14.385   8.421  0.0915 -0.2545 -0.1020
  100loPI   C4B 1600   6.026  14.437   8.095  0.0827  0.3108  0.0680
  101loPI    C1 1601   6.780  10.898  10.305  0.1992  0.2673  0.1543
  101loPI    C2 1602   6.602  11.252  10.360  0.0545  0.1827  0.2379
  101loPI    C3 1603   6.803  11.081  10.660  0.0328  0.1439  0.2304
  101loPI   PO4 1604   6.640  10.764  10.119 -0.1187 -0.4720 -0.0374
  101loPI   GL1 1605   6.786  10.828   9.710 -0.2340  0.0176  0.2656
  101loPI   GL2 1606   6.922  10.895   9.444 -0.0333  0.0523  0.0720
  101loPI   C1A 1607   6.463  11.144   9.672  0.3318 -0.0942  0.6107
  101loPI   C2A 1608   6.396  11.266   9.248  0.0178 -0.2270 -0.0632
  101loPI   C3A 1609   6.284  11.121   8.816  0.0486  0.0061  0.0558
  101loPI   C4A 1610   6.038  11.238   8.509  0.1810  0.0501  0.1942
  101loPI   C5A 1611   5.821  11.318   8.077 -0.2715 -0.0198  0.4043
  101loPI   C6A 1612   5.427  11.227   7.917  0.0883  0.1422 -0.0394
  101loPI   C1B 1613   6.922  10.987   8.967  0.0667 -0.0692  0.3002
  101loPI   C2B 1614   6.724  11.129   8.604 -0.2049 -0.0175  0.1109
  101loPI   C3B 1615   6.490  11.289   8.297 -0.1272  0.1882 -0.2632
  101loPI   C4B 1616   6.647  11.424   8.012  0.0776  0.1660 -0.2540
  102loPI    C1 1617   1.318   0.423  10.115 -0.0095  0.1058 -0.2613
  102loPI    C2 1618   0.956   0.285  10.214  0.0237  0.1904 -0.0144
  102loPI    C3 1619   1.016   0.679  10.175  0.0855  0.1756 -0.0715
  102loPI   PO4 1620   1.350   0.225   9.811 -0.1153 -0.3299 -0.1927
  102loPI   GL1 1621   1.512   0.080   9.436  0.2213  0.1445 -0.2100
  102loPI   GL2 1622   1.067   0.009   9.455 -0.2579  0.2316  0.0183
  102loPI   C1A 1623   1.748   0.043   9.107  0.0052 -0.1639  0.1853
  102loPI   C2A 1624   1.687  -0.003   8.724 -0.1783  0.0031  0.4724
  102loPI   C3A 1625   1.700  -0.134   8.386  0.4742  0.0036  0.0652
  102loPI   C4A 1626   1.856  -0.176   7.974 -0.0653 -0.2992 -0.4260
  102loPI   C5A 1627   1.703  -0.130   7.532  0.1064  0.0490  0.2202
  102loPI   C6A 1628   1.435  -0.112   7.250  0.1139  0.0187  0.1931
  102loPI   C1B 1629   1.227   0.086   9.032 -0.0490  0.1058  0.3599
  102loPI   C2B 1630   1.214   0.146   8.536 -0.0637  0.1768  0.2527
  102loPI   C3B 1631   1.241  -0.078   8.162 -0.0674 -0.0443  0.1177
  102loPI   C4B 1632   1.179  -0.209   7.748 -0.0083  0.1833  0.2739
  103loPI    C1 1633   8.809   8.118  10.795  0.0612 -0.1187  0.1474
  103loPI    C2 1634   8.944   7.816  11.019  0.1169 -0.1096  0.1263
  103loPI    C3 1635   8.940   8.187  11.167  0.1640 -0.1019  0.1082
  103loPI   PO4 1636   8.896   8.107  10.586  0.0105 -0.1602  0.0169
  103loPI   GL1 1637   8.911   7.960  10.257 -0.3555 -0.1661 -0.3117
  103loPI   GL2 1638   8.968   7.608  10.153  0.0936  0.0742  0.3083
  103loPI   C1A 1639   8.656   7.941   9.954  0.1016  0.0592 -0.0726
  103loPI   C2A 1640   8.427   7.893   9.486 -0.3600  0.1985  0.1182
  103loPI   C3A 1641   8.387   7.973   9.104 -0.1755 -0.1346  0.0892
  103loPI   C4A 1642   8.609   7.978   8.716  0.0828 -0.2573  0.2995
  103loPI   C5A 1643   8.456   8.103   8.314 -0.0289  0.0717  0.0094
  103loPI   C6A 1644   8.392   8.396   7.988  0.0136 -0.1003 -0.0049
  103loPI   C1B 1645   9.019   7.639   9.692  0.0599 -0.1958 -0.0005
  103loPI   C2B 1646   8.974   7.681   9.252 -0.3411  0.2195  0.1366
  103loPI   C3B 1647   9.017   7.735   8.732  0.1196  0.0254 -0.0480
  103loPI   C4B 1648   8.732   7.660   8.308  0.1616 -0.0693 -0.1707
  104loPI    C1 1649  16.806  13.316  10.002  0.0193  0.1752 -0.0011
  104loPI    C2 1650  16.651  13.067  10.275  0.4290 -0.1266 -0.0345
  104loPI    C3 1651  16.658  12.962   9.889  0.1771  0.1451 -0.1167
  104loPI   PO4 1652  16.900  13.501  10.039 -0.0679  0.1817 -0.1050
  104loPI   GL1 1653  16.916  13.747   9.608  0.1038 -0.1627 -0.0133
  104loPI   GL2 1654  17.228  13.542   9.662 -0.2799  0.1711  0.2738
  104loPI   C1A 1655  17.068  14.110   9.332  0.0324  0.1417 -0.2189
  104loPI   C2A 1656  16.788  14.346   9.115  0.0680  0.2171  0.0019
  104loPI   C3A 1657  16.594  14.413   8.660  0.0712 -0.0100 -0.1755
  104loPI   C4A 1658  16.967  14.443   8.299 -0.1215 -0.0520  0.1780
  104loPI   C5A 1659  16.856  14.568   7.861  0.0597  0.0117  0.0009
  104loPI   C6A 1660  16.861  14.863   7.627  0.0332  0.1169  0.0812
  104loPI   C1B 1661  17.496  13.470   9.277  0.1652 -0.0493  0.3817
  104loPI   C2B 1662  17.753  13.372   8.958  0.0351  0.3601  0.1771
  104loPI   C3B 1663  17.819  13.449   8.556  0.3404  0.4110  0.1726
  104loPI   C4B 1664  17.538  13.383   8.158 -0.2805 -0.0470 -0.0953
  105loPI    C1 1665   5.283   4.951  10.851  0.0086 -0.1215 -0.0738
  105loPI    C2 1666   5.664   4.854  10.924  0.0031 -0.1167 -0.0386
  105loPI    C3 1667   5.489   5.148  11.132  0.0645  0.0697 -0.2464
  105loPI   PO4 1668   5.319   4.964  10.514  0.3181  0.1693 -0.2589
  105loPI   GL1 1669   5.479   5.083  10.099 -0.0647 -0.2061  0.0533
  105loPI   GL2 1670   5.682   5.384  10.142 -0.0701 -0.1816 -0.4628
  105loPI   C1A 1671   5.296   5.112   9.722 -0.1691  0.1641 -0.2801
  105loPI   C2A 1672   5.413   5.168   9.306 -0.0047  0.0594  0.0040
  105loPI   C3A 1673   5.548   5.073   8.875  0.2485  0.2150 -0.1529
  105loPI   C4A 1674   5.435   4.969   8.381  0.3863  0.0065  0.0979
  105loPI   C5A 1675   5.111   5.074   8.133  0.0137 -0.3105  0.0879
  105loPI   C6A 1676   4.887   4.798   7.879  0.2873  0.0358  0.0787
  105loPI   C1B 1677   5.766   5.320   9.639 -0.0272 -0.5157 -0.4417
  105loPI   C2B 1678   5.890   5.236   9.284 -0.1206 -0.1814  0.0129
  105loPI   C3B 1679   6.150   5.190   8.860  0.0487 -0.1360  0.1641
  105loPI   C4B 1680   6.577   5.270   8.600 -0.2366  0.0430 -0.0100
  106loPI    C1 1681   5.689   4.373  10.918 -0.3074 -0.0095 -0.1975
  106loPI    C2 1682   5.752   4.076  11.178 -0.1497  0.1404 -0.0621
  106loPI    C3 1683   5.449   4.054  10.918 -0.0815 -0.1823 -0.1178
  106loPI   PO4 1684   5.889   4.346  10.773 -0.1702  0.1275  0.0590
  106loPI   GL1 1685   5.865   4.384  10.339 -0.1889 -0.1773 -0.3665
  106loPI   GL2 1686   5.782   4.791  10.443 -0.1555  0.2025 -0.1111
  106loPI   C1A 1687   5.905   4.453   9.813  0.1864  0.1259  0.1685
  106loPI   C2A 1688   5.922   4.318   9.461 -0.1125 -0.0515  0.0116
  106loPI   C3A 1689   5.881   4.162   8.983 -0.2292 -0.0549  0.0697
  106loPI   C4A 1690   5.809   4.211   8.482  0.1883 -0.1330  0.0252
  106loPI   C5A 1691   5.962   4.552   8.200  0.0165 -0.2177 -0.0203
  106loPI   C6A 1692   5.982   4.882   7.908 -0.0566 -0.3096 -0.0709
  106loPI   C1B 1693   5.950   4.894  10.107 -0.0049  0.1658 -0.1629
  106loPI   C2B 1694   6.086   4.900   9.641  0.0673 -0.0466  0.0363
  106loPI   C3B 1695   6.043   4.767   9.224  0.0984  0.0659 -0.0173
  106loPI   C4B 1696   5.905   4.707   8.782  0.3185 -0.0363 -0.1690
  107loPI    C1 1697  11.875  12.079   9.855 -0.0866  0.0708 -0.1283
  107loPI    C2 1698  12.240  12.243   9.841 -0.0640  0.0040 -0.3573
  107loPI    C3 1699  12.029  12.254  10.180  0.0709  0.2151 -0.2784
  107loPI   PO4 1700  11.887  11.906   9.696  0.0966 -0.2909  0.5145
  107loPI   GL1 1701  12.135  11.677   9.275  0.5096 -0.1310  0.2098
  107loPI   GL2 1702  12.068  11.406   9.217 -0.0805  0.4665 -0.2397
  107loPI   C1A 1703  11.943  11.920   8.985  0.2178  0.1871 -0.2323
  107loPI   C2A 1704  11.713  12.071   8.693  0.0308  0.0606  0.2601
  107loPI   C3A 1705  11.956  12.219   8.441  0.0242 -0.1003  0.4204
  107loPI   C4A 1706  12.074  12.409   8.092 -0.0545  0.1512  0.0678
  107loPI   C5A 1707  12.043  12.385   7.661  0.0545 -0.0310  0.2090
  107loPI   C6A 1708  12.011  12.708   7.420 -0.0682 -0.0413  0.0364
  107loPI   C1B 1709  12.193  11.495   8.783 -0.2930  0.0944  0.0799
  107loPI   C2B 1710  11.917  11.691   8.479 -0.2869  0.0818 -0.1461
  107loPI   C3B 1711  11.758  11.793   8.173 -0.3593 -0.0434 -0.1286
  107loPI   C4B 1712  11.681  11.672   7.743 -0.0076 -0.1533 -0.2058
  108loPI    C1 1713  13.794   7.096  10.113 -0.1580 -0.0560  0.0722
  108loPI    C2 1714  13.857   6.920  10.467 -0.2201  0.0630  0.1434
  108loPI    C3 1715  13.760   7.308  10.451 -0.0485  0.1013 -0.0135
  108loPI   PO4 1716  13.953   7.018   9.955 -0.2373  0.1205 -0.0914
  108loPI   GL1 1717  14.117   6.988   9.549 -0.2388 -0.2526  0.1501
  108loPI   GL2 1718  14.122   7.263   9.471 -0.0637 -0.0937 -0.0011
  108loPI   C1A 1719  14.237   6.874   9.133 -0.2242  0.0821 -0.2771
  108loPI   C2A 1720  14.215   6.969   8.691  0.2253 -0.1653  0.2390
  108loPI   C3A 1721  14.093   6.875   8.230 -0.4887 -0.1548 -0.1067
  108loPI   C4A 1722  13.940   6.994   7.866 -0.0522 -0.0504 -0.0441
  108loPI   C5A 1723  13.582   6.972   7.630  0.2493  0.2958 -0.1513
  108loPI   C6A 1724  13.151   7.056   7.758  0.1961  0.1426 -0.2041
  108loPI   C1B 1725  14.019   7.309   8.997 -0.1434 -0.0995 -0.0896
  108loPI   C2B 1726  14.222   7.500   8.632  0.1649 -0.0118 -0.1414
  108loPI   C3B 1727  14.423   7.323   8.301  0.4573 -0.1099 -0.0099
  108loPI   C4B 1728  14.730   7.419   7.863  0.2016  0.2894  0.0191
  109loPI    C1 1729  14.143  10.845  10.073  0.2513 -0.1352 -0.1327
  109loPI    C2 1730  14.379  11.164  10.126  0.0819 -0.0190 -0.0682
  109loPI    C3 1731  14.142  11.039  10.423  0.2467 -0.2888 -0.0466
  109loPI   PO4 1732  14.193  10.758   9.783  0.1973 -0.2462  0.1231
  109loPI   GL1 1733  14.184  10.922   9.425  0.0850 -0.1034  0.1714
  109loPI   GL2 1734  14.084  11.262   9.269 -0.2236  0.3380  0.0169
  109loPI   C1A 1735  14.170  10.819   9.027  0.1334 -0.0285 -0.1593
  109loPI   C2A 1736  14.214  10.825   8.632 -0.1453 -0.2131 -0.1020
  109loPI   C3A 1737  14.358  10.813   8.174 -0.0646 -0.4659  0.0353
  109loPI   C4A 1738  14.041  10.861   7.780 -0.3335 -0.2589 -0.2727
  109loPI   C5A 1739  13.852  11.059   7.394 -0.0337  0.0547 -0.1002
  109loPI   C6A 1740  13.871  11.381   7.241  0.1233  0.1448  0.0886
  109loPI   C1B 1741  14.154  11.268   8.811 -0.0970 -0.2434 -0.0795
  109loPI   C2B 1742  14.261  11.277   8.343 -0.1966  0.2033  0.1488
  109loPI   C3B 1743  14.507  11.199   7.907  0.0096  0.3005 -0.1602
  109loPI   C4B 1744  14.851  11.125   7.633 -0.1552  0.1121 -0.0183
  110loPI    C1 1745  10.638   8.841  10.493 -0.0250  0.1706  0.0563
  110loPI    C2 1746  10.599   8.497  10.694  0.2095  0.0954 -0.0237
  110loPI    C3 1747  10.510   8.843  10.872 -0.0288 -0.0050  0.0570
  110loPI   PO4 1748  10.508   8.793  10.297  0.2177 -0.4864  0.2247
  110loPI   GL1 1749  10.494   8.681   9.881 -0.0759 -0.1636 -0.3046
  110loPI   GL2 1750  10.529   8.375  10.045  0.0424  0.4062  0.0800
  110loPI   C1A 1751  10.582   8.516   9.489 -0.0545 -0.1464  0.2297
  110loPI   C2A 1752  10.658   8.358   9.167  0.0269  0.1388 -0.1076
  110loPI   C3A 1753  10.673   8.255   8.693  0.2023 -0.0925  0.1416
  110loPI   C4A 1754  10.622   8.211   8.283  0.1981  0.1484  0.0010
  110loPI   C5A 1755  10.472   8.519   7.983  0.1273  0.0490  0.3794
  110loPI   C6A 1756  10.367   8.734   7.578 -0.0852  0.1044 -0.2648
  110loPI   C1B 1757  10.317   8.108   9.642 -0.0790  0.0118  0.2165
  110loPI   C2B 1758  10.241   8.091   9.137 -0.4561 -0.1187 -0.0165
  110loPI   C3B 1759  10.149   8.124   8.607 -0.0859  0.1511 -0.0795
  110loPI   C4B 1760  10.119   8.472   8.293  0.2083  0.0844 -0.1501
  111loPI    C1 1761  11.365  10.037  10.069 -0.0189  0.1892 -0.0568
  111loPI    C2 1762  11.574  10.350  10.207 -0.0256  0.1586  0.0229
  111loPI    C3 1763  11.406  10.092  10.463  0.0667  0.0318 -0.0430
  111loPI   PO4 1764  11.330  10.128   9.742  0.1179 -0.0104  0.1616
  111loPI   GL1 1765  11.228  10.004   9.397  0.1310  0.2265 -0.0797
  111loPI   GL2 1766  10.939  10.190   9.462  0.0874 -0.0213 -0.3070
  111loPI   C1A 1767  11.544  10.007   9.074  0.0847  0.1483 -0.0085
  111loPI   C2A 1768  11.390   9.940   8.627 -0.2427 -0.1247 -0.1414
  111loPI   C3A 1769  11.459   9.889   8.160 -0.2743 -0.0093 -0.0337
  111loPI   C4A 1770  11.751   9.828   7.761 -0.1218 -0.1299 -0.1136
  111loPI   C5A 1771  11.838   9.746   7.388 -0.0955 -0.0030 -0.1006
  111loPI   C6A 1772  12.173   9.644   6.981 -0.2743  0.1057  0.0202
  111loPI   C1B 1773  11.013  10.195   8.950 -0.0004  0.2007 -0.2392
  111loPI   C2B 1774  10.984  10.212   8.482  0.1216  0.0249  0.0133
  111loPI   C3B 1775  11.042  10.106   8.064 -0.1811  0.1601 -0.0618
  111loPI   C4B 1776  11.113  10.078   7.696 -0.1069  0.1504  0.2529
  112loPI    C1 1777   0.885   4.047  10.172  0.4152  0.0918  0.1743
  112loPI    C2 1778   0.824   3.764  10.448 -0.1962  0.1402  0.1023
  112loPI    C3 1779   0.947   4.128  10.559 -0.0211  0.0345  0.2611
  112loPI   PO4 1780   0.613   4.071   9.949  0.2382  0.0476 -0.2330
  112loPI   GL1 1781   0.417   3.959   9.601 -0.1534  0.1421  0.2760
  112loPI   GL2 1782   0.159   3.663   9.631  0.1732  0.1775 -0.2016
  112loPI   C1A 1783   0.421   4.268   9.192 -0.4193  0.2233  0.1915
  112loPI   C2A 1784   0.513   4.446   8.795  0.1956  0.0627  0.0799
  112loPI   C3A 1785   0.462   4.303   8.375  0.1250  0.1308 -0.0291
  112loPI   C4A 1786   0.513   4.291   8.009  0.2603  0.0304  0.0512
  112loPI   C5A 1787   0.505   4.217   7.561  0.0818  0.0546  0.5746
  112loPI   C6A 1788   0.733   4.287   7.166  0.0713  0.1328 -0.1002
  112loPI   C1B 1789   0.458   3.723   9.216  0.1433 -0.1745 -0.0477
  112loPI   C2B 1790   0.474   3.430   8.915 -0.2161  0.0430  0.1924
  112loPI   C3B 1791   0.544   3.322   8.398 -0.1161  0.0926  0.0631
  112loPI   C4B 1792   0.653   3.265   7.891  0.1552  0.0347 -0.3098
  113loPI    C1 1793   7.850  11.568  10.544  0.0153 -0.2085  0.1605
  113loPI    C2 1794   7.506  11.365  10.576 -0.0343 -0.1649 -0.0751
  113loPI    C3 1795   7.526  11.746  10.696 -0.1374 -0.0918 -0.2849
  113loPI   PO4 1796   7.947  11.540  10.346  0.0104 -0.1267  0.2885
  113loPI   GL1 1797   7.822  11.558   9.909 -0.3263 -0.0144 -0.1819
  113loPI   GL2 1798   8.118  11.482   9.799 -0.1401 -0.0162 -0.0923
  113loPI   C1A 1799   7.708  11.683   9.518 -0.1345  0.1813  0.1013
  113loPI   C2A 1800   7.587  11.598   9.059 -0.1215  0.0587  0.1281
  113loPI   C3A 1801   7.832  11.680   8.687 -0.2471 -0.0483  0.3977
  113loPI   C4A 1802   7.867  11.719   8.324  0.2480 -0.0610  0.2351
  113loPI   C5A 1803   8.194  11.830   8.013 -0.0074  0.1370 -0.3262
  113loPI   C6A 1804   8.622  11.616   8.000  0.1469  0.1605 -0.1672
  113loPI   C1B 1805   8.148  11.490   9.407 -0.0423 -0.0381 -0.2480
  113loPI   C2B 1806   8.294  11.335   8.846 -0.0141  0.1001  0.2251
  113loPI   C3B 1807   8.096  11.257   8.532  0.1465 -0.3917 -0.1034
  113loPI   C4B 1808   7.945  11.260   8.067  0.0855 -0.0492  0.1892
  114loPI    C1 1809  18.533  10.619  10.055  0.0205  0.0043 -0.2171
  114loPI    C2 1810  18.694  10.969  10.163  0.0993 -0.0874 -0.0333
  114loPI    C3 1811  18.925  10.682  10.006  0.0386 -0.0660 -0.1636
  114loPI   PO4 1812  18.285  10.754   9.946  0.4620 -0.0838  0.2883
  114loPI   GL1 1813  18.087  10.552   9.511  0.1599  0.0581 -0.0077
  114loPI   GL2 1814  18.440  10.561   9.521  0.1594 -0.5946  0.0781
  114loPI   C1A 1815  17.952  10.871   9.281  0.0471 -0.0592  0.1271
  114loPI   C2A 1816  17.953  11.042   8.899  0.0444 -0.2657  0.0601
  114loPI   C3A 1817  17.991  11.115   8.389  0.0380  0.1737 -0.2556
  114loPI   C4A 1818  17.997  11.279   7.884 -0.0452  0.0876 -0.1710
  114loPI   C5A 1819  18.299  11.637   7.620  0.1314 -0.1770 -0.1860
  114loPI   C6A 1820  18.558  11.736   7.255  0.1652  0.2420 -0.0463
  114loPI   C1B 1821  18.385  10.441   9.161 -0.0108  0.5545  0.1435
  114loPI   C2B 1822  18.487  10.445   8.770 -0.1552  0.2222 -0.1638
  114loPI   C3B 1823  18.709  10.259   8.444  0.1179 -0.1494 -0.2895
  114loPI   C4B 1824  18.632   9.964   8.095 -0.1918 -0.1123 -0.2694
  115loPI    C1 1825  11.344  12.050  10.352 -0.0800  0.0020  0.1537
  115loPI    C2 1826  11.692  11.921  10.502 -0.0692  0.0894  0.2038
  115loPI    C3 1827  11.375  11.677  10.494  0.0815 -0.1017 -0.1435
  115loPI   PO4 1828  11.406  12.137  10.121 -0.1048 -0.2448 -0.2892
  115loPI   GL1 1829  11.299  11.912   9.641  0.0682  0.0737  0.2323
  115loPI   GL2 1830  11.508  11.883   9.333 -0.2088 -0.0887  0.1233
  115loPI   C1A 1831  11.115  11.653   9.177  0.1088 -0.0973 -0.0299
  115loPI   C2A 1832  11.024  11.453   8.801  0.0314 -0.5147  0.0900
  115loPI   C3A 1833  10.790  11.386   8.347  0.1195  0.0480 -0.0905
  115loPI   C4A 1834  10.670  11.352   7.965 -0.0699 -0.1027 -0.2757
  115loPI   C5A 1835  10.504  10.940   7.823  0.0439  0.1486  0.1670
  115loPI   C6A 1836  10.687  10.845   7.407 -0.1782 -0.0648  0.0161
  115loPI   C1B 1837  11.345  12.179   9.130  0.0307  0.0410 -0.2185
  115loPI   C2B 1838  11.243  12.297   8.669 -0.1250  0.1699  0.1549
  115loPI   C3B 1839  11.480  12.229   8.254  0.0952  0.0465  0.0209
  115loPI   C4B 1840  11.529  12.245   7.798  0.1982 -0.0754  0.2763
  116loPI    C1 1841  18.496   2.905   9.788  0.0348 -0.0359  0.0968
  116loPI    C2 1842  18.366   3.261   9.915 -0.2496 -0.1110  0.0229
  116loPI    C3 1843  18.658   3.241   9.642 -0.2875  0.0671 -0.0318
  116loPI   PO4 1844  18.185   2.735   9.672  0.0009 -0.0414 -0.1143
  116loPI   GL1 1845  18.123   2.645   9.293 -0.3320  0.0306  0.0521
  116loPI   GL2 1846  18.288   2.350   9.116  0.1031  0.1423  0.1173
  116loPI   C1A 1847  17.861   2.861   8.968 -0.1229 -0.0431 -0.2022
  116loPI   C2A 1848  17.829   2.934   8.549  0.1418 -0.2347  0.1510
  116loPI   C3A 1849  17.530   2.761   8.207 -0.1450 -0.2447 -0.1478
  116loPI   C4A 1850  17.345   2.722   7.823  0.3488  0.0123 -0.0531
  116loPI   C5A 1851  17.365   2.879   7.427 -0.4304 -0.1011  0.1039
  116loPI   C6A 1852  17.650   2.855   7.165  0.0140 -0.3567  0.0845
  116loPI   C1B 1853  18.297   2.500   8.736  0.0114  0.0063  0.0023
  116loPI   C2B 1854  18.327   2.750   8.367  0.0092 -0.0263  0.2299
  116loPI   C3B 1855  18.069   2.969   8.117 -0.0627 -0.2007  0.3674
  116loPI   C4B 1856  17.775   2.909   7.753  0.1155  0.0456 -0.2647
  117loPI    C1 1857  18.707   8.070  10.197  0.0208 -0.0582 -0.1183
  117loPI    C2 1858  18.314   8.071  10.272  0.0290  0.2086 -0.0709
  117loPI    C3 1859  18.571   8.202  10.549  0.1592 -0.0391 -0.0716
  117loPI   PO4 1860  18.719   7.908  10.082  0.0059  0.1070 -0.1116
  117loPI   GL1 1861  18.910   7.704   9.881 -0.2659  0.3872 -0.3877
  117loPI   GL2 1862  18.780   7.358   9.810  0.4240  0.0646 -0.0857
  117loPI   C1A 1863  19.108   7.752   9.491  0.1439 -0.3299  0.1286
  117loPI   C2A 1864  18.884   7.942   9.137 -0.0045  0.0065  0.2039
  117loPI   C3A 1865  18.984   7.846   8.624  0.0278 -0.2517 -0.0660
  117loPI   C4A 1866  19.028   8.013   8.228  0.3687 -0.3337 -0.0061
  117loPI   C5A 1867  18.772   8.285   7.930 -0.2137 -0.0462  0.1256
  117loPI   C6A 1868  18.295   8.461   7.806  0.1446  0.0007 -0.0550
  117loPI   C1B 1869  18.788   7.447   9.290  0.1431 -0.0564  0.0069
  117loPI   C2B 1870  18.940   7.330   8.873  0.0032  0.0232  0.0336
  117loPI   C3B 1871  19.046   7.257   8.441  0.0762  0.1736  0.0912
  117loPI   C4B 1872  19.129   7.391   7.997  0.0978  0.1618 -0.0664
  118loPI    C1 1873  11.785   7.880  10.241  0.2846  0.0979 -0.4923
  118loPI    C2 1874  11.941   7.607  10.488 -0.1570  0.0883 -0.2133
  118loPI    C3 1875  12.094   7.976  10.475 -0.2245  0.1354  0.1948
  118loPI   PO4 1876  11.563   7.750  10.196  0.2753  0.0404 -0.1554
  118loPI   GL1 1877  11.227   7.881   9.890  0.1182  0.2627  0.2656
  118loPI   GL2 1878  11.403   7.921   9.696 -0.4215  0.0350 -0.2531
  118loPI   C1A 1879  10.981   7.546   9.638  0.0581  0.1650  0.0990
  118loPI   C2A 1880  10.881   7.414   9.232 -0.2666  0.0992  0.2344
  118loPI   C3A 1881  10.719   7.354   8.891  0.2697  0.2379  0.5177
  118loPI   C4A 1882  10.879   7.319   8.424 -0.2723 -0.2910  0.1934
  118loPI   C5A 1883  10.828   7.140   7.983 -0.0436 -0.0751  0.1915
  118loPI   C6A 1884  10.503   6.879   7.895  0.0954 -0.1006  0.2067
  118loPI   C1B 1885  11.344   7.707   9.354  0.1236  0.1348  0.0470
  118loPI   C2B 1886  11.224   7.611   8.897 -0.0973 -0.2676 -0.3389
  118loPI   C3B 1887  11.272   7.700   8.387  0.2090  0.1752 -0.1435
  118loPI   C4B 1888  11.161   7.549   7.943 -0.4256 -0.2153 -0.4262
  119loPI    C1 1889   9.240   3.143  11.026 -0.0818  0.0032  0.1959
  119loPI    C2 1890   8.843   3.104  10.996 -0.0841  0.0605  0.1478
  119loPI    C3 1891   9.008   3.205  11.346 -0.1081 -0.0076  0.1790
  119loPI   PO4 1892   9.294   3.318  10.858  0.1298 -0.0054 -0.1623
  119loPI   GL1 1893   9.328   3.478  10.482 -0.0288  0.0566  0.0305
  119loPI   GL2 1894   9.216   3.835  10.471  0.3486 -0.1669  0.0897
  119loPI   C1A 1895   9.405   3.542  10.009 -0.3129  0.2151 -0.2576
  119loPI   C2A 1896   9.556   3.578   9.611  0.1871 -0.4159 -0.0921
  119loPI   C3A 1897   9.519   3.487   9.170  0.0288  0.5848  0.1204
  119loPI   C4A 1898   9.502   3.606   8.781  0.4105  0.0455  0.0994
  119loPI   C5A 1899   9.275   3.547   8.468  0.2053  0.2999  0.2379
  119loPI   C6A 1900   8.860   3.684   8.322 -0.1633 -0.3420 -0.0676
  119loPI   C1B 1901   9.049   3.884  10.105  0.1521  0.0950  0.1832
  119loPI   C2B 1902   9.106   3.789   9.647  0.4273  0.0114 -0.0887
  119loPI   C3B 1903   9.080   3.785   9.265 -0.1435  0.0274 -0.1630
  119loPI   C4B 1904   8.991   3.838   8.803 -0.0736  0.0395  0.0325
  120loPI    C1 1905  15.355  18.234  10.043  0.0390  0.0429  0.0161
  120loPI    C2 1906  15.677  18.027   9.928 -0.1286 -0.2116 -0.0024
  120loPI    C3 1907  15.602  18.080  10.317  0.0505  0.0340  0.0009
  120loPI   PO4 1908  15.332  18.317   9.810 -0.1092 -0.3574 -0.1611
  120loPI   GL1 1909  15.178  18.261   9.384 -0.0020 -0.3519  0.0197
  120loPI   GL2 1910  15.419  18.416   9.196 -0.1702 -0.2434  0.2446
  120loPI   C1A 1911  15.199  17.943   9.041  0.3020 -0.2630  0.0436
  120loPI   C2A 1912  15.104  17.747   8.813 -0.0107  0.4555  0.2383
  120loPI   C3A 1913  15.217  17.442   8.414  0.0419  0.1653 -0.2965
  120loPI   C4A 1914  15.534  17.374   8.107 -0.0495 -0.0036 -0.0219
  120loPI   C5A 1915  15.576  17.326   7.667  0.1470 -0.2990 -0.2607
  120loPI   C6A 1916  15.952  17.435   7.573 -0.1018 -0.1500 -0.0584
  120loPI   C1B 1917  15.531  18.363   8.810  0.1533 -0.2262 -0.1904
  120loPI   C2B 1918  15.586  18.300   8.381  0.0101  0.0511 -0.2301
  120loPI   C3B 1919  15.832  18.333   7.889 -0.1524 -0.2712 -0.0774
  120loPI   C4B 1920  16.061  18.671   7.785  0.1308 -0.0842  0.3047
  121loPI    C1 1921  14.671   0.563   9.898 -0.0400 -0.2345  0.0725
  121loPI    C2 1922  14.843   0.302   9.649  0.0424 -0.1956  0.0883
  121loPI    C3 1923  15.069   0.517   9.900 -0.0274 -0.1277  0.0931
  121loPI   PO4 1924  14.592   0.731   9.825 -0.1791 -0.1029 -0.2034
  121loPI   GL1 1925  14.513   0.958   9.437 -0.2882 -0.1704  0.1959
  121loPI   GL2 1926  14.760   1.108   9.272 -0.0083 -0.1312  0.0249
  121loPI   C1A 1927  14.305   0.944   9.112 -0.0477  0.0215 -0.0654
  121loPI   C2A 1928  14.241   0.929   8.713 -0.0751 -0.4160 -0.1785
  121loPI   C3A 1929  14.285   0.899   8.254  0.0195  0.0698  0.1392
  121loPI   C4A 1930  14.208   0.758   7.892 -0.2197  0.1869  0.0275
  121loPI   C5A 1931  14.348   0.612   7.584 -0.0092 -0.0540  0.0889
  121loPI   C6A 1932  14.664   0.424   7.484 -0.3367  0.0001 -0.1422
  121loPI   C1B 1933  14.651   1.244   8.894  0.1240 -0.1370 -0.0643
  121loPI   C2B 1934  14.662   1.249   8.517  0.0403 -0.1214  0.3926
  121loPI   C3B 1935  14.792   1.262   8.081 -0.0937  0.0672 -0.0233
  121loPI   C4B 1936  14.670   1.262   7.640  0.1655  0.1198  0.2320
  122loPI    C1 1937   5.293   1.230  10.450  0.1918 -0.2458  0.0208
  122loPI    C2 1938   5.300   1.601  10.601  0.1290 -0.1626 -0.1764
  122loPI    C3 1939   5.008   1.348  10.705  0.1468 -0.1421 -0.0760
  122loPI   PO4 1940   5.274   1.282  10.160  0.2208  0.0555  0.1510
  122loPI   GL1 1941   5.156   1.035   9.881  0.2346 -0.3222  0.0525
  122loPI   GL2 1942   5.376   0.727   9.763 -0.2241  0.0400 -0.0433
  122loPI   C1A 1943   5.039   1.186   9.426 -0.1212  0.3041 -0.3187
  122loPI   C2A 1944   4.881   1.131   9.119  0.2626 -0.4151 -0.0571
  122loPI   C3A 1945   4.910   1.058   8.698 -0.3451  0.1642 -0.0524
  122loPI   C4A 1946   4.938   1.092   8.298 -0.0413 -0.1246  0.0245
  122loPI   C5A 1947   5.102   1.057   7.787 -0.2974 -0.1824  0.2525
  122loPI   C6A 1948   5.128   1.070   7.337 -0.2421  0.1358 -0.0742
  122loPI   C1B 1949   5.391   0.766   9.378  0.1494 -0.0615  0.0207
  122loPI   C2B 1950   5.372   0.842   8.948  0.2964  0.1241  0.0338
  122loPI   C3B 1951   5.363   0.746   8.469  0.0379  0.0764 -0.0779
  122loPI   C4B 1952   5.451   0.846   8.036  0.0349 -0.1230 -0.2856
  123loPI    C1 1953   3.094   3.722  10.616  0.4171 -0.0061 -0.2903
  123loPI    C2 1954   3.075   4.117  10.680 -0.2291 -0.0688 -0.0185
  123loPI    C3 1955   3.341   3.895  10.879  0.0660  0.2111 -0.0935
  123loPI   PO4 1956   3.112   3.651  10.324 -0.1263 -0.1732 -0.0249
  123loPI   GL1 1957   3.089   3.827   9.938  0.0806 -0.0568  0.3286
  123loPI   GL2 1958   3.014   3.571   9.810 -0.2459 -0.0795 -0.1315
  123loPI   C1A 1959   3.055   4.194   9.663 -0.1830  0.1410  0.0507
  123loPI   C2A 1960   3.116   4.324   9.229  0.1357 -0.0852 -0.3313
  123loPI   C3A 1961   3.240   4.475   8.892  0.1216 -0.1382 -0.3138
  123loPI   C4A 1962   3.185   4.258   8.462  0.2195  0.1785  0.4098
  123loPI   C5A 1963   3.153   4.218   8.042  0.2818  0.1081  0.1547
  123loPI   C6A 1964   3.420   4.015   7.684  0.0699  0.2422 -0.1063
  123loPI   C1B 1965   3.057   3.797   9.442  0.1095  0.2179 -0.0390
  123loPI   C2B 1966   3.121   3.746   9.076 -0.3496 -0.1761 -0.1487
  123loPI   C3B 1967   3.165   3.776   8.678  0.1633 -0.2140 -0.2057
  123loPI   C4B 1968   3.244   3.696   8.232  0.0344 -0.1904 -0.2587
  124loPI    C1 1969  15.391  18.789   9.865  0.2168  0.1269 -0.0105
  124loPI    C2 1970  15.108  18.837  10.143  0.0161 -0.0373 -0.1830
  124loPI    C3 1971  15.421  19.085  10.132 -0.2379  0.2933 -0.1351
  124loPI   PO4 1972  15.288  18.780   9.562  0.0015 -0.0789  0.0366
  124loPI   GL1 1973  15.072  18.734   9.253  0.1325  0.2123  0.1053
  124loPI   GL2 1974  15.059  19.055   9.121  0.0778  0.0560  0.2747
  124loPI   C1A 1975  14.922  18.442   8.984 -0.1349  0.0724  0.0133
  124loPI   C2A 1976  14.855  18.353   8.527 -0.2193  0.0482 -0.0446
  124loPI   C3A 1977  15.170  18.068   8.298  0.2254  0.1716  0.0270
  124loPI   C4A 1978  15.293  17.870   7.902 -0.3242  0.0183 -0.3412
  124loPI   C5A 1979  15.217  17.676   7.582 -0.0132 -0.1544  0.3295
  124loPI   C6A 1980  15.432  17.521   7.198 -0.0809 -0.0673  0.0091
  124loPI   C1B 1981  15.287  18.750   8.822  0.0388 -0.0538  0.2087
  124loPI   C2B 1982  15.529  18.785   8.510 -0.0493  0.1930 -0.0588
  124loPI   C3B 1983  15.593  18.748   8.073 -0.1026 -0.0815  0.1795
  124loPI   C4B 1984  15.410  18.867   7.693 -0.0732  0.0172  0.2824
  125loPI    C1 1985   9.715   6.302  10.695  0.0335 -0.0489 -0.0535
  125loPI    C2 1986   9.891   6.059  10.430 -0.0905  0.0155 -0.1968
  125loPI    C3 1987   9.965   6.017  10.821 -0.1114 -0.2529 -0.2197
  125loPI   PO4 1988   9.440   6.318  10.583 -0.2514  0.0162  0.0580
  125loPI   GL1 1989   9.212   6.288  10.207  0.0768 -0.0111  0.0925
  125loPI   GL2 1990   9.619   6.388  10.140 -0.0554  0.1053 -0.2262
  125loPI   C1A 1991   9.239   6.121   9.818 -0.0536 -0.1845  0.3417
  125loPI   C2A 1992   9.103   6.140   9.349 -0.1098  0.2365 -0.2595
  125loPI   C3A 1993   9.077   6.216   8.991 -0.0585 -0.0454 -0.0327
  125loPI   C4A 1994   8.986   6.182   8.576 -0.1404  0.1505  0.4284
  125loPI   C5A 1995   8.938   6.063   8.141  0.0075  0.1057 -0.0761
  125loPI   C6A 1996   8.836   5.773   7.877  0.2230 -0.1840 -0.0315
  125loPI   C1B 1997   9.680   6.411   9.789  0.1328 -0.0695  0.0587
  125loPI   C2B 1998   9.562   6.305   9.406  0.1324 -0.2493  0.1704
  125loPI   C3B 1999   9.557   6.452   9.045  0.0496 -0.1740  0.2592
  125loPI   C4B 2000   9.512   6.406   8.657  0.0607 -0.1115  0.0362
  126loPI    C1 2001   4.373   8.791  10.324  0.1664 -0.0482 -0.0478
  126loPI    C2 2002   4.112   8.497  10.394  0.0921  0.0101 -0.0783
  126loPI    C3 2003   4.044   8.863  10.539  0.0718  0.0663 -0.2281
  126loPI   PO4 2004   4.467   8.697  10.106 -0.2930 -0.1481  0.5371
  126loPI   GL1 2005   4.637   8.688   9.703 -0.3974  0.0172  0.0244
  126loPI   GL2 2006   4.665   8.359   9.625 -0.0466 -0.2009  0.0132
  126loPI   C1A 2007   4.452   8.736   9.264 -0.4444  0.1423  0.0045
  126loPI   C2A 2008   4.429   8.613   8.880 -0.0331 -0.0985  0.0516
  126loPI   C3A 2009   4.395   8.360   8.594  0.0939  0.0901  0.0779
  126loPI   C4A 2010   4.238   8.450   8.083 -0.0323  0.1227 -0.3819
  126loPI   C5A 2011   4.003   8.104   7.871 -0.0209 -0.0070 -0.0255
  126loPI   C6A 2012   3.656   8.110   7.598  0.1015  0.1182  0.1042
  126loPI   C1B 2013   4.651   8.303   9.214  0.1817  0.0067 -0.1442
  126loPI   C2B 2014   4.607   7.947   8.849  0.1012 -0.0934 -0.4909
  126loPI   C3B 2015   4.677   7.821   8.412 -0.5673 -0.0346  0.2257
  126loPI   C4B 2016   4.430   7.936   8.067  0.3361  0.2482 -0.2920
  127loPI    C1 2017  17.416   3.021   9.956 -0.0829 -0.2984 -0.0538
  127loPI    C2 2018  17.546   3.372  10.096 -0.0672 -0.2402 -0.2121
  127loPI    C3 2019  17.706   3.031  10.231  0.1249 -0.1759 -0.2740
  127loPI   PO4 2020  17.330   3.100   9.700 -0.0279 -0.1598 -0.1188
  127loPI   GL1 2021  17.570   3.102   9.395 -0.0074  0.0413 -0.0248
  127loPI   GL2 2022  17.731   3.268   9.265  0.2694  0.0150  0.3472
  127loPI   C1A 2023  17.377   3.029   8.990 -0.2044  0.1323 -0.1294
  127loPI   C2A 2024  17.375   2.819   8.641 -0.1979  0.0344  0.1772
  127loPI   C3A 2025  17.334   2.400   8.544  0.0377 -0.1128  0.1538
  127loPI   C4A 2026  17.370   2.224   8.151 -0.0748  0.1087  0.1250
  127loPI   C5A 2027  17.241   2.176   7.758  0.1476 -0.2244  0.0311
  127loPI   C6A 2028  17.063   2.460   7.340 -0.1730 -0.0184 -0.1081
  127loPI   C1B 2029  17.984   3.374   8.829  0.0372 -0.1545  0.1364
  127loPI   C2B 2030  17.985   3.677   8.494 -0.1822  0.1072 -0.0767
  127loPI   C3B 2031  17.812   3.920   8.129 -0.2355  0.1110 -0.0547
  127loPI   C4B 2032  17.850   4.017   7.741  0.2259  0.1129  0.0719
  128loPI    C1 2033   8.784   1.328  10.815 -0.2190 -0.1511  0.0044
  128loPI    C2 2034   9.120   1.305  10.599 -0.2412 -0.0222 -0.0449
  128loPI    C3 2035   9.131   1.239  10.994 -0.1827 -0.1563 -0.0683
  128loPI   PO4 2036   8.574   1.159  10.529  0.1494  0.1163 -0.0133
  128loPI   GL1 2037   8.484   1.309  10.194 -0.0142  0.2463  0.0549
  128loPI   GL2 2038   8.302   1.607  10.093  0.3376  0.1211  0.0656
  128loPI   C1A 2039   8.542   1.067   9.877 -0.0682  0.0512  0.1537
  128loPI   C2A 2040   8.497   1.047   9.441 -0.2111  0.0249  0.0998
  128loPI   C3A 2041   8.483   0.949   8.981  0.1284 -0.0344 -0.0481
  128loPI   C4A 2042   8.631   0.971   8.534 -0.0196 -0.1395 -0.1319
  128loPI   C5A 2043   8.512   1.348   8.221 -0.1037  0.1110 -0.0033
  128loPI   C6A 2044   8.439   1.543   7.791 -0.0768  0.4186  0.1419
  128loPI   C1B 2045   8.522   1.653   9.748 -0.0869 -0.0422 -0.0825
  128loPI   C2B 2046   8.458   1.597   9.344 -0.1256  0.1407 -0.1098
  128loPI   C3B 2047   8.248   1.573   8.922  0.0267  0.0539 -0.2373
  128loPI   C4B 2048   8.256   1.663   8.487 -0.3257  0.3901 -0.0021
  129loPI    C1 2049  14.969   4.473   9.863 -0.1358  0.0191 -0.1901
  129loPI    C2 2050  14.911   4.192  10.141  0.1561 -0.0901 -0.2366
  129loPI    C3 2051  15.105   4.529  10.235 -0.1566  0.0806 -0.1916
  129loPI   PO4 2052  15.088   4.360   9.577  0.3521 -0.0727 -0.0374
  129loPI   GL1 2053  15.297   4.414   9.184  0.1203 -0.0694 -0.0027
  129loPI   GL2 2054  14.955   4.597   9.162 -0.0369  0.1941 -0.1686
  129loPI   C1A 2055  15.485   4.448   8.822  0.0401 -0.2023 -0.4147
  129loPI   C2A 2056  15.414   4.691   8.343 -0.2400  0.1076 -0.1431
  129loPI   C3A 2057  15.055   4.803   8.154 -0.2010  0.1774 -0.0492
  129loPI   C4A 2058  15.071   5.112   7.806 -0.2624 -0.0211  0.1762
  129loPI   C5A 2059  15.163   5.062   7.387  0.0008  0.3471  0.0094
  129loPI   C6A 2060  14.837   4.765   7.067 -0.1269 -0.1113  0.0002
  129loPI   C1B 2061  14.840   5.027   9.015 -0.1014  0.0405  0.2212
  129loPI   C2B 2062  14.458   5.243   8.862  0.0190 -0.1158 -0.1759
  129loPI   C3B 2063  14.247   5.460   8.538  0.0677  0.1612  0.0456
  129loPI   C4B 2064  14.139   5.481   8.135  0.1631  0.1732 -0.3555
  130loPI    C1 2065   5.871   7.101  11.021 -0.0537 -0.2203 -0.0309
  130loPI    C2 2066   6.256   7.205  11.058 -0.1048 -0.1565  0.3679
  130loPI    C3 2067   6.139   6.834  11.151 -0.0826 -0.2926 -0.1186
  130loPI   PO4 2068   5.848   7.109  10.694  0.0134  0.0105 -0.2492
  130loPI   GL1 2069   5.625   7.006  10.297  0.0050 -0.0921  0.0308
  130loPI   GL2 2070   5.765   6.657  10.283 -0.2066 -0.0710 -0.2767
  130loPI   C1A 2071   5.821   7.108   9.930 -0.0060  0.0126 -0.1202
  130loPI   C2A 2072   5.803   7.017   9.531 -0.0192 -0.0867 -0.1194
  130loPI   C3A 2073   5.610   6.957   9.096 -0.3292  0.1233  0.0663
  130loPI   C4A 2074   5.488   6.710   8.797 -0.1195  0.0434  0.1945
  130loPI   C5A 2075   5.215   6.732   8.489  0.2180 -0.0387 -0.0835
  130loPI   C6A 2076   5.191   6.993   8.134  0.2065 -0.1297  0.0365
  130loPI   C1B 2077   5.837   6.462   9.825 -0.3984  0.0970 -0.1473
  130loPI   C2B 2078   6.015   6.228   9.604  0.0218  0.1597  0.2119
  130loPI   C3B 2079   6.460   6.311   9.400  0.0346  0.0626  0.1656
  130loPI   C4B 2080   6.818   6.086   9.557 -0.0316  0.0099 -0.0615
  131loPI    C1 2081  14.914   1.707   9.811  0.1873  0.1279  0.1138
  131loPI    C2 2082  14.906   1.929   9.478  0.2654  0.1519  0.1276
  131loPI    C3 2083  14.951   2.105   9.834 -0.2823  0.1725  0.1952
  131loPI   PO4 2084  14.724   1.447   9.656 -0.0145 -0.1977 -0.1816
  131loPI   GL1 2085  14.438   1.534   9.254  0.1957  0.0676  0.3868
  131loPI   GL2 2086  14.613   1.664   9.205 -0.0611  0.2108 -0.1982
  131loPI   C1A 2087  14.218   1.472   8.847  0.2207 -0.0682  0.0211
  131loPI   C2A 2088  14.163   1.414   8.417 -0.1130 -0.2107 -0.0648
  131loPI   C3A 2089  14.316   1.373   8.003  0.1056 -0.0576 -0.2353
  131loPI   C4A 2090  14.195   1.128   7.586 -0.0837 -0.0015  0.0792
  131loPI   C5A 2091  14.107   0.956   7.124  0.1184  0.0273 -0.0807
  131loPI   C6A 2092  13.932   0.778   6.761 -0.4194 -0.0025 -0.0328
  131loPI   C1B 2093  14.696   1.671   8.722 -0.1687  0.2219 -0.0886
  131loPI   C2B 2094  14.726   1.771   8.334 -0.0018  0.1381  0.0541
  131loPI   C3B 2095  14.633   1.784   7.962 -0.4458  0.3473  0.0083
  131loPI   C4B 2096  14.743   2.113   7.626  0.1384  0.1805  0.0290
  132loPI    C1 2097   2.886   9.406  10.144 -0.1675  0.1278  0.1825
  132loPI    C2 2098   2.966   9.263  10.509  0.4038 -0.1536 -0.0411
  132loPI    C3 2099   2.821   9.020  10.226  0.0173  0.0507 -0.0253
  132loPI   PO4 2100   3.239   9.529  10.130  0.0768  0.1811 -0.0410
  132loPI   GL1 2101   3.452   9.751   9.783 -0.1823 -0.0141  0.0055
  132loPI   GL2 2102   3.603   9.515   9.617 -0.0960  0.1604  0.0430
  132loPI   C1A 2103   3.197   9.902   9.398  0.0610 -0.1676  0.0071
  132loPI   C2A 2104   3.225   9.858   8.920  0.1382  0.1966 -0.1893
  132loPI   C3A 2105   3.310   9.791   8.520  0.0637 -0.3262 -0.0605
  132loPI   C4A 2106   3.345   9.701   8.114  0.0456  0.1751  0.0752
  132loPI   C5A 2107   3.241   9.731   7.752 -0.0580  0.0676 -0.3265
  132loPI   C6A 2108   2.971   9.546   7.482 -0.0050  0.1131  0.0909
  132loPI   C1B 2109   3.393   9.487   9.224 -0.1832 -0.0919 -0.1114
  132loPI   C2B 2110   3.368   9.324   8.759  0.1081 -0.0178 -0.2461
  132loPI   C3B 2111   3.137   9.285   8.436  0.1150 -0.4072 -0.0401
  132loPI   C4B 2112   2.864   9.527   8.118  0.0853 -0.0391  0.1064
  133loPI    C1 2113  14.852  15.583   9.771  0.2049  0.2407  0.1847
  133loPI    C2 2114  15.023  15.394  10.079  0.1900  0.0099  0.0546
  133loPI    C3 2115  14.729  15.657  10.144  0.1799 -0.0447  0.2359
  133loPI   PO4 2116  14.954  15.526   9.568 -0.1556  0.2098 -0.0221
  133loPI   GL1 2117  15.368  15.483   9.321 -0.0542  0.2850 -0.1663
  133loPI   GL2 2118  15.340  15.131   9.220  0.1974 -0.0821  0.2415
  133loPI   C1A 2119  15.499  15.520   8.901 -0.0225  0.2383  0.1410
  133loPI   C2A 2120  15.462  15.732   8.473 -0.1326 -0.1123 -0.1173
  133loPI   C3A 2121  15.504  16.142   8.289 -0.1086 -0.2524  0.1150
  133loPI   C4A 2122  15.859  16.390   8.046 -0.2108 -0.2915  0.1017
  133loPI   C5A 2123  15.965  16.471   7.524 -0.1307  0.0379 -0.1081
  133loPI   C6A 2124  16.128  16.170   7.183  0.0832  0.3491  0.0526
  133loPI   C1B 2125  15.267  15.044   8.842  0.0913 -0.1319  0.1089
  133loPI   C2B 2126  15.231  14.928   8.393  0.0018 -0.0027  0.1757
  133loPI   C3B 2127  15.093  14.995   8.042  0.2731  0.1854  0.2011
  133loPI   C4B 2128  14.849  14.855   7.623 -0.0976 -0.0170 -0.0959
  134loPI    C1 2129   7.410   7.633  10.988 -0.1591  0.1184 -0.1709
  134loPI    C2 2130   7.254   7.355  11.229  0.1111  0.0399 -0.0830
  134loPI    C3 2131   7.161   7.740  11.282  0.0036  0.0015  0.0119
  134loPI   PO4 2132   7.327   7.635  10.787  0.1890 -0.2193  0.3550
  134loPI   GL1 2133   7.352   7.413  10.422 -0.0149  0.2938 -0.0281
  134loPI   GL2 2134   7.084   7.699  10.386  0.0416  0.2371 -0.0342
  134loPI   C1A 2135   7.186   7.269   9.970  0.1553 -0.1017  0.4641
  134loPI   C2A 2136   7.176   6.950   9.697 -0.3483  0.1431  0.2305
  134loPI   C3A 2137   7.183   6.988   9.201 -0.3776 -0.0547  0.1007
  134loPI   C4A 2138   7.093   6.745   8.857  0.0868 -0.0043 -0.2619
  134loPI   C5A 2139   6.951   6.763   8.431  0.0367 -0.4409 -0.1759
  134loPI   C6A 2140   6.635   6.689   8.332  0.0968  0.0160 -0.1037
  134loPI   C1B 2141   7.015   7.731   9.961  0.2951  0.0229  0.3176
  134loPI   C2B 2142   7.091   7.531   9.526  0.0347  0.0941 -0.3452
  134loPI   C3B 2143   7.149   7.439   9.135 -0.2688 -0.0101  0.1763
  134loPI   C4B 2144   7.069   7.361   8.641  0.1680  0.0734  0.0103
  135loPI    C1 2145   4.398  10.645  10.236  0.4952  0.0765 -0.1743
  135loPI    C2 2146   4.531  10.941  10.470  0.0745 -0.1113  0.3218
  135loPI    C3 2147   4.303  10.651  10.624 -0.1554 -0.2849 -0.3134
  135loPI   PO4 2148   4.620  10.586  10.097 -0.0373 -0.2421  0.2412
  135loPI   GL1 2149   4.917  10.412   9.767  0.0933 -0.3728 -0.1310
  135loPI   GL2 2150   4.789  10.112   9.682 -0.2406  0.2036  0.3071
  135loPI   C1A 2151   4.828  10.524   9.361  0.0853  0.0911 -0.2027
  135loPI   C2A 2152   4.691  10.602   8.894 -0.0971 -0.0085 -0.0933
  135loPI   C3A 2153   4.883  10.627   8.443  0.2283 -0.0259 -0.4162
  135loPI   C4A 2154   4.928  10.728   8.014  0.0640  0.2155 -0.0187
  135loPI   C5A 2155   4.843  10.437   7.718  0.4102 -0.1520 -0.0765
  135loPI   C6A 2156   4.602  10.093   7.732 -0.0937 -0.1144  0.1158
  135loPI   C1B 2157   4.943  10.096   9.291 -0.0091  0.2135  0.0543
  135loPI   C2B 2158   5.042  10.249   8.841 -0.3318  0.1480  0.0547
  135loPI   C3B 2159   5.265  10.040   8.523  0.1356 -0.0355  0.1032
  135loPI   C4B 2160   5.362   9.874   8.163  0.1753 -0.2755 -0.0813
  136loPI    C1 2161  14.800   5.636  10.062  0.0345 -0.1181  0.0211
  136loPI    C2 2162  14.745   5.262   9.929 -0.1556 -0.0635 -0.0573
  136loPI    C3 2163  14.741   5.338  10.322 -0.1106 -0.1446 -0.0410
  136loPI   PO4 2164  14.981   5.723   9.897  0.2003  0.3583 -0.1420
  136loPI   GL1 2165  15.126   5.317   9.535  0.0734 -0.0168  0.1065
  136loPI   GL2 2166  14.778   5.512   9.491  0.0339  0.3006  0.0511
  136loPI   C1A 2167  15.094   5.442   9.047 -0.0500  0.1077  0.2336
  136loPI   C2A 2168  15.027   5.318   8.622 -0.3055 -0.0750  0.1640
  136loPI   C3A 2169  14.730   5.237   8.323 -0.0254 -0.2127 -0.2667
  136loPI   C4A 2170  14.401   5.176   7.918 -0.4735  0.0315  0.0417
  136loPI   C5A 2171  14.514   5.019   7.464 -0.0862 -0.2522 -0.0482
  136loPI   C6A 2172  14.417   5.054   7.174 -0.1298  0.0136  0.1998
  136loPI   C1B 2173  14.687   5.684   9.046 -0.6335  0.0478  0.3047
  136loPI   C2B 2174  14.735   5.714   8.636 -0.1296 -0.1155  0.2080
  136loPI   C3B 2175  14.604   5.796   8.145 -0.0114  0.0027 -0.1035
  136loPI   C4B 2176  14.761   5.858   7.764  0.2461  0.3166  0.0382
  137loPI    C1 2177   0.556   9.435  10.438  0.1721 -0.0954  0.1430
  137loPI    C2 2178   0.519   9.049  10.341  0.1387 -0.0351 -0.0896
  137loPI    C3 2179   0.378   9.182  10.691  0.1010 -0.2227 -0.0325
  137loPI   PO4 2180   0.515   9.608  10.131 -0.2351  0.0360 -0.0881
  137loPI   GL1 2181   0.717   9.643   9.728  0.1710  0.4252 -0.1486
  137loPI   GL2 2182   0.397   9.547   9.575 -0.2533  0.1525  0.1384
  137loPI   C1A 2183   0.819   9.355   9.347  0.0008  0.0718 -0.3149
  137loPI   C2A 2184   0.673   9.245   8.868 -0.0290  0.1901  0.2012
  137loPI   C3A 2185   0.592   9.322   8.492  0.0086 -0.1579  0.0330
  137loPI   C4A 2186   0.634   9.544   8.106  0.4602  0.2181 -0.3244
  137loPI   C5A 2187   0.531   9.338   7.702  0.3647  0.2275  0.1203
  137loPI   C6A 2188   0.463   8.992   7.502 -0.2826  0.2782 -0.0093
  137loPI   C1B 2189   0.203   9.550   9.190  0.2765 -0.0212 -0.0467
  137loPI   C2B 2190   0.353   9.648   8.762 -0.2751 -0.1222  0.0140
  137loPI   C3B 2191   0.199   9.787   8.410  0.0593 -0.0435 -0.2136
  137loPI   C4B 2192   0.268   9.870   7.980  0.0432 -0.2610 -0.0832
  138loPI    C1 2193   2.503  15.805  10.153  0.5659  0.1071 -0.1055
  138loPI    C2 2194   2.716  16.072  10.361  0.1829  0.0756  0.3441
  138loPI    C3 2195   2.646  15.709  10.515  0.0481 -0.0146  0.0755
  138loPI   PO4 2196   2.444  15.912   9.957 -0.2917  0.1157 -0.1030
  138loPI   GL1 2197   2.656  16.132   9.622 -0.0036 -0.0734  0.3818
  138loPI   GL2 2198   2.999  16.191   9.575 -0.2277 -0.1346 -0.1135
  138loPI   C1A 2199   2.782  15.903   9.278  0.0590 -0.0513 -0.0714
  138loPI   C2A 2200   2.949  15.858   8.868 -0.0436  0.1116  0.0416
  138loPI   C3A 2201   3.252  15.965   8.448  0.0970  0.1702  0.1232
  138loPI   C4A 2202   3.483  16.086   8.103  0.0474 -0.2876  0.0393
  138loPI   C5A 2203   3.632  15.863   7.689  0.1253 -0.2189  0.0431
  138loPI   C6A 2204   3.863  16.006   7.272  0.2151 -0.0977  0.1056
  138loPI   C1B 2205   3.284  16.325   9.193 -0.1856 -0.0710  0.0792
  138loPI   C2B 2206   3.309  16.348   8.766  0.2689  0.1031 -0.0160
  138loPI   C3B 2207   3.424  16.475   8.362 -0.0738 -0.1385 -0.2712
  138loPI   C4B 2208   3.486  16.596   7.977 -0.1053  0.0067  0.4044
  139loPI    C1 2209  13.965  13.233   9.905  0.1485 -0.2552  0.1682
  139loPI    C2 2210  14.168  13.536   9.740  0.0987 -0.3028  0.0176
  139loPI    C3 2211  14.110  13.526  10.136  0.0579 -0.0900  0.0183
  139loPI   PO4 2212  13.824  13.128   9.725  0.2907 -0.1306  0.0945
  139loPI   GL1 2213  13.824  13.134   9.209 -0.0114 -0.1183  0.0458
  139loPI   GL2 2214  13.578  13.059   8.982  0.2436 -0.3611  0.1291
  139loPI   C1A 2215  13.979  12.802   8.803 -0.0914  0.5279 -0.0289
  139loPI   C2A 2216  14.014  12.600   8.397 -0.2160 -0.1447 -0.0703
  139loPI   C3A 2217  14.138  12.725   8.048  0.0333  0.0207  0.1165
  139loPI   C4A 2218  14.467  12.920   7.887  0.1770  0.1657 -0.2731
  139loPI   C5A 2219  14.761  12.901   7.610 -0.0685  0.0067 -0.0259
  139loPI   C6A 2220  14.660  13.235   7.271 -0.1447 -0.1070 -0.1431
  139loPI   C1B 2221  13.660  13.162   8.550  0.0103  0.1721 -0.4162
  139loPI   C2B 2222  13.731  12.986   8.166 -0.0977 -0.1784 -0.0907
  139loPI   C3B 2223  13.777  12.833   7.768 -0.0735  0.1179 -0.0245
  139loPI   C4B 2224  13.831  12.716   7.334  0.0477  0.1254 -0.1901
  140loPI    C1 2225   2.169  17.440  10.412  0.1045 -0.0953 -0.0987
  140loPI    C2 2226   2.337  17.772  10.558  0.0353 -0.1496  0.1073
  140loPI    C3 2227   2.366  17.428  10.760 -0.2141 -0.1866  0.0823
  140loPI   PO4 2228   2.236  17.404  10.188  0.0944  0.0302 -0.1717
  140loPI   GL1 2229   2.192  17.496   9.747 -0.1704  0.1032 -0.2341
  140loPI   GL2 2230   2.085  17.554   9.434 -0.1007  0.1552 -0.1935
  140loPI   C1A 2231   2.443  17.130   9.434 -0.2280 -0.2843  0.1276
  140loPI   C2A 2232   2.648  16.929   9.144 -0.0454  0.0555 -0.0116
  140loPI   C3A 2233   2.755  16.993   8.717  0.0637  0.1403  0.0341
  140loPI   C4A 2234   2.783  16.993   8.200  0.0521 -0.0241 -0.0009
  140loPI   C5A 2235   3.025  16.787   7.822  0.2535  0.1543 -0.2795
  140loPI   C6A 2236   3.254  16.732   7.501 -0.5879  0.1901  0.1190
  140loPI   C1B 2237   2.066  17.244   9.118 -0.1089 -0.0506 -0.0704
  140loPI   C2B 2238   1.930  17.273   8.687  0.0298  0.1814 -0.0702
  140loPI   C3B 2239   1.947  17.345   8.211 -0.1114  0.1101 -0.1319
  140loPI   C4B 2240   2.068  17.430   7.814 -0.0553  0.2475 -0.0926
  141loPI    C1 2241  13.926   8.395  10.177 -0.0068 -0.0752 -0.0373
  141loPI    C2 2242  14.137   8.469  10.509  0.2354 -0.1030 -0.1827
  141loPI    C3 2243  13.814   8.234  10.526  0.1332  0.0520  0.0675
  141loPI   PO4 2244  14.129   8.297   9.962 -0.0986  0.1328  0.0626
  141loPI   GL1 2245  14.292   7.899   9.742 -0.1638 -0.1713 -0.1048
  141loPI   GL2 2246  13.984   8.028   9.544  0.3061 -0.3377 -0.2276
  141loPI   C1A 2247  14.256   7.710   9.222  0.2248 -0.0831 -0.0423
  141loPI   C2A 2248  13.945   7.825   8.899  0.2831 -0.0760 -0.0042
  141loPI   C3A 2249  13.847   8.010   8.461 -0.0615 -0.0740  0.2133
  141loPI   C4A 2250  13.801   7.956   8.122  0.4482 -0.4449 -0.0365
  141loPI   C5A 2251  13.718   7.752   7.706 -0.2698  0.1674 -0.0501
  141loPI   C6A 2252  13.727   7.387   7.459 -0.1010  0.0135 -0.0519
  141loPI   C1B 2253  13.671   8.080   9.222 -0.0215  0.1107 -0.1481
  141loPI   C2B 2254  13.505   8.042   8.827  0.0292 -0.0594 -0.1385
  141loPI   C3B 2255  13.395   8.249   8.463 -0.0047 -0.1288 -0.0241
  141loPI   C4B 2256  13.403   8.658   8.266 -0.0434  0.1429  0.1552
  142loPI    C1 2257  12.304  14.261   9.941 -0.3265 -0.0459 -0.0082
  142loPI    C2 2258  12.599  14.528   9.981 -0.0420 -0.3595  0.0410
  142loPI    C3 2259  12.404  14.397  10.304 -0.1200 -0.2815  0.0262
  142loPI   PO4 2260  12.238  14.246   9.644 -0.0431  0.1207 -0.0534
  142loPI   GL1 2261  12.391  14.391   9.360 -0.0032  0.2157 -0.2049
  142loPI   GL2 2262  12.725  14.558   9.486 -0.0563  0.5972 -0.0785
  142loPI   C1A 2263  12.191  14.548   8.829 -0.2480 -0.1314  0.1795
  142loPI   C2A 2264  11.963  14.471   8.496  0.0446 -0.0859 -0.2131
  142loPI   C3A 2265  11.888  14.505   8.103 -0.2464  0.0101 -0.0016
  142loPI   C4A 2266  11.953  14.515   7.664 -0.2215 -0.4085 -0.0936
  142loPI   C5A 2267  12.159  14.633   7.321 -0.2080  0.1045  0.0074
  142loPI   C6A 2268  12.370  15.011   7.377  0.1867  0.1792  0.1095
  142loPI   C1B 2269  12.704  14.566   9.052 -0.0691 -0.0332 -0.0518
  142loPI   C2B 2270  12.613  14.494   8.700  0.0750  0.1807 -0.2953
  142loPI   C3B 2271  12.514  14.574   8.263 -0.1579 -0.0846 -0.1073
  142loPI   C4B 2272  12.621  14.497   7.837 -0.1479  0.0861 -0.0916
  143loPI    C1 2273   8.708   9.226  10.507 -0.0197  0.1231 -0.0496
  143loPI    C2 2274   9.000   8.972  10.607 -0.0353  0.0894 -0.0885
  143loPI    C3 2275   8.641   8.941  10.780 -0.0684  0.0188 -0.1689
  143loPI   PO4 2276   8.769   9.236  10.235  0.0469 -0.0300  0.2512
  143loPI   GL1 2277   8.732   9.573   9.826 -0.1505 -0.3100  0.0516
  143loPI   GL2 2278   8.990   9.490   9.647  0.2247 -0.0158 -0.0164
  143loPI   C1A 2279   8.533   9.770   9.446 -0.3463  0.1609 -0.0303
  143loPI   C2A 2280   8.424   9.784   8.980 -0.0065  0.0471  0.1682
  143loPI   C3A 2281   8.413   9.808   8.520  0.0297  0.1591  0.1713
  143loPI   C4A 2282   8.570   9.764   8.082 -0.0380 -0.1010  0.2063
  143loPI   C5A 2283   8.476   9.911   7.669  0.0837 -0.1695 -0.0052
  143loPI   C6A 2284   8.061  10.081   7.654  0.0142 -0.0980 -0.0048
  143loPI   C1B 2285   8.916   9.490   9.251 -0.1311 -0.3148 -0.2823
  143loPI   C2B 2286   8.905   9.650   8.817  0.0374 -0.2275  0.3047
  143loPI   C3B 2287   8.909   9.866   8.468 -0.0303 -0.0291  0.0424
  143loPI   C4B 2288   8.789  10.194   8.036  0.0364 -0.2988 -0.0266
  144loPI    C1 2289   0.070  16.658   9.831  0.0772 -0.1033  0.0233
  144loPI    C2 2290  -0.159  16.902  10.051  0.0740  0.0222 -0.1175
  144loPI    C3 2291  -0.010  16.567  10.213 -0.1149 -0.0026  0.0081
  144loPI   PO4 2292   0.211  16.763   9.722  0.0939  0.0087  0.0001
  144loPI   GL1 2293   0.495  16.623   9.353  0.3211 -0.0270  0.3898
  144loPI   GL2 2294   0.618  16.836   9.252 -0.0741 -0.0786  0.3071
  144loPI   C1A 2295   0.195  16.602   8.963  0.0134  0.0258 -0.1949
  144loPI   C2A 2296   0.108  16.311   8.658  0.2546  0.0605  0.1057
  144loPI   C3A 2297   0.284  15.906   8.372 -0.0498 -0.1609 -0.0498
  144loPI   C4A 2298   0.296  15.862   7.935  0.2392 -0.0224 -0.0259
  144loPI   C5A 2299   0.515  16.007   7.488  0.2645 -0.1347  0.0095
  144loPI   C6A 2300   0.527  16.315   7.199 -0.0125  0.0424  0.2391
  144loPI   C1B 2301   0.959  16.767   8.998 -0.0498 -0.2144 -0.2117
  144loPI   C2B 2302   1.211  16.671   8.641 -0.2172  0.0965 -0.3296
  144loPI   C3B 2303   1.404  16.701   8.207  0.1153 -0.4089  0.0599
  144loPI   C4B 2304   1.292  16.676   7.702  0.1312  0.3476 -0.1197
  145loPI    C1 2305   5.307  12.765  10.548 -0.1139 -0.2766 -0.0249
  145loPI    C2 2306   4.993  12.928  10.735  0.0038 -0.0367 -0.0316
  145loPI    C3 2307   5.268  12.726  10.944  0.0681  0.1209  0.0374
  145loPI   PO4 2308   5.313  12.872  10.317  0.2273  0.0710  0.0093
  145loPI   GL1 2309   5.379  13.023   9.839  0.0479 -0.1951 -0.2016
  145loPI   GL2 2310   5.072  13.232   9.848 -0.3520  0.1676 -0.0933
  145loPI   C1A 2311   5.359  12.981   9.444  0.4565  0.0099  0.1808
  145loPI   C2A 2312   5.504  12.972   8.998  0.0508 -0.0935  0.1663
  145loPI   C3A 2313   5.482  13.160   8.603 -0.0308  0.3293  0.0302
  145loPI   C4A 2314   5.534  13.008   8.161  0.2011 -0.2163  0.0049
  145loPI   C5A 2315   5.681  12.704   7.865  0.3274 -0.0301  0.0921
  145loPI   C6A 2316   5.577  12.203   7.917 -0.3361  0.1090  0.0835
  145loPI   C1B 2317   4.929  13.375   9.547 -0.1130 -0.0649  0.0929
  145loPI   C2B 2318   4.886  13.417   9.061 -0.1660 -0.1660 -0.1147
  145loPI   C3B 2319   5.052  13.452   8.604  0.0353 -0.2360  0.1976
  145loPI   C4B 2320   5.138  13.418   8.258 -0.1205 -0.2651 -0.1396
  146loPI    C1 2321   4.457   4.892  10.931  0.3783 -0.1036  0.0285
  146loPI    C2 2322   4.098   5.032  11.036  0.4087  0.0378 -0.0525
  146loPI    C3 2323   4.315   4.821  11.298  0.2533 -0.0773 -0.0143
  146loPI   PO4 2324   4.386   4.913  10.644 -0.1463 -0.0317  0.1665
  146loPI   GL1 2325   4.473   4.898  10.229  0.0323  0.0690  0.4389
  146loPI   GL2 2326   4.491   5.110   9.940  0.1127  0.2639  0.1729
  146loPI   C1A 2327   4.305   4.650   9.904 -0.1494  0.0876 -0.0229
  146loPI   C2A 2328   4.438   4.588   9.503  0.2453 -0.2235 -0.1799
  146loPI   C3A 2329   4.532   4.626   9.023 -0.1245  0.0445  0.4634
  146loPI   C4A 2330   4.513   4.452   8.622  0.3127  0.1831 -0.3357
  146loPI   C5A 2331   4.456   4.359   8.185 -0.0153  0.3537 -0.1638
  146loPI   C6A 2332   4.284   4.576   7.857  0.1060  0.0601 -0.0068
  146loPI   C1B 2333   4.442   5.160   9.516 -0.2480 -0.1992  0.3182
  146loPI   C2B 2334   4.530   5.078   9.073 -0.2062 -0.4562 -0.1054
  146loPI   C3B 2335   4.503   5.018   8.647  0.2634 -0.3133  0.0887
  146loPI   C4B 2336   4.539   4.834   8.234  0.1188 -0.0844  0.2686
  147loPI    C1 2337  13.014   7.256  10.343  0.0677  0.1246 -0.1670
  147loPI    C2 2338  12.915   6.982  10.617 -0.3133  0.3500 -0.0710
  147loPI    C3 2339  13.288   7.126  10.604 -0.1281 -0.1101 -0.0739
  147loPI   PO4 2340  12.822   7.131  10.121  0.0101 -0.1381 -0.3862
  147loPI   GL1 2341  12.448   7.149   9.936  0.1535 -0.1386 -0.0705
  147loPI   GL2 2342  12.244   7.131   9.951  0.1121 -0.1339 -0.4224
  147loPI   C1A 2343  12.315   6.724   9.712 -0.2111  0.1494 -0.1367
  147loPI   C2A 2344  12.314   6.715   9.274 -0.1240  0.0515 -0.1727
  147loPI   C3A 2345  12.302   6.753   8.788  0.2795  0.1713  0.1663
  147loPI   C4A 2346  12.261   6.696   8.301  0.1756  0.3165  0.3391
  147loPI   C5A 2347  12.214   6.722   7.849  0.0030  0.0525 -0.2604
  147loPI   C6A 2348  12.376   6.604   7.421  0.0899 -0.1961 -0.0071
  147loPI   C1B 2349  12.193   7.193   9.485 -0.4227  0.1108  0.1503
  147loPI   C2B 2350  12.144   7.358   8.966 -0.2125  0.0036  0.1061
  147loPI   C3B 2351  12.196   7.337   8.484 -0.1925  0.1530 -0.3796
  147loPI   C4B 2352  12.062   7.326   7.995  0.0657 -0.2625  0.3338
  148loPI    C1 2353   8.616  16.914  10.563  0.1155  0.0441  0.1325
  148loPI    C2 2354   8.717  16.530  10.518 -0.0779  0.0363 -0.2803
  148loPI    C3 2355   8.970  16.784  10.695  0.0427 -0.2817  0.0160
  148loPI   PO4 2356   8.509  16.932  10.293 -0.1257 -0.0026 -0.1484
  148loPI   GL1 2357   8.231  17.166   9.979  0.1517  0.1623 -0.0303
  148loPI   GL2 2358   8.472  17.063   9.844 -0.0325 -0.0662 -0.1514
  148loPI   C1A 2359   7.954  17.521   9.693 -0.4021  0.0460  0.4135
  148loPI   C2A 2360   7.831  17.648   9.257  0.1690 -0.2499 -0.0280
  148loPI   C3A 2361   7.583  17.661   8.886 -0.2455 -0.0577 -0.0793
  148loPI   C4A 2362   7.596  17.785   8.478  0.0806 -0.2254  0.2471
  148loPI   C5A 2363   7.662  18.038   8.172 -0.0074  0.2502 -0.2034
  148loPI   C6A 2364   7.984  18.098   7.864  0.4256  0.0139 -0.1183
  148loPI   C1B 2365   8.282  17.092   9.425 -0.1368 -0.2035 -0.0900
  148loPI   C2B 2366   8.104  17.321   9.077  0.2839  0.2211 -0.3657
  148loPI   C3B 2367   8.038  17.330   8.648 -0.0728  0.0956  0.1492
  148loPI   C4B 2368   8.058  17.463   8.360 -0.2712  0.0802 -0.0237
  149loPI    C1 2369  13.132  17.709   9.736 -0.2325 -0.0566 -0.0147
  149loPI    C2 2370  12.938  17.670  10.084 -0.4282 -0.0828 -0.1256
  149loPI    C3 2371  13.268  17.894  10.064 -0.4550 -0.0250  0.0617
  149loPI   PO4 2372  13.070  17.382   9.641 -0.1800  0.0879  0.2352
  149loPI   GL1 2373  13.026  17.286   9.143  0.0979 -0.3657  0.2434
  149loPI   GL2 2374  13.208  17.043   9.061 -0.1584  0.1847  0.2475
  149loPI   C1A 2375  12.823  17.461   8.846 -0.2113  0.0614  0.2471
  149loPI   C2A 2376  12.747  17.346   8.494  0.1920 -0.1846  0.1808
  149loPI   C3A 2377  12.617  17.178   8.092 -0.0762 -0.2473  0.0301
  149loPI   C4A 2378  12.382  17.200   7.691  0.4237 -0.0677  0.0478
  149loPI   C5A 2379  12.277  17.075   7.234  0.1237  0.4005  0.2812
  149loPI   C6A 2380  12.431  16.718   6.853 -0.0025  0.0296  0.0845
  149loPI   C1B 2381  13.314  17.198   8.725  0.0828 -0.0613  0.3100
  149loPI   C2B 2382  13.254  17.214   8.265  0.1487  0.0688 -0.6100
  149loPI   C3B 2383  13.393  16.958   7.907 -0.1799  0.1267 -0.2172
  149loPI   C4B 2384  13.363  16.887   7.455  0.5458  0.1620 -0.0587
  150loPI    C1 2385  17.475  16.164  10.056  0.0692 -0.0636  0.0318
  150loPI    C2 2386  17.172  15.943  10.196  0.1882 -0.3972 -0.2243
  150loPI    C3 2387  17.475  16.043  10.437 -0.1508 -0.0027  0.0527
  150loPI   PO4 2388  17.560  16.047   9.857  0.0855 -0.3337  0.1148
  150loPI   GL1 2389  17.568  16.182   9.380 -0.0070 -0.3141  0.0192
  150loPI   GL2 2390  17.209  16.127   9.243 -0.1837  0.0793 -0.1010
  150loPI   C1A 2391  17.721  15.950   9.125 -0.0782  0.2014 -0.1534
  150loPI   C2A 2392  17.715  15.734   8.851 -0.1406 -0.2247  0.2820
  150loPI   C3A 2393  17.701  15.642   8.429  0.0189  0.0515  0.1739
  150loPI   C4A 2394  17.582  15.614   8.083  0.1614 -0.0911 -0.0528
  150loPI   C5A 2395  17.315  15.681   7.707 -0.2749  0.0955  0.3008
  150loPI   C6A 2396  17.212  15.543   7.274 -0.2943  0.0900 -0.0532
  150loPI   C1B 2397  17.155  16.499   9.023 -0.0232  0.0570  0.3678
  150loPI   C2B 2398  17.072  16.453   8.591 -0.2092  0.1646 -0.2662
  150loPI   C3B 2399  17.196  16.368   8.235 -0.0217 -0.0599 -0.1114
  150loPI   C4B 2400  17.485  16.140   7.854 -0.0350  0.5919 -0.0797
  151loPI    C1 2401  12.259   8.147  10.002 -0.0250  0.1141 -0.0259
  151loPI    C2 2402  11.959   8.407   9.958 -0.0903  0.1403  0.5035
  151loPI    C3 2403  12.256   8.487  10.213  0.3382  0.0818  0.0379
  151loPI   PO4 2404  12.318   8.051   9.781 -0.2413  0.0426  0.3098
  151loPI   GL1 2405  12.353   8.122   9.369 -0.0277  0.1408 -0.1430
  151loPI   GL2 2406  12.104   8.392   9.383  0.2843  0.1716 -0.0031
  151loPI   C1A 2407  12.190   8.206   8.920  0.0736  0.0929  0.0229
  151loPI   C2A 2408  12.125   7.944   8.584 -0.1497 -0.2010  0.0093
  151loPI   C3A 2409  12.050   7.825   8.255 -0.0238 -0.0518  0.3266
  151loPI   C4A 2410  12.073   7.836   7.827  0.3748 -0.2291 -0.1410
  151loPI   C5A 2411  12.119   7.490   7.477 -0.0577  0.0553 -0.0051
  151loPI   C6A 2412  12.047   7.074   7.469 -0.1828  0.2003 -0.0721
  151loPI   C1B 2413  11.778   8.510   9.086 -0.0432  0.1872 -0.5777
  151loPI   C2B 2414  11.477   8.514   8.711  0.2279 -0.2128  0.1353
  151loPI   C3B 2415  11.410   8.667   8.288 -0.2042 -0.2683  0.2634
  151loPI   C4B 2416  11.340   8.897   7.927  0.1093  0.2898  0.0899
  152loPI    C1 2417   9.849  13.934  10.076 -0.0143  0.0214 -0.1000
  152loPI    C2 2418   9.885  14.304  10.224  0.1925  0.0072 -0.1118
  152loPI    C3 2419  10.160  14.026  10.310  0.0222 -0.1532 -0.0780
  152loPI   PO4 2420   9.827  13.866   9.836 -0.1496  0.0779 -0.0088
  152loPI   GL1 2421  10.028  13.931   9.317  0.3093 -0.2138  0.2113
  152loPI   GL2 2422   9.779  13.877   9.339 -0.1140 -0.2711 -0.1734
  152loPI   C1A 2423  10.133  13.944   8.977 -0.1335 -0.1815 -0.2647
  152loPI   C2A 2424  10.488  13.924   8.780 -0.0653 -0.0347 -0.0989
  152loPI   C3A 2425  10.809  14.092   8.616  0.0880  0.0613 -0.2644
  152loPI   C4A 2426  10.762  14.243   8.206  0.0249 -0.1422 -0.0882
  152loPI   C5A 2427  10.713  14.315   7.872  0.2608 -0.0090 -0.0510
  152loPI   C6A 2428  10.829  14.049   7.471 -0.0895  0.0115 -0.1182
  152loPI   C1B 2429   9.625  13.756   9.011 -0.2460  0.0067 -0.4464
  152loPI   C2B 2430   9.702  13.858   8.683 -0.0026 -0.0315  0.0391
  152loPI   C3B 2431  10.038  13.781   8.418 -0.3024  0.1111  0.1092
  152loPI   C4B 2432  10.502  13.768   8.352  0.2905 -0.0446 -0.1279
  153loPI    C1 2433  16.660   5.495   9.800 -0.3845  0.0835 -0.1754
  153loPI    C2 2434  16.571   5.225  10.081  0.2098  0.0715  0.0147
  153loPI    C3 2435  16.870   5.155   9.825 -0.1048  0.2347 -0.4081
  153loPI   PO4 2436  16.442   5.551   9.691  0.1127 -0.2291 -0.1685
  153loPI   GL1 2437  16.403   5.516   9.325  0.0590 -0.0339 -0.1247
  153loPI   GL2 2438  16.427   5.918   9.335 -0.1207  0.1067 -0.0343
  153loPI   C1A 2439  16.600   5.552   8.980  0.0165  0.0909  0.0032
  153loPI   C2A 2440  16.313   5.489   8.537  0.1220 -0.0049  0.2460
  153loPI   C3A 2441  16.168   5.569   8.195  0.1061  0.2587  0.0859
  153loPI   C4A 2442  15.840   5.387   7.933 -0.0854 -0.0683  0.0180
  153loPI   C5A 2443  15.572   5.475   7.596  0.1595  0.2721  0.1643
  153loPI   C6A 2444  15.261   5.819   7.495  0.0039 -0.1114 -0.2708
  153loPI   C1B 2445  16.149   5.772   9.015  0.0660 -0.0702 -0.1840
  153loPI   C2B 2446  15.998   5.819   8.684  0.1739 -0.0525 -0.1199
  153loPI   C3B 2447  16.024   6.025   8.280  0.1341  0.2389 -0.1217
  153loPI   C4B 2448  15.934   6.224   7.918 -0.0222 -0.0198  0.2189
  154loPI    C1 2449  16.963  11.743   9.979  0.0547 -0.0625 -0.0420
  154loPI    C2 2450  17.156  11.865  10.308 -0.0502 -0.0958  0.0322
  154loPI    C3 2451  16.881  11.575  10.333 -0.0317 -0.1244 -0.0911
  154loPI   PO4 2452  16.829  11.908   9.886  0.1859  0.0090  0.0686
  154loPI   GL1 2453  16.827  12.107   9.507  0.1954 -0.1924  0.0260
  154loPI   GL2 2454  17.147  12.042   9.542  0.0079 -0.1432  0.1499
  154loPI   C1A 2455  16.693  12.413   9.266  0.0501 -0.0617  0.0900
  154loPI   C2A 2456  17.030  12.634   9.016 -0.1775 -0.0111 -0.2302
  154loPI   C3A 2457  17.040  12.815   8.658  0.3621 -0.1263 -0.1137
  154loPI   C4A 2458  17.128  13.023   8.356  0.0960  0.0565  0.0669
  154loPI   C5A 2459  16.826  13.031   7.970 -0.3988  0.0803  0.1732
  154loPI   C6A 2460  16.534  12.759   7.779  0.1282 -0.0861 -0.1295
  154loPI   C1B 2461  17.084  12.100   9.053 -0.0671  0.0449 -0.3499
  154loPI   C2B 2462  16.980  12.266   8.660  0.0977  0.2482 -0.2168
  154loPI   C3B 2463  16.906  12.343   8.291 -0.0645 -0.0698  0.2267
  154loPI   C4B 2464  16.612  12.333   7.974  0.0178 -0.0559  0.1473
  155loPI    C1 2465  11.023   7.225  10.632  0.0311  0.0911 -0.0191
  155loPI    C2 2466  10.670   7.225  10.822  0.0315 -0.0901 -0.0165
  155loPI    C3 2467  10.855   7.571  10.742  0.0110 -0.0089  0.2752
  155loPI   PO4 2468  10.989   7.094  10.413 -0.4892  0.2252 -0.0267
  155loPI   GL1 2469  10.794   7.066  10.078  0.2094  0.0677 -0.0700
  155loPI   GL2 2470  10.437   6.999  10.052  0.1401  0.1166  0.1855
  155loPI   C1A 2471  10.942   6.863   9.639 -0.0231 -0.0063 -0.1528
  155loPI   C2A 2472  10.924   6.877   9.149  0.1405  0.0173 -0.3240
  155loPI   C3A 2473  10.943   6.875   8.657  0.0602  0.1747  0.0158
  155loPI   C4A 2474  10.759   6.759   8.271  0.1099  0.2221  0.0016
  155loPI   C5A 2475  10.880   6.565   7.882  0.2577  0.1739 -0.0484
  155loPI   C6A 2476  10.777   6.634   7.438  0.0059  0.1940 -0.2550
  155loPI   C1B 2477  10.509   7.062   9.616 -0.2134  0.2583 -0.0999
  155loPI   C2B 2478  10.434   7.081   9.212 -0.2948 -0.0518 -0.2883
  155loPI   C3B 2479  10.315   7.070   8.926  0.0574 -0.1596 -0.1643
  155loPI   C4B 2480  10.404   6.993   8.543  0.1527  0.2079  0.3271
  156loPI    C1 2481  10.333  16.032  10.298 -0.0015 -0.3437  0.0931
  156loPI    C2 2482  10.334  16.335  10.559  0.2775 -0.2766  0.0176
  156loPI    C3 2483  10.459  15.972  10.673  0.0143 -0.3475  0.0873
  156loPI   PO4 2484  10.121  16.033  10.068  0.0213  0.0561  0.1947
  156loPI   GL1 2485  10.140  16.038   9.666 -0.0600  0.3662  0.0998
  156loPI   GL2 2486  10.260  15.808   9.488 -0.0740  0.3155 -0.1116
  156loPI   C1A 2487  10.215  16.276   9.314 -0.2201 -0.0327 -0.0499
  156loPI   C2A 2488  10.151  16.332   8.857  0.0945 -0.2968 -0.0771
  156loPI   C3A 2489  10.217  16.417   8.479 -0.3509 -0.0381  0.1208
  156loPI   C4A 2490  10.383  16.432   8.174  0.0066 -0.1121 -0.0330
  156loPI   C5A 2491  10.567  16.371   7.835 -0.2030  0.1122  0.1528
  156loPI   C6A 2492  10.509  16.558   7.400 -0.0471  0.0358 -0.2927
  156loPI   C1B 2493  10.083  15.835   9.101  0.0817  0.0984 -0.5939
  156loPI   C2B 2494   9.929  15.935   8.795  0.3153 -0.2414  0.3105
  156loPI   C3B 2495   9.624  15.837   8.444 -0.2762  0.1787  0.3006
  156loPI   C4B 2496   9.385  16.136   8.256  0.3460  0.0470  0.1013
  157loPI    C1 2497   3.804  12.923  10.161  0.2587 -0.2537 -0.0497
  157loPI    C2 2498   3.964  12.984  10.523  0.0118  0.1769 -0.0065
  157loPI    C3 2499   3.572  12.913  10.488  0.0847 -0.1635 -0.1688
  157loPI   PO4 2500   3.930  13.058  10.045 -0.1273  0.4409  0.2667
  157loPI   GL1 2501   3.867  13.175   9.589  0.0674  0.0032 -0.1173
  157loPI   GL2 2502   3.998  13.409   9.512  0.0629 -0.1067  0.1166
  157loPI   C1A 2503   3.477  13.183   9.217 -0.0829 -0.0441 -0.1683
  157loPI   C2A 2504   3.561  13.169   8.719 -0.1066 -0.0449 -0.1424
  157loPI   C3A 2505   3.661  13.378   8.299 -0.0031  0.1121  0.0887
  157loPI   C4A 2506   3.846  13.562   7.989 -0.0892 -0.2209  0.3088
  157loPI   C5A 2507   3.973  13.855   7.606  0.0536  0.4258 -0.1237
  157loPI   C6A 2508   4.190  13.826   7.352 -0.0011  0.1184  0.4201
  157loPI   C1B 2509   3.923  13.443   9.186 -0.3219 -0.2378  0.3452
  157loPI   C2B 2510   4.029  13.438   8.733 -0.3267  0.1073  0.1368
  157loPI   C3B 2511   4.234  13.438   8.342 -0.0593  0.0554 -0.1000
  157loPI   C4B 2512   4.324  13.304   7.867  0.2256 -0.3732  0.0996
  158loPI    C1 2513  17.052   7.479  10.042 -0.0193 -0.0792  0.0035
  158loPI    C2 2514  17.027   7.363  10.424  0.1596  0.0230  0.0472
  158loPI    C3 2515  17.381   7.470  10.270  0.1077 -0.1249 -0.1788
  158loPI   PO4 2516  16.857   7.306   9.941 -0.2114 -0.2337  0.1163
  158loPI   GL1 2517  16.504   7.149   9.570  0.1314 -0.4542  0.1609
  158loPI   GL2 2518  16.412   6.816   9.464  0.2752 -0.4349  0.1727
  158loPI   C1A 2519  16.482   7.374   9.068  0.1927 -0.0654 -0.0883
  158loPI   C2A 2520  16.565   7.215   8.687 -0.0377  0.1237  0.3852
  158loPI   C3A 2521  16.826   7.172   8.348  0.1539  0.1006 -0.1910
  158loPI   C4A 2522  16.958   7.263   7.849 -0.0593 -0.1445 -0.1666
  158loPI   C5A 2523  17.021   7.238   7.344 -0.0549 -0.1271 -0.1042
  158loPI   C6A 2524  17.055   7.059   6.931 -0.0503 -0.0943  0.2480
  158loPI   C1B 2525  16.198   6.919   9.093  0.0657  0.0617  0.0405
  158loPI   C2B 2526  16.130   6.944   8.614 -0.1867 -0.1365  0.0667
  158loPI   C3B 2527  16.514   6.726   8.575  0.0083  0.0747 -0.0588
  158loPI   C4B 2528  16.680   6.372   8.574 -0.0982  0.0380  0.2798
  159loPI    C1 2529   0.465  11.335  10.240 -0.1817 -0.1785  0.0332
  159loPI    C2 2530   0.798  11.235  10.041 -0.1958 -0.0735 -0.0443
  159loPI    C3 2531   0.793  11.225  10.441 -0.1181 -0.1326 -0.0446
  159loPI   PO4 2532   0.314  11.223  10.054  0.1527 -0.3358 -0.0004
  159loPI   GL1 2533   0.335  11.358   9.580  0.0923  0.1787  0.0679
  159loPI   GL2 2534   0.668  11.421   9.538 -0.0886  0.1279 -0.0256
  159loPI   C1A 2535   0.386  11.495   9.128 -0.0793 -0.0215 -0.1280
  159loPI   C2A 2536   0.410  11.524   8.752 -0.4256 -0.0807  0.1221
  159loPI   C3A 2537   0.397  11.770   8.404 -0.0900  0.0458  0.0418
  159loPI   C4A 2538   0.394  11.751   7.977 -0.0401  0.1668  0.2163
  159loPI   C5A 2539   0.613  12.073   7.569 -0.0177 -0.0042  0.1294
  159loPI   C6A 2540   0.817  12.383   7.330 -0.0768 -0.1109 -0.3264
  159loPI   C1B 2541   0.798  11.332   9.102 -0.0898 -0.2118 -0.0855
  159loPI   C2B 2542   0.865  11.280   8.679 -0.2235  0.0248 -0.0734
  159loPI   C3B 2543   1.037  11.227   8.292 -0.0604 -0.1139  0.1878
  159loPI   C4B 2544   1.245  10.951   8.169 -0.1540  0.0434  0.1692
  160loPI    C1 2545  15.182   1.355  10.349  0.0203 -0.0930  0.2322
  160loPI    C2 2546  14.811   1.381  10.203  0.0651 -0.1210  0.1127
  160loPI    C3 2547  14.921   1.610  10.512 -0.0163 -0.0279  0.0732
  160loPI   PO4 2548  15.279   1.367  10.037  0.3366 -0.2654  0.0510
  160loPI   GL1 2549  15.512   1.410   9.644  0.0585 -0.0809  0.1134
  160loPI   GL2 2550  15.257   1.527   9.473 -0.1162  0.0711  0.1200
  160loPI   C1A 2551  15.721   1.271   9.290  0.0854  0.0172 -0.0054
  160loPI   C2A 2552  15.612   1.370   8.870  0.1193  0.0705  0.0851
  160loPI   C3A 2553  15.682   1.337   8.392 -0.0472  0.2836  0.0723
  160loPI   C4A 2554  15.655   1.347   7.927 -0.1927 -0.0394 -0.3017
  160loPI   C5A 2555  15.494   1.249   7.534 -0.2146  0.1363 -0.1958
  160loPI   C6A 2556  15.072   1.133   7.357 -0.0708 -0.2536 -0.1325
  160loPI   C1B 2557  15.057   1.559   9.049  0.1595  0.1795 -0.3492
  160loPI   C2B 2558  15.138   1.392   8.635 -0.0988  0.0617 -0.1000
  160loPI   C3B 2559  15.212   1.494   8.215  0.1847  0.3059 -0.1434
  160loPI   C4B 2560  15.124   1.593   7.819 -0.0914 -0.1296  0.0227
  161loPI    C1 2561  12.894   9.236  10.107 -0.1428  0.2903  0.1113
  161loPI    C2 2562  13.224   9.287  10.327 -0.1180 -0.1448  0.1826
  161loPI    C3 2563  12.872   9.224  10.506 -0.1826 -0.0182  0.1018
  161loPI   PO4 2564  12.980   9.276   9.875 -0.0777  0.1889 -0.1078
  161loPI   GL1 2565  12.847   9.084   9.476  0.0805 -0.0670 -0.4435
  161loPI   GL2 2566  13.034   8.723   9.606  0.1481  0.2021  0.0564
  161loPI   C1A 2567  12.908   9.255   9.062 -0.1263  0.1277 -0.2112
  161loPI   C2A 2568  12.746   9.257   8.564  0.2017  0.3377 -0.3861
  161loPI   C3A 2569  12.790   9.024   8.223 -0.2128  0.0560  0.5730
  161loPI   C4A 2570  13.039   8.970   7.890 -0.2020  0.0414 -0.0778
  161loPI   C5A 2571  13.367   8.699   7.739  0.0291 -0.0641  0.1030
  161loPI   C6A 2572  13.832   8.670   7.533  0.1191  0.2969  0.2304
  161loPI   C1B 2573  12.906   8.707   9.144  0.1663  0.4369  0.1248
  161loPI   C2B 2574  12.714   8.810   8.733  0.1189  0.4249  0.1872
  161loPI   C3B 2575  12.396   8.778   8.382  0.2358 -0.2301  0.3161
  161loPI   C4B 2576  12.463   8.686   7.931 -0.0764 -0.1581  0.0096
  162loPI    C1 2577   3.000  15.027  10.030  0.0318 -0.0037 -0.0360
  162loPI    C2 2578   3.218  14.766   9.819 -0.0910 -0.1626  0.0312
  162loPI    C3 2579   3.132  14.690  10.202 -0.0815  0.0039  0.0671
  162loPI   PO4 2580   3.076  15.241   9.849  0.0373  0.0623  0.0689
  162loPI   GL1 2581   2.995  15.443   9.520  0.3261 -0.0999 -0.0843
  162loPI   GL2 2582   2.659  15.583   9.632  0.2449  0.2274 -0.0899
  162loPI   C1A 2583   3.188  15.446   9.120  0.0920 -0.0170  0.0235
  162loPI   C2A 2584   3.345  15.499   8.738 -0.1660  0.0973  0.2061
  162loPI   C3A 2585   3.395  15.409   8.330  0.1637 -0.0075  0.0768
  162loPI   C4A 2586   3.685  15.371   8.070 -0.0754  0.1211 -0.1157
  162loPI   C5A 2587   3.733  15.196   7.657 -0.0082  0.4203 -0.0223
  162loPI   C6A 2588   4.016  14.867   7.555  0.0970  0.0515 -0.3199
  162loPI   C1B 2589   2.637  15.462   9.154 -0.1276  0.0860 -0.2256
  162loPI   C2B 2590   2.777  15.363   8.828  0.1470  0.1695 -0.1305
  162loPI   C3B 2591   2.921  15.586   8.458  0.2274 -0.4708  0.1514
  162loPI   C4B 2592   3.098  15.768   8.029 -0.0752  0.0223 -0.0600
  163loPI    C1 2593  15.919   0.593  10.033  0.1034 -0.1173  0.0277
  163loPI    C2 2594  16.213   0.785  10.225  0.1772 -0.1588 -0.0430
  163loPI    C3 2595  15.837   0.806  10.361  0.2009 -0.0458  0.0061
  163loPI   PO4 2596  15.994   0.629   9.739 -0.0815  0.1412  0.0530
  163loPI   GL1 2597  15.854   0.744   9.382  0.1990 -0.0939 -0.3460
  163loPI   GL2 2598  16.250   0.675   9.250  0.0202  0.1555 -0.1608
  163loPI   C1A 2599  15.786   0.851   9.026  0.2367 -0.1263  0.1465
  163loPI   C2A 2600  15.946   0.831   8.589  0.2540 -0.1009 -0.1710
  163loPI   C3A 2601  15.826   0.821   8.215  0.0786  0.2102 -0.0603
  163loPI   C4A 2602  15.782   0.824   7.750  0.0457 -0.2266 -0.2156
  163loPI   C5A 2603  15.601   0.670   7.475 -0.0834 -0.0346  0.1399
  163loPI   C6A 2604  15.541   0.320   7.299  0.0737  0.0167  0.3074
  163loPI   C1B 2605  16.368   0.713   8.782 -0.3022  0.1945  0.2581
  163loPI   C2B 2606  16.358   0.800   8.326  0.0901 -0.0098 -0.1429
  163loPI   C3B 2607  16.261   0.909   7.969  0.0628 -0.0996 -0.1173
  163loPI   C4B 2608  16.052   1.211   7.617  0.1300 -0.1229 -0.1452
  164loPI    C1 2609  10.111   6.627  10.957  0.0379  0.0736  0.0252
  164loPI    C2 2610   9.984   6.363  11.228 -0.1082  0.0610 -0.0547
  164loPI    C3 2611   9.736   6.648  11.095  0.0028  0.1465 -0.0793
  164loPI   PO4 2612  10.194   6.549  10.770  0.0625 -0.1370 -0.3024
  164loPI   GL1 2613  10.234   6.405  10.420 -0.2395 -0.1829  0.0300
  164loPI   GL2 2614  10.153   6.633  10.203  0.4088  0.3886 -0.0521
  164loPI   C1A 2615  10.143   6.224   9.984 -0.0942 -0.0141  0.1851
  164loPI   C2A 2616  10.086   6.202   9.496 -0.0504 -0.1848  0.0839
  164loPI   C3A 2617   9.972   6.271   9.082 -0.2268  0.0713 -0.1531
  164loPI   C4A 2618   9.984   6.303   8.683 -0.1723  0.0311  0.1169
  164loPI   C5A 2619   9.843   6.363   8.288  0.1717 -0.0220 -0.0521
  164loPI   C6A 2620   9.971   6.606   7.837 -0.3006  0.2099 -0.0592
  164loPI   C1B 2621  10.140   6.725   9.691 -0.0617  0.0037 -0.0779
  164loPI   C2B 2622   9.933   6.782   9.220  0.1082  0.2229  0.4725
  164loPI   C3B 2623   9.893   6.842   8.755 -0.0573  0.1843 -0.2844
  164loPI   C4B 2624   9.898   6.819   8.282  0.0083  0.1438  0.1175
  165loPI    C1 2625   9.269   7.735  10.625  0.2110  0.1065 -0.1684
  165loPI    C2 2626   9.611   7.758  10.831 -0.0295 -0.0289  0.2593
  165loPI    C3 2627   9.356   8.066  10.832  0.0176  0.0121  0.0690
  165loPI   PO4 2628   9.354   7.705  10.417  0.0167 -0.0082 -0.0107
  165loPI   GL1 2629   9.746   7.570  10.169 -0.3364  0.3897  0.1324
  165loPI   GL2 2630   9.443   7.334  10.034  0.2365 -0.0016  0.1500
  165loPI   C1A 2631   9.931   7.704   9.736  0.3389  0.2200 -0.1420
  165loPI   C2A 2632   9.817   7.820   9.328 -0.1319 -0.0626 -0.2497
  165loPI   C3A 2633   9.764   7.920   9.005  0.0849 -0.0244 -0.2591
  165loPI   C4A 2634   9.781   7.762   8.654  0.3691  0.1130 -0.2635
  165loPI   C5A 2635   9.924   7.769   8.235 -0.0967  0.0381  0.0067
  165loPI   C6A 2636  10.302   7.899   8.093 -0.6559 -0.0252  0.0965
  165loPI   C1B 2637   9.458   7.503   9.578  0.0497  0.1840  0.0159
  165loPI   C2B 2638   9.454   7.550   9.019 -0.1075  0.0839  0.0184
  165loPI   C3B 2639   9.374   7.469   8.585 -0.2294  0.2068 -0.2539
  165loPI   C4B 2640   9.257   7.599   8.212  0.1338 -0.0953 -0.2510
  166loPI    C1 2641   6.746  15.189  10.499  0.1855  0.1313 -0.1844
  166loPI    C2 2642   7.047  15.021  10.296  0.4116  0.2907  0.0135
  166loPI    C3 2643   7.074  15.402  10.414  0.1188  0.3148  0.0096
  166loPI   PO4 2644   6.511  15.050  10.314 -0.1309 -0.1597 -0.1508
  166loPI   GL1 2645   6.652  14.853   9.919 -0.0143  0.0523 -0.1565
  166loPI   GL2 2646   6.399  15.016   9.767  0.1257 -0.1385  0.0128
  166loPI   C1A 2647   6.795  14.735   9.487 -0.3198  0.1657  0.0698
  166loPI   C2A 2648   6.872  14.757   9.085  0.0064  0.1306  0.0430
  166loPI   C3A 2649   6.889  14.838   8.680 -0.1068  0.2009 -0.0878
  166loPI   C4A 2650   7.004  14.773   8.335 -0.3698  0.1529  0.0179
  166loPI   C5A 2651   7.209  14.667   7.872 -0.1482 -0.1269 -0.1280
  166loPI   C6A 2652   7.486  14.434   7.587 -0.0418 -0.1182 -0.2660
  166loPI   C1B 2653   6.347  15.090   9.365 -0.3197 -0.1398 -0.1201
  166loPI   C2B 2654   6.434  15.145   8.883 -0.1187 -0.1838  0.2152
  166loPI   C3B 2655   6.526  15.041   8.375 -0.2325 -0.0392 -0.0786
  166loPI   C4B 2656   6.469  15.280   7.907 -0.1603  0.2702  0.2522
  167loPI    C1 2657  13.659  14.095   9.656 -0.1588  0.0996  0.0865
  167loPI    C2 2658  13.737  14.113  10.048 -0.0141  0.0617  0.0598
  167loPI    C3 2659  13.733  13.760   9.861 -0.5339  0.0300  0.1157
  167loPI   PO4 2660  13.779  14.310   9.553 -0.0053  0.0016  0.5561
  167loPI   GL1 2661  14.170  14.361   9.163 -0.1415 -0.2376  0.1173
  167loPI   GL2 2662  14.477  14.214   9.091  0.3006 -0.2922 -0.0314
  167loPI   C1A 2663  14.038  14.583   8.844 -0.1807  0.1287  0.4309
  167loPI   C2A 2664  13.809  14.390   8.487 -0.0436 -0.0464  0.2404
  167loPI   C3A 2665  13.722  14.020   8.198 -0.1110 -0.1183 -0.2252
  167loPI   C4A 2666  13.485  14.036   7.849 -0.1556 -0.0754 -0.0715
  167loPI   C5A 2667  13.608  14.090   7.432  0.1326  0.0858  0.0365
  167loPI   C6A 2668  13.985  14.056   7.233  0.1052  0.0669 -0.0342
  167loPI   C1B 2669  14.541  14.085   8.609  0.3014  0.2925 -0.1875
  167loPI   C2B 2670  14.776  14.203   8.222 -0.1943 -0.1011 -0.1124
  167loPI   C3B 2671  15.000  13.924   7.859 -0.0259 -0.0539  0.0003
  167loPI   C4B 2672  14.935  13.894   7.451  0.0595  0.1947  0.0321
  168loPI    C1 2673  17.662   7.021  10.010 -0.0817  0.1240  0.0596
  168loPI    C2 2674  17.935   7.301  10.092  0.2956 -0.2132 -0.0125
  168loPI    C3 2675  17.812   7.052  10.380 -0.1817  0.1380  0.0992
  168loPI   PO4 2676  17.510   7.118   9.880  0.0286 -0.2341  0.1785
  168loPI   GL1 2677  17.236   7.219   9.584 -0.0096 -0.3852  0.1224
  168loPI   GL2 2678  17.396   7.343   9.397  0.0511 -0.0218 -0.1767
  168loPI   C1A 2679  16.937   7.096   9.272 -0.1224  0.1546 -0.1938
  168loPI   C2A 2680  17.037   7.027   8.817 -0.0903 -0.2488 -0.0409
  168loPI   C3A 2681  17.230   6.847   8.448  0.1799 -0.2400 -0.1599
  168loPI   C4A 2682  17.130   6.821   8.145  0.0352 -0.0674 -0.2712
  168loPI   C5A 2683  17.351   6.907   7.765 -0.2485 -0.0375 -0.0518
  168loPI   C6A 2684  17.753   7.105   7.697 -0.2054 -0.0940 -0.0727
  168loPI   C1B 2685  17.559   7.244   8.904  0.2007 -0.1990 -0.2773
  168loPI   C2B 2686  17.623   7.148   8.491 -0.2663  0.0567 -0.2519
  168loPI   C3B 2687  17.409   7.243   8.104  0.1622  0.0817 -0.0317
  168loPI   C4B 2688  17.422   7.515   7.707 -0.1262  0.0728 -0.1818
  169loPI    C1 2689   6.819   7.568  10.972  0.1883 -0.2059  0.0780
  169loPI    C2 2690   6.657   7.844  11.211 -0.0142 -0.1105 -0.1657
  169loPI    C3 2691   6.658   7.460  11.322 -0.1218 -0.0696 -0.0193
  169loPI   PO4 2692   6.712   7.533  10.701  0.2302 -0.0892 -0.1194
  169loPI   GL1 2693   6.754   7.367  10.240 -0.1759 -0.1992 -0.3037
  169loPI   GL2 2694   6.879   7.080  10.311  0.2749  0.0780 -0.0955
  169loPI   C1A 2695   6.723   7.151   9.825 -0.0460 -0.0211  0.0197
  169loPI   C2A 2696   6.760   7.182   9.426 -0.0055  0.0475  0.1442
  169loPI   C3A 2697   6.619   6.964   8.991 -0.0467  0.0132 -0.0030
  169loPI   C4A 2698   6.632   7.146   8.620  0.0184  0.2527  0.2465
  169loPI   C5A 2699   6.634   7.503   8.417  0.0367  0.2222 -0.0509
  169loPI   C6A 2700   6.771   7.668   8.070 -0.0161  0.0129 -0.1657
  169loPI   C1B 2701   7.053   6.785  10.145 -0.0802 -0.0210  0.0693
  169loPI   C2B 2702   7.066   6.461   9.808 -0.1292  0.3046 -0.1634
  169loPI   C3B 2703   7.224   6.343   9.359  0.0742  0.0078 -0.1211
  169loPI   C4B 2704   7.372   6.353   8.931  0.2273  0.1092  0.0010
  170loPI    C1 2705  15.461   6.119  10.117 -0.1243  0.0983 -0.2443
  170loPI    C2 2706  15.755   6.366  10.004  0.0959 -0.0934 -0.0986
  170loPI    C3 2707  15.672   6.317  10.393 -0.2052  0.0447 -0.1432
  170loPI   PO4 2708  15.277   6.159   9.925 -0.0212 -0.0044  0.1799
  170loPI   GL1 2709  15.112   6.140   9.609  0.0360 -0.0207 -0.1035
  170loPI   GL2 2710  15.055   5.887   9.369  0.0349  0.2309  0.1103
  170loPI   C1A 2711  14.811   6.291   9.237  0.0451  0.2005  0.2853
  170loPI   C2A 2712  14.702   6.165   8.795 -0.1006  0.0627 -0.1561
  170loPI   C3A 2713  14.835   6.240   8.410  0.1716  0.3334 -0.0375
  170loPI   C4A 2714  15.021   6.546   8.099  0.0618 -0.2336  0.5114
  170loPI   C5A 2715  15.081   6.820   7.841  0.0883  0.0210 -0.0982
  170loPI   C6A 2716  15.251   6.874   7.583  0.2518 -0.1464  0.2427
  170loPI   C1B 2717  15.176   5.900   8.885 -0.0286  0.4967  0.0914
  170loPI   C2B 2718  15.189   5.939   8.429 -0.0706 -0.1846  0.1579
  170loPI   C3B 2719  15.144   6.106   7.957  0.3393  0.1516  0.3233
  170loPI   C4B 2720  15.175   6.294   7.533  0.0148  0.0737 -0.5140
  171loPI    C1 2721   9.444  15.424  10.160 -0.1610  0.0543  0.1083
  171loPI    C2 2722   9.217  15.371  10.485  0.0298 -0.2088  0.2018
  171loPI    C3 2723   9.447  15.073  10.350  0.0126 -0.0765 -0.1304
  171loPI   PO4 2724   9.355  15.482   9.953 -0.1765  0.3598 -0.2383
  171loPI   GL1 2725   9.112  15.743   9.609  0.4632 -0.1784 -0.3721
  171loPI   GL2 2726   9.216  15.385   9.418  0.3777 -0.0683 -0.0455
  171loPI   C1A 2727   9.005  15.846   9.239 -0.1809 -0.0134 -0.0261
  171loPI   C2A 2728   8.976  16.301   9.031  0.1166 -0.1538 -0.1710
  171loPI   C3A 2729   8.889  16.670   8.805  0.1315 -0.1571 -0.0050
  171loPI   C4A 2730   8.565  16.881   8.486 -0.3797  0.3633  0.0377
  171loPI   C5A 2731   8.221  16.996   8.249  0.1558  0.1538 -0.0795
  171loPI   C6A 2732   7.923  16.708   8.023 -0.0239  0.1277 -0.0774
  171loPI   C1B 2733   9.160  15.434   8.929 -0.0857  0.1850 -0.2947
  171loPI   C2B 2734   9.200  15.444   8.504 -0.0400  0.2234  0.0552
  171loPI   C3B 2735   9.271  15.266   8.106  0.0145  0.2794 -0.2188
  171loPI   C4B 2736   9.344  14.988   7.710  0.2399  0.2824 -0.0435
  172loPI    C1 2737  12.493   6.271  10.560  0.2117  0.0006  0.1717
  172loPI    C2 2738  12.398   5.978  10.815  0.0739  0.1318  0.2727
  172loPI    C3 2739  12.422   6.356  10.944  0.7741  0.1038  0.2617
  172loPI   PO4 2740  12.668   6.123  10.391 -0.2884 -0.1358 -0.1069
  172loPI   GL1 2741  12.527   6.020   9.948  0.1624 -0.3782 -0.2456
  172loPI   GL2 2742  12.650   6.275   9.904 -0.1886  0.1154 -0.3264
  172loPI   C1A 2743  12.409   5.762   9.556 -0.1097 -0.0354 -0.0259
  172loPI   C2A 2744  12.493   5.760   9.111  0.1717  0.1803 -0.1451
  172loPI   C3A 2745  12.379   5.780   8.726 -0.1028 -0.1823  0.0749
  172loPI   C4A 2746  12.263   5.716   8.306 -0.1794 -0.3886  0.0817
  172loPI   C5A 2747  12.091   5.607   7.952 -0.1430 -0.1379 -0.0192
  172loPI   C6A 2748  11.866   5.560   7.652 -0.0736  0.5195 -0.2929
  172loPI   C1B 2749  12.387   6.233   9.521 -0.2673 -0.2068  0.1768
  172loPI   C2B 2750  12.275   6.214   9.096 -0.0103 -0.1584 -0.0860
  172loPI   C3B 2751  12.269   6.248   8.587  0.0755  0.0997  0.3827
  172loPI   C4B 2752  12.265   6.224   8.065  0.1955  0.1904 -0.0027
  173loPI    C1 2753   7.164  17.742  10.969  0.0450  0.2819  0.0025
  173loPI    C2 2754   7.525  17.647  10.826 -0.0776 -0.2462  0.0264
  173loPI    C3 2755   7.454  17.626  11.219 -0.1346 -0.1439  0.0217
  173loPI   PO4 2756   7.105  17.949  10.798  0.0913 -0.1259  0.2899
  173loPI   GL1 2757   7.206  18.142  10.381 -0.5081 -0.1085  0.5486
  173loPI   GL2 2758   6.941  17.988  10.319 -0.2275 -0.0019  0.2457
  173loPI   C1A 2759   7.352  17.917   9.931 -0.1543 -0.0445  0.0814
  173loPI   C2A 2760   7.282  17.817   9.446 -0.1546  0.0705  0.1990
  173loPI   C3A 2761   7.191  17.991   9.022  0.2258 -0.1218  0.0769
  173loPI   C4A 2762   7.074  17.973   8.596  0.0351  0.0227 -0.0999
  173loPI   C5A 2763   7.106  18.043   8.162  0.0001  0.0694 -0.0562
  173loPI   C6A 2764   7.194  18.123   7.726 -0.4608  0.0960  0.1073
  173loPI   C1B 2765   6.775  18.082   9.891  0.0733 -0.2539 -0.2700
  173loPI   C2B 2766   6.785  18.146   9.422 -0.1393  0.0737  0.0029
  173loPI   C3B 2767   6.731  18.164   9.065 -0.2202 -0.5817 -0.0324
  173loPI   C4B 2768   6.696  18.293   8.646 -0.1407 -0.0121 -0.5912
  174loPI    C1 2769   7.082   6.032  10.892 -0.0484 -0.1962 -0.0044
  174loPI    C2 2770   6.755   6.153  11.087 -0.1285 -0.2270 -0.1190
  174loPI    C3 2771   7.084   6.380  11.090 -0.1755 -0.1589 -0.0673
  174loPI   PO4 2772   6.945   5.969  10.669 -0.2743  0.1072 -0.0811
  174loPI   GL1 2773   6.778   5.883  10.297 -0.0290 -0.0726 -0.1453
  174loPI   GL2 2774   6.731   6.126  10.173 -0.0084 -0.2508  0.1818
  174loPI   C1A 2775   6.675   5.592   9.900 -0.0640 -0.0423  0.1318
  174loPI   C2A 2776   6.819   5.580   9.481 -0.3003  0.1391  0.1541
  174loPI   C3A 2777   6.890   5.925   9.131  0.2750  0.1806  0.0604
  174loPI   C4A 2778   6.991   6.180   8.709  0.2212  0.2450  0.1620
  174loPI   C5A 2779   7.251   6.314   8.372  0.1027  0.1920  0.1413
  174loPI   C6A 2780   7.599   6.526   8.264  0.6583 -0.0463  0.2104
  174loPI   C1B 2781   7.099   5.975   9.925 -0.0838 -0.5139  0.2661
  174loPI   C2B 2782   7.265   5.830   9.559  0.1204  0.1298  0.2603
  174loPI   C3B 2783   7.363   5.882   9.029  0.2685  0.0044 -0.1694
  174loPI   C4B 2784   7.471   5.979   8.613  0.1322  0.0193  0.1314
  175loPI    C1 2785   7.487   3.217  11.255 -0.2778  0.1165  0.1274
  175loPI    C2 2786   7.752   2.948  11.386 -0.2759  0.0394 -0.0326
  175loPI    C3 2787   7.426   3.030  11.603 -0.1179  0.1412  0.1696
  175loPI   PO4 2788   7.381   3.132  10.971  0.1136 -0.0805  0.2735
  175loPI   GL1 2789   7.432   3.142  10.550 -0.0312 -0.1164 -0.3561
  175loPI   GL2 2790   7.607   3.115  10.269 -0.1794  0.2855  0.0249
  175loPI   C1A 2791   7.306   3.422  10.137  0.1572  0.0036 -0.0704
  175loPI   C2A 2792   7.270   3.489   9.781  0.0455  0.1873  0.1993
  175loPI   C3A 2793   7.229   3.469   9.338  0.0741  0.1255 -0.1750
  175loPI   C4A 2794   7.226   3.531   8.894  0.0064 -0.0644  0.1471
  175loPI   C5A 2795   7.253   3.500   8.387  0.0546  0.2995  0.1023
  175loPI   C6A 2796   7.541   3.729   8.298  0.3438  0.1604 -0.1864
  175loPI   C1B 2797   7.763   3.292   9.884  0.0396  0.0195 -0.1484
  175loPI   C2B 2798   7.749   3.416   9.487  0.0739  0.0092 -0.0693
  175loPI   C3B 2799   7.628   3.248   9.059  0.0129  0.1478 -0.0095
  175loPI   C4B 2800   7.668   3.359   8.620 -0.3722  0.2407 -0.3355
  176loPI    C1 2801   1.262   6.221  10.420  0.1348  0.1999 -0.1179
  176loPI    C2 2802   0.865   6.181  10.444  0.1540  0.0252 -0.0842
  176loPI    C3 2803   1.098   6.040  10.737  0.2267  0.3596  0.0225
  176loPI   PO4 2804   1.264   6.448  10.250 -0.0129  0.0144  0.0398
  176loPI   GL1 2805   0.937   6.461  10.009 -0.2249 -0.0803  0.0629
  176loPI   GL2 2806   0.957   6.803   9.911 -0.1366 -0.0076 -0.2502
  176loPI   C1A 2807   1.181   6.408   9.529  0.2518  0.3752 -0.1366
  176loPI   C2A 2808   1.123   6.196   9.129 -0.1696 -0.0881  0.1006
  176loPI   C3A 2809   0.989   6.186   8.658  0.2025  0.0354 -0.1579
  176loPI   C4A 2810   1.060   6.140   8.233 -0.0193 -0.4240  0.0225
  176loPI   C5A 2811   1.185   6.025   7.919  0.0856 -0.1176  0.0174
  176loPI   C6A 2812   1.559   6.024   7.570 -0.1816  0.0452  0.0393
  176loPI   C1B 2813   0.817   7.023   9.531  0.1690 -0.3497  0.0928
  176loPI   C2B 2814   1.070   7.117   9.117  0.2611  0.0876 -0.0141
  176loPI   C3B 2815   1.105   7.336   8.701  0.1143  0.0679  0.1777
  176loPI   C4B 2816   1.028   7.428   8.284 -0.1162  0.0877 -0.1239
  177loPI    C1 2817  17.142   4.692   9.939  0.0309 -0.0364 -0.0009
  177loPI    C2 2818  17.378   4.385  10.039 -0.0155 -0.0469  0.0780
  177loPI    C3 2819  16.982   4.353  10.079 -0.0107  0.0781  0.2344
  177loPI   PO4 2820  17.270   4.760   9.739  0.0556  0.1456 -0.0368
  177loPI   GL1 2821  17.382   4.421   9.340 -0.1868 -0.1583  0.0039
  177loPI   GL2 2822  17.550   4.757   9.251 -0.0576  0.0558  0.0722
  177loPI   C1A 2823  17.055   4.438   9.090  0.1938  0.0685  0.2065
  177loPI   C2A 2824  16.663   4.631   8.874  0.3163 -0.0911 -0.2823
  177loPI   C3A 2825  16.518   4.651   8.397 -0.2876 -0.3438  0.2760
  177loPI   C4A 2826  16.642   4.419   7.995  0.1032  0.2296  0.1640
  177loPI   C5A 2827  16.848   4.491   7.663  0.1022 -0.3724  0.0994
  177loPI   C6A 2828  16.677   4.527   7.218  0.0260  0.0488  0.0175
  177loPI   C1B 2829  17.597   4.557   8.786 -0.2362 -0.0661  0.1904
  177loPI   C2B 2830  17.950   4.511   8.503 -0.2820 -0.1698 -0.0613
  177loPI   C3B 2831  18.162   4.434   8.137 -0.0133  0.0589  0.3129
  177loPI   C4B 2832  18.533   4.467   7.833  0.1342 -0.3711  0.1119
  178loPI    C1 2833  10.775  11.418  10.021  0.0282 -0.1376  0.1038
  178loPI    C2 2834  10.672  11.698  10.288 -0.1498  0.1325 -0.2392
  178loPI    C3 2835  11.019  11.727  10.092 -0.1226  0.0562 -0.2033
  178loPI   PO4 2836  10.644  11.453   9.785  0.0115  0.4142  0.0650
  178loPI   GL1 2837  10.320  11.497   9.533 -0.1695 -0.1251 -0.2904
  178loPI   GL2 2838  10.242  11.788   9.514 -0.1025 -0.0187 -0.0151
  178loPI   C1A 2839  10.237  11.325   9.232 -0.3352 -0.0619 -0.0804
  178loPI   C2A 2840  10.019  11.602   9.058 -0.1719 -0.0033  0.1537
  178loPI   C3A 2841   9.834  11.796   8.750 -0.0010 -0.3754 -0.0167
  178loPI   C4A 2842   9.714  11.777   8.371 -0.0051  0.2017  0.1106
  178loPI   C5A 2843   9.773  11.631   7.939  0.0905 -0.0263 -0.0010
  178loPI   C6A 2844   9.791  11.281   7.686  0.2291  0.2692  0.1401
  178loPI   C1B 2845  10.438  12.175   9.352 -0.3383 -0.0412 -0.5007
  178loPI   C2B 2846  10.742  12.426   9.034  0.0802 -0.0780 -0.0588
  178loPI   C3B 2847  11.127  12.669   9.052  0.0227  0.3608 -0.0883
  178loPI   C4B 2848  11.549  12.713   9.215 -0.3425  0.0193 -0.0681
  179loPI    C1 2849  16.944   8.352  10.512  0.0067 -0.0340 -0.3243
  179loPI    C2 2850  16.744   8.696  10.548  0.2912  0.1130 -0.1039
  179loPI    C3 2851  16.718   8.418  10.834  0.0296 -0.0702 -0.3007
  179loPI   PO4 2852  16.945   8.368  10.190 -0.3210 -0.2957 -0.0348
  179loPI   GL1 2853  16.953   8.358   9.771  0.2542 -0.1110 -0.0036
  179loPI   GL2 2854  16.914   8.088   9.507 -0.3011  0.1821 -0.2154
  179loPI   C1A 2855  17.161   8.513   9.364  0.0833 -0.0528 -0.0062
  179loPI   C2A 2856  17.145   8.597   8.919 -0.1294  0.1560  0.1848
  179loPI   C3A 2857  17.127   8.738   8.443  0.4004  0.1949  0.3269
  179loPI   C4A 2858  17.146   8.756   8.041 -0.0243  0.1394  0.2532
  179loPI   C5A 2859  17.272   8.646   7.478  0.0321  0.3690  0.1181
  179loPI   C6A 2860  17.499   8.610   7.008 -0.3301  0.0584 -0.1194
  179loPI   C1B 2861  16.781   8.214   9.063 -0.2542 -0.2914 -0.1680
  179loPI   C2B 2862  16.759   8.184   8.654  0.1485  0.1484 -0.1216
  179loPI   C3B 2863  17.018   8.033   8.390  0.1498  0.3257  0.0260
  179loPI   C4B 2864  17.296   8.107   7.996 -0.0679 -0.2298 -0.1581
  180loPI    C1 2865  10.605  13.327  10.149  0.0252  0.0238  0.0532
  180loPI    C2 2866  10.585  13.657  10.374  0.1450  0.0087  0.0867
  180loPI    C3 2867  10.817  13.351  10.487  0.0459 -0.0814  0.0480
  180loPI   PO4 2868  10.503  13.432   9.954  0.2037 -0.0091  0.5725
  180loPI   GL1 2869  10.390  13.507   9.566  0.0234  0.1164 -0.0827
  180loPI   GL2 2870  10.061  13.486   9.678 -0.0844 -0.2064  0.2181
  180loPI   C1A 2871  10.446  13.451   9.135 -0.1232  0.2666  0.1834
  180loPI   C2A 2872  10.698  13.397   8.756  0.0100  0.2196  0.2992
  180loPI   C3A 2873  10.716  13.211   8.319  0.1058  0.2414 -0.5374
  180loPI   C4A 2874  10.688  13.413   7.910 -0.0285 -0.0738  0.0726
  180loPI   C5A 2875  10.470  13.658   7.601  0.2302  0.3660  0.2649
  180loPI   C6A 2876  10.463  13.884   7.233 -0.0099  0.3145 -0.1312
  180loPI   C1B 2877  10.014  13.349   9.271  0.0577 -0.1343  0.2358
  180loPI   C2B 2878  10.022  13.456   8.866 -0.2067  0.1516  0.1486
  180loPI   C3B 2879   9.729  13.274   8.547 -0.0676 -0.2161 -0.0310
  180loPI   C4B 2880   9.534  13.242   8.122  0.0419 -0.1795  0.2188
  181loPI    C1 2881   3.592   8.576  10.590 -0.1789 -0.1582 -0.2102
  181loPI    C2 2882   3.705   8.333  10.888  0.0339 -0.0294 -0.1837
  181loPI    C3 2883   3.382   8.566  10.931 -0.0715 -0.1814 -0.1442
  181loPI   PO4 2884   3.544   8.458  10.322 -0.1066 -0.0293  0.3784
  181loPI   GL1 2885   3.301   8.570  10.038  0.0876  0.0224  0.4141
  181loPI   GL2 2886   3.549   8.626   9.758 -0.1100  0.1036  0.2857
  181loPI   C1A 2887   3.213   8.253   9.696  0.0407  0.0754  0.2382
  181loPI   C2A 2888   2.905   8.158   9.408  0.3593  0.0741 -0.1058
  181loPI   C3A 2889   2.817   7.837   9.043 -0.0859 -0.0657  0.0833
  181loPI   C4A 2890   2.816   7.746   8.562  0.1268  0.1352  0.0155
  181loPI   C5A 2891   3.075   7.687   8.127 -0.0687  0.0179 -0.0783
  181loPI   C6A 2892   3.357   7.732   7.810 -0.0289  0.0737 -0.1731
  181loPI   C1B 2893   3.537   8.388   9.316 -0.2027 -0.1534 -0.0297
  181loPI   C2B 2894   3.617   8.338   8.878 -0.0674 -0.2494  0.0287
  181loPI   C3B 2895   3.622   8.294   8.500 -0.0308  0.2687 -0.1462
  181loPI   C4B 2896   3.525   8.088   8.079  0.4088 -0.0344  0.0371
  182loPI    C1 2897   5.670  16.132  10.416  0.0718 -0.0695  0.1866
  182loPI    C2 2898   5.493  15.774  10.397 -0.0796  0.0150 -0.0365
  182loPI    C3 2899   5.427  16.013  10.711  0.2398 -0.2618  0.2498
  182loPI   PO4 2900   5.735  16.186  10.198 -0.0823  0.1716 -0.2666
  182loPI   GL1 2901   5.809  15.997   9.835 -0.0990 -0.2863  0.2586
  182loPI   GL2 2902   5.841  15.725  10.071 -0.4224  0.0823 -0.3863
  182loPI   C1A 2903   5.839  16.011   9.368  0.2224 -0.0643 -0.1517
  182loPI   C2A 2904   6.078  15.945   8.943 -0.0814 -0.1586  0.2025
  182loPI   C3A 2905   6.086  15.871   8.348 -0.1026  0.3353  0.0130
  182loPI   C4A 2906   6.312  15.917   7.929 -0.0622  0.2922 -0.2687
  182loPI   C5A 2907   6.332  16.124   7.531  0.0840  0.2396 -0.0015
  182loPI   C6A 2908   6.412  16.103   7.092  0.1328 -0.0821 -0.3672
  182loPI   C1B 2909   5.459  15.665   9.752 -0.2475  0.2110  0.0570
  182loPI   C2B 2910   5.514  15.605   9.310  0.1433  0.1938 -0.0446
  182loPI   C3B 2911   5.610  15.710   8.888 -0.1635  0.0873  0.1010
  182loPI   C4B 2912   5.650  15.644   8.459 -0.0862  0.0977 -0.0367
  183loPI    C1 2913  17.249   7.939  10.085  0.1136  0.0771  0.0593
  183loPI    C2 2914  16.983   7.871  10.375 -0.0846  0.1194 -0.1098
  183loPI    C3 2915  17.365   7.943  10.467 -0.1253  0.0338  0.1342
  183loPI   PO4 2916  17.157   7.951   9.922  0.3852 -0.2925  0.0627
  183loPI   GL1 2917  17.390   7.849   9.461  0.1244 -0.1070 -0.0670
  183loPI   GL2 2918  17.410   8.092   9.341 -0.0226  0.3250  0.0083
  183loPI   C1A 2919  17.546   7.715   9.045 -0.2201 -0.1648  0.2667
  183loPI   C2A 2920  17.522   7.734   8.650 -0.0774  0.1753  0.0267
  183loPI   C3A 2921  17.639   7.687   8.210 -0.3902 -0.0414 -0.0331
  183loPI   C4A 2922  17.757   8.013   7.862 -0.1213 -0.2511 -0.2060
  183loPI   C5A 2923  17.705   8.325   7.413 -0.1138  0.1345 -0.0431
  183loPI   C6A 2924  17.839   8.759   7.375 -0.2429 -0.2947  0.1010
  183loPI   C1B 2925  17.274   8.109   8.937  0.3394 -0.0718  0.1843
  183loPI   C2B 2926  17.430   8.234   8.486 -0.0402 -0.1050 -0.3439
  183loPI   C3B 2927  17.576   8.495   8.175  0.2288  0.2688 -0.1567
  183loPI   C4B 2928  17.743   8.498   7.867  0.3035  0.1503 -0.0837
  184loPI    C1 2929  14.818  11.450   9.963 -0.0167  0.1035  0.0938
  184loPI    C2 2930  14.932  11.488  10.345 -0.0182 -0.0555  0.1109
  184loPI    C3 2931  15.094  11.204  10.115 -0.1999 -0.1237  0.0651
  184loPI   PO4 2932  14.829  11.690   9.812 -0.2755 -0.0621  0.0559
  184loPI   GL1 2933  14.952  11.794   9.475 -0.1246  0.0434  0.2987
  184loPI   GL2 2934  14.805  11.576   9.283  0.0054  0.0411 -0.1832
  184loPI   C1A 2935  15.140  12.016   9.047 -0.1282 -0.2790 -0.1280
  184loPI   C2A 2936  15.321  12.281   8.714 -0.0204  0.1539 -0.0356
  184loPI   C3A 2937  15.642  12.367   8.401  0.1281 -0.0585 -0.2270
  184loPI   C4A 2938  15.908  12.587   8.087 -0.3987 -0.0561  0.0381
  184loPI   C5A 2939  15.901  12.878   7.798 -0.0221  0.0566 -0.4313
  184loPI   C6A 2940  15.896  13.199   7.533  0.2978  0.1270 -0.1078
  184loPI   C1B 2941  14.825  11.683   8.860  0.1134 -0.2007  0.0192
  184loPI   C2B 2942  15.054  11.834   8.573  0.0297  0.2713  0.1587
  184loPI   C3B 2943  15.018  11.895   8.186  0.0985  0.0643  0.1993
  184loPI   C4B 2944  15.494  11.851   7.925 -0.0279  0.1464  0.0571
  185loPI    C1 2945  10.111   2.747  10.629  0.0232  0.1772 -0.0734
  185loPI    C2 2946  10.215   2.986  10.932  0.0864  0.0480  0.0076
  185loPI    C3 2947  10.100   2.610  11.004  0.0049  0.0477 -0.1207
  185loPI   PO4 2948  10.113   2.819  10.429 -0.3271  0.2921 -0.2029
  185loPI   GL1 2949  10.304   2.963  10.114 -0.1617  0.1594 -0.0054
  185loPI   GL2 2950  10.500   3.229  10.001  0.2520  0.0573 -0.2995
  185loPI   C1A 2951  10.063   2.852   9.749 -0.2598  0.0191  0.0680
  185loPI   C2A 2952  10.052   2.837   9.354 -0.3177 -0.0797 -0.2562
  185loPI   C3A 2953  10.036   2.875   8.985 -0.2223  0.1645  0.4352
  185loPI   C4A 2954  10.041   2.762   8.522 -0.0256  0.2788 -0.0490
  185loPI   C5A 2955   9.902   2.918   8.215 -0.2072  0.1863  0.1084
  185loPI   C6A 2956   9.785   3.173   7.904 -0.0156  0.0264 -0.3013
  185loPI   C1B 2957  10.446   3.089   9.592 -0.2722  0.1808 -0.4601
  185loPI   C2B 2958  10.431   3.115   9.155  0.2316  0.0959  0.0335
  185loPI   C3B 2959  10.506   3.140   8.674  0.0746  0.1278  0.0615
  185loPI   C4B 2960  10.417   3.169   8.301  0.1666  0.1570  0.1920
  186loPI    C1 2961   3.133   2.186  10.388 -0.0647  0.1897  0.0310
  186loPI    C2 2962   2.971   2.451  10.640 -0.2613  0.3213 -0.2287
  186loPI    C3 2963   2.737   2.190  10.449 -0.0661 -0.0666  0.0485
  186loPI   PO4 2964   3.314   2.322  10.229 -0.2243 -0.1773 -0.0594
  186loPI   GL1 2965   3.525   2.402   9.859  0.1013  0.0943  0.1626
  186loPI   GL2 2966   3.595   2.115   9.797  0.1975 -0.1558  0.0545
  186loPI   C1A 2967   3.652   2.482   9.431 -0.1484  0.1363 -0.2838
  186loPI   C2A 2968   3.565   2.529   9.119  0.1532 -0.4245  0.0759
  186loPI   C3A 2969   3.617   2.423   8.724 -0.1355  0.0470 -0.4201
  186loPI   C4A 2970   3.591   2.396   8.261 -0.2675 -0.5215  0.3007
  186loPI   C5A 2971   3.693   2.353   7.866 -0.1960  0.1251  0.2757
  186loPI   C6A 2972   3.780   1.983   7.540 -0.0389 -0.2123 -0.4344
  186loPI   C1B 2973   3.688   2.023   9.356  0.1437 -0.1002 -0.1408
  186loPI   C2B 2974   3.653   1.916   8.997 -0.0174 -0.3459 -0.2752
  186loPI   C3B 2975   3.597   1.866   8.457 -0.1146  0.1062  0.2483
  186loPI   C4B 2976   3.531   1.872   8.003 -0.3574  0.0956  0.1471
  187loPI    C1 2977  16.718  15.017  10.206  0.2215  0.1000  0.1103
  187loPI    C2 2978  16.943  14.905   9.895  0.2911  0.3216  0.0791
  187loPI    C3 2979  17.114  14.984  10.248  0.1978 -0.0617  0.2151
  187loPI   PO4 2980  16.533  15.272  10.098  0.0111  0.1057 -0.2338
  187loPI   GL1 2981  16.289  15.388   9.761  0.2113  0.1370 -0.2526
  187loPI   GL2 2982  16.646  15.290   9.578 -0.1129 -0.1450  0.0565
  187loPI   C1A 2983  16.209  15.565   9.383  0.0967 -0.2431 -0.1988
  187loPI   C2A 2984  16.021  15.603   9.003 -0.0036 -0.1329 -0.2248
  187loPI   C3A 2985  15.960  15.636   8.516  0.0389  0.1871 -0.3590
  187loPI   C4A 2986  15.901  15.691   8.090  0.0377  0.0411  0.0229
  187loPI   C5A 2987  15.526  15.749   7.974 -0.1631  0.0367 -0.3058
  187loPI   C6A 2988  15.317  15.740   7.561  0.1183 -0.1271 -0.0500
  187loPI   C1B 2989  16.632  15.406   9.123 -0.1840  0.3324  0.0327
  187loPI   C2B 2990  16.436  15.170   8.704 -0.0133  0.2353 -0.1344
  187loPI   C3B 2991  16.200  15.218   8.364  0.1106 -0.1335  0.1908
  187loPI   C4B 2992  16.047  15.298   7.930 -0.3917  0.1522  0.0528
  188loPI    C1 2993   5.927   7.960  10.703 -0.1965  0.0217 -0.1551
  188loPI    C2 2994   5.980   8.320  10.869  0.0489 -0.0240 -0.1304
  188loPI    C3 2995   5.975   7.992  11.099 -0.4976 -0.0132 -0.1131
  188loPI   PO4 2996   6.015   7.948  10.514 -0.0223  0.0984  0.0293
  188loPI   GL1 2997   5.904   7.979  10.101 -0.0387 -0.2440 -0.1987
  188loPI   GL2 2998   5.637   8.156  10.123 -0.1934  0.0419  0.2460
  188loPI   C1A 2999   5.947   7.609   9.861 -0.3637 -0.0171 -0.0439
  188loPI   C2A 3000   5.951   7.548   9.383 -0.1768 -0.3742  0.3887
  188loPI   C3A 3001   5.801   7.401   9.028  0.0905 -0.0355  0.0630
  188loPI   C4A 3002   5.698   7.210   8.717 -0.1598  0.2452 -0.1061
  188loPI   C5A 3003   5.660   6.968   8.329 -0.3471  0.2686 -0.0849
  188loPI   C6A 3004   5.635   6.777   7.987  0.1747  0.1497 -0.0507
  188loPI   C1B 3005   5.650   8.017   9.649 -0.1948 -0.0951 -0.1317
  188loPI   C2B 3006   5.766   8.207   9.223 -0.2016  0.1833 -0.1480
  188loPI   C3B 3007   5.533   8.310   8.758  0.0638  0.2704  0.3622
  188loPI   C4B 3008   5.431   8.431   8.328  0.0924 -0.0950 -0.3134
  189loPI    C1 3009  18.029  13.858  10.301  0.0116  0.1890  0.1631
  189loPI    C2 3010  18.263  13.606  10.504  0.1911  0.2209 -0.0011
  189loPI    C3 3011  18.098  13.920  10.690 -0.1245 -0.0743  0.2320
  189loPI   PO4 3012  17.895  13.684  10.133 -0.1677 -0.1816  0.1278
  189loPI   GL1 3013  17.858  13.540   9.763  0.0815  0.4284  0.2320
  189loPI   GL2 3014  17.858  13.193   9.615 -0.3417 -0.0907  0.1670
  189loPI   C1A 3015  18.070  13.640   9.294 -0.3435 -0.0926  0.0776
  189loPI   C2A 3016  18.321  13.468   9.018  0.1702 -0.0914  0.0139
  189loPI   C3A 3017  18.550  13.190   8.779 -0.1553 -0.2445 -0.0214
  189loPI   C4A 3018  18.786  12.919   8.612 -0.0720  0.1314 -0.0567
  189loPI   C5A 3019  19.036  12.798   8.197  0.0917 -0.3466  0.2114
  189loPI   C6A 3020  19.256  12.552   7.859 -0.1252 -0.1570  0.2090
  189loPI   C1B 3021  17.968  12.984   9.216  0.0318  0.5393 -0.0287
  189loPI   C2B 3022  18.074  13.049   8.765  0.1715  0.4899  0.0232
  189loPI   C3B 3023  18.278  13.068   8.403  0.3279 -0.1844 -0.0991
  189loPI   C4B 3024  18.637  13.051   8.101  0.0060 -0.1250 -0.0873
  190loPI    C1 3025  11.030  10.444  10.192  0.1785  0.2503 -0.1549
  190loPI    C2 3026  10.858  10.763  10.360 -0.1088  0.0422 -0.0446
  190loPI    C3 3027  11.029  10.484  10.590 -0.0488  0.0097 -0.1282
  190loPI   PO4 3028  11.168  10.524   9.980  0.0195 -0.1568  0.1308
  190loPI   GL1 3029  11.094  10.620   9.519  0.5720  0.0296  0.1140
  190loPI   GL2 3030  11.278  10.933   9.421 -0.4083  0.0421 -0.1887
  190loPI   C1A 3031  10.914  10.635   9.179  0.0607 -0.0974  0.1832
  190loPI   C2A 3032  10.920  10.690   8.705 -0.1876  0.1187 -0.1394
  190loPI   C3A 3033  11.001  10.865   8.270  0.1447 -0.2307 -0.2067
  190loPI   C4A 3034  11.155  11.218   7.955  0.1170  0.1520  0.2871
  190loPI   C5A 3035  10.943  11.324   7.551  0.1049 -0.0357 -0.1931
  190loPI   C6A 3036  10.905  11.587   7.290 -0.2867  0.4063  0.0645
  190loPI   C1B 3037  11.263  10.985   8.922  0.1022 -0.0832  0.0832
  190loPI   C2B 3038  11.343  11.098   8.573 -0.2226 -0.0249 -0.1247
  190loPI   C3B 3039  11.505  11.304   8.326 -0.1172 -0.1674  0.2133
  190loPI   C4B 3040  11.714  11.223   7.918 -0.0751  0.4627  0.0653
  191loPI    C1 3041  13.161  12.467  10.009 -0.1117  0.3440 -0.1148
  191loPI    C2 3042  13.071  12.726  10.301  0.0667  0.2405  0.0346
  191loPI    C3 3043  12.973  12.340  10.338  0.0409  0.2367 -0.0679
  191loPI   PO4 3044  13.058  12.637   9.808 -0.2741  0.1732  0.4975
  191loPI   GL1 3045  13.099  12.854   9.401  0.1047 -0.0476  0.2409
  191loPI   GL2 3046  13.203  12.771   9.119 -0.2512 -0.2053 -0.0300
  191loPI   C1A 3047  12.710  13.010   9.041  0.0702 -0.3033 -0.1092
  191loPI   C2A 3048  12.667  13.099   8.579 -0.0665  0.0393  0.1120
  191loPI   C3A 3049  12.731  12.987   8.161 -0.0939 -0.0308 -0.0389
  191loPI   C4A 3050  12.826  12.798   7.758  0.1628 -0.2654  0.1812
  191loPI   C5A 3051  12.791  12.893   7.293  0.0787  0.0406 -0.3743
  191loPI   C6A 3052  12.717  13.016   6.845  0.0408  0.0671 -0.3579
  191loPI   C1B 3053  13.110  12.958   8.738 -0.0527 -0.3169 -0.0507
  191loPI   C2B 3054  13.220  12.943   8.359  0.0687 -0.0677  0.1189
  191loPI   C3B 3055  13.270  12.862   7.932 -0.3190 -0.0264  0.0280
  191loPI   C4B 3056  13.391  12.632   7.516  0.1970 -0.1078 -0.0077
  192loPI    C1 3057   4.273  17.485  10.548 -0.0501  0.0350 -0.0084
  192loPI    C2 3058   4.465  17.676  10.843  0.1065 -0.1061 -0.0172
  192loPI    C3 3059   4.066  17.653  10.845  0.1069 -0.1081  0.1853
  192loPI   PO4 3060   4.307  17.668  10.240  0.2454 -0.1816 -0.0205
  192loPI   GL1 3061   4.351  17.577   9.803  0.1453 -0.0841  0.0653
  192loPI   GL2 3062   4.408  17.366   9.587  0.2439 -0.1928 -0.4483
  192loPI   C1A 3063   3.980  17.569   9.529 -0.2751 -0.0900 -0.1689
  192loPI   C2A 3064   3.951  17.606   9.013 -0.2318 -0.0096 -0.1745
  192loPI   C3A 3065   3.909  17.926   8.726 -0.0676  0.1919 -0.4628
  192loPI   C4A 3066   4.037  17.890   8.338  0.0327  0.1221  0.2687
  192loPI   C5A 3067   4.136  17.960   7.876  0.0852 -0.2802 -0.2497
  192loPI   C6A 3068   4.102  17.986   7.418 -0.1758  0.2043  0.0388
  192loPI   C1B 3069   4.408  17.417   9.079 -0.2623  0.4368  0.0529
  192loPI   C2B 3070   4.366  17.530   8.694  0.1064 -0.0860 -0.1564
  192loPI   C3B 3071   4.545  17.508   8.364 -0.2123  0.1587  0.0857
  192loPI   C4B 3072   4.552  17.598   7.960 -0.0395  0.1951  0.1586
  193loPI    C1 3073  17.575  13.996  10.483 -0.0644 -0.2999 -0.0373
  193loPI    C2 3074  17.287  13.840  10.714 -0.0566 -0.1636  0.0657
  193loPI    C3 3075  17.631  13.963  10.878 -0.0440 -0.0827 -0.0210
  193loPI   PO4 3076  17.497  14.078  10.335 -0.0590  0.0391  0.0314
  193loPI   GL1 3077  17.247  14.042   9.956 -0.0514  0.1622  0.2462
  193loPI   GL2 3078  17.131  14.257   9.777 -0.2142  0.1427 -0.0973
  193loPI   C1A 3079  17.548  13.901   9.555  0.0449 -0.1134  0.1168
  193loPI   C2A 3080  17.398  13.930   9.090 -0.3958 -0.0408  0.0325
  193loPI   C3A 3081  17.622  13.993   8.794  0.1137  0.1812 -0.0478
  193loPI   C4A 3082  17.685  13.928   8.392 -0.0449  0.0820 -0.1978
  193loPI   C5A 3083  17.652  13.850   8.063 -0.0496 -0.1337 -0.1609
  193loPI   C6A 3084  17.588  13.692   7.702 -0.1912 -0.1982 -0.0527
  193loPI   C1B 3085  17.201  14.607   9.510 -0.0563  0.0906 -0.2490
  193loPI   C2B 3086  17.336  14.589   9.162 -0.0214  0.0502  0.0422
  193loPI   C3B 3087  17.348  14.543   8.743  0.3258 -0.0312 -0.1169
  193loPI   C4B 3088  17.560  14.464   8.300 -0.0059 -0.2069 -0.0393
  194loPI    C1 3089   9.094   6.812  10.985 -0.0061  0.4024 -0.1714
  194loPI    C2 3090   8.739   6.847  10.805 -0.1124 -0.1917 -0.0973
  194loPI    C3 3091   8.778   6.611  11.125  0.3213 -0.0189 -0.0157
  194loPI   PO4 3092   9.316   6.870  10.799 -0.0182  0.2340  0.2807
  194loPI   GL1 3093   9.267   6.787  10.348  0.0277  0.3435 -0.1283
  194loPI   GL2 3094   8.945   6.846  10.317  0.2333 -0.2518 -0.2929
  194loPI   C1A 3095   9.203   6.630   9.881  0.2131  0.1439  0.5081
  194loPI   C2A 3096   9.078   6.652   9.407  0.0967  0.0968  0.1212
  194loPI   C3A 3097   9.075   6.703   9.061  0.1549  0.1970 -0.0359
  194loPI   C4A 3098   8.923   6.679   8.684 -0.0805  0.0250  0.1035
  194loPI   C5A 3099   8.991   6.593   8.285  0.0761  0.0011 -0.0086
  194loPI   C6A 3100   9.335   6.399   8.183 -0.1497  0.0908 -0.0358
  194loPI   C1B 3101   8.986   7.150   9.834  0.1803 -0.0241 -0.1521
  194loPI   C2B 3102   8.940   7.145   9.375  0.0650  0.0657 -0.1032
  194loPI   C3B 3103   8.990   7.256   8.938  0.1099  0.0228 -0.1089
  194loPI   C4B 3104   8.898   7.131   8.553 -0.3117 -0.0950  0.1121
  195loPI    C1 3105  12.793   0.812  10.470 -0.0176  0.1242 -0.0599
  195loPI    C2 3106  13.184   0.744  10.517 -0.0781 -0.1153  0.1103
  195loPI    C3 3107  13.011   1.054  10.702 -0.0111 -0.1386  0.2125
  195loPI   PO4 3108  12.802   0.771  10.150  0.3871  0.1187  0.0365
  195loPI   GL1 3109  13.024   0.562   9.719 -0.0445 -0.0042  0.1674
  195loPI   GL2 3110  12.790   0.306   9.831  0.0489  0.1038  0.0664
  195loPI   C1A 3111  12.980   0.401   9.346  0.2420  0.3144 -0.0710
  195loPI   C2A 3112  13.031   0.465   9.021 -0.3343 -0.1645  0.0244
  195loPI   C3A 3113  12.982   0.408   8.532 -0.1601  0.0786 -0.3110
  195loPI   C4A 3114  13.001   0.413   8.087 -0.0703  0.1065 -0.0578
  195loPI   C5A 3115  12.718   0.529   7.841  0.1245  0.3207 -0.0086
  195loPI   C6A 3116  12.593   0.872   7.732  0.2407  0.0964  0.1199
  195loPI   C1B 3117  12.620   0.124   9.490  0.1869  0.1843 -0.0368
  195loPI   C2B 3118  12.612   0.192   9.055 -0.2859 -0.0088  0.0626
  195loPI   C3B 3119  12.595   0.095   8.597 -0.0389  0.0311  0.0111
  195loPI   C4B 3120  12.533   0.103   8.212  0.0501 -0.1011 -0.1337
  196loPI    C1 3121  17.847   1.158   9.772 -0.2461 -0.1083 -0.1337
  196loPI    C2 3122  17.825   1.531   9.627 -0.2929 -0.1114 -0.1349
  196loPI    C3 3123  17.865   1.471  10.021  0.1519 -0.0954 -0.1721
  196loPI   PO4 3124  18.018   1.074   9.605  0.2731  0.0607  0.0342
  196loPI   GL1 3125  17.940   0.783   9.284 -0.1076 -0.1495  0.2605
  196loPI   GL2 3126  18.099   0.635   9.205  0.0207 -0.0128 -0.2655
  196loPI   C1A 3127  18.017   0.986   8.864  0.1833 -0.0168 -0.2890
  196loPI   C2A 3128  18.238   1.175   8.542  0.0989  0.0282 -0.0795
  196loPI   C3A 3129  18.251   1.104   8.095  0.0229  0.1496 -0.1466
  196loPI   C4A 3130  18.247   0.995   7.680  0.1760 -0.2485 -0.3029
  196loPI   C5A 3131  17.984   0.653   7.497  0.2134 -0.2164  0.1442
  196loPI   C6A 3132  17.965   0.275   7.368 -0.1486 -0.1160 -0.0532
  196loPI   C1B 3133  18.427   0.455   8.945  0.2994  0.5185  0.0444
  196loPI   C2B 3134  18.688   0.327   8.491 -0.1444 -0.0142 -0.1524
  196loPI   C3B 3135  18.831   0.241   8.072 -0.0299  0.0533 -0.1437
  196loPI   C4B 3136  18.917   0.436   7.700 -0.0580 -0.0917 -0.1280
  197loPI    C1 3137   0.693  10.461  10.293  0.0667 -0.0853 -0.1612
  197loPI    C2 3138   0.491  10.806  10.292  0.1882 -0.0132 -0.0844
  197loPI    C3 3139   0.318  10.473  10.430  0.0712  0.0169 -0.1570
  197loPI   PO4 3140   0.786  10.470  10.121  0.3336 -0.0528  0.0885
  197loPI   GL1 3141   0.726  10.757   9.851 -0.1698  0.3308  0.0453
  197loPI   GL2 3142   0.498  10.892   9.697  0.1306 -0.1695 -0.0670
  197loPI   C1A 3143   0.670  10.528   9.382 -0.3125  0.2275  0.3300
  197loPI   C2A 3144   0.712  10.418   8.992  0.0789 -0.0796  0.1394
  197loPI   C3A 3145   0.968  10.291   8.631  0.1898 -0.1522  0.1155
  197loPI   C4A 3146   1.036  10.441   8.176 -0.1449  0.0161 -0.1678
  197loPI   C5A 3147   0.905  10.637   7.767 -0.0526 -0.2321  0.0803
  197loPI   C6A 3148   0.825  10.827   7.350  0.1659  0.0044 -0.0710
  197loPI   C1B 3149   0.398  10.929   9.292 -0.2952 -0.0407  0.2008
  197loPI   C2B 3150   0.543  10.937   8.860 -0.2728 -0.1474 -0.2052
  197loPI   C3B 3151   0.471  11.025   8.457 -0.0884  0.0585  0.0002
  197loPI   C4B 3152   0.587  11.260   8.052  0.5408  0.1645  0.0245
  198loPI    C1 3153   3.141  18.809   9.809  0.0633  0.0794 -0.5153
  198loPI    C2 3154   3.536  18.867   9.836 -0.0008  0.2718  0.2435
  198loPI    C3 3155   3.389  18.495   9.821  0.1993  0.1965  0.1013
  198loPI   PO4 3156   3.096  18.903   9.566  0.0841 -0.1210  0.1372
  198loPI   GL1 3157   2.853  18.850   9.262 -0.2152 -0.1538 -0.0237
  198loPI   GL2 3158   2.610  18.779   9.408  0.2226  0.1518 -0.1990
  198loPI   C1A 3159   3.087  18.901   8.830 -0.2654 -0.1131 -0.0643
  198loPI   C2A 3160   3.097  18.935   8.387 -0.0182 -0.0938 -0.1531
  198loPI   C3A 3161   2.993  18.837   7.849  0.0088  0.0928  0.2902
  198loPI   C4A 3162   2.971  18.758   7.482 -0.3075  0.1372 -0.0325
  198loPI   C5A 3163   2.732  18.737   7.048 -0.0923 -0.0319 -0.0426
  198loPI   C6A 3164   2.546  18.605   6.637 -0.3648 -0.0956 -0.2271
  198loPI   C1B 3165   2.586  18.717   8.910  0.4600  0.2753  0.2224
  198loPI   C2B 3166   2.614  18.782   8.476  0.1187  0.1498  0.0074
  198loPI   C3B 3167   2.585  18.626   8.086  0.3431 -0.2385  0.2280
  198loPI   C4B 3168   2.505  18.720   7.633  0.0793  0.2245  0.0719
  199loPI    C1 3169   4.953   8.015  10.384  0.2019  0.1024 -0.1133
  199loPI    C2 3170   4.992   7.688  10.611 -0.2320  0.1010 -0.0331
  199loPI    C3 3171   5.039   8.050  10.773 -0.0873  0.0883 -0.0457
  199loPI   PO4 3172   5.122   8.017  10.193  0.1150 -0.3710 -0.2055
  199loPI   GL1 3173   4.930   7.949   9.776 -0.1006  0.0937  0.0193
  199loPI   GL2 3174   5.229   8.235   9.740  0.1540  0.0111 -0.1022
  199loPI   C1A 3175   5.175   7.756   9.585 -0.0447  0.1208  0.1853
  199loPI   C2A 3176   5.488   7.750   9.249 -0.0749 -0.1929  0.2046
  199loPI   C3A 3177   5.602   7.822   8.906  0.1009 -0.1112  0.0034
  199loPI   C4A 3178   5.772   7.701   8.554 -0.0459 -0.0489 -0.3908
  199loPI   C5A 3179   5.724   7.482   8.198 -0.2409  0.4182  0.3163
  199loPI   C6A 3180   5.914   7.158   7.961 -0.0516  0.2155  0.1085
  199loPI   C1B 3181   5.071   8.147   9.339  0.0571  0.2085 -0.0671
  199loPI   C2B 3182   5.067   8.382   8.941  0.0997  0.2871 -0.0425
  199loPI   C3B 3183   4.904   8.297   8.529 -0.0377  0.0059 -0.2604
  199loPI   C4B 3184   4.712   8.300   8.003  0.0937 -0.2892 -0.1224
  200loPI    C1 3185  14.016   2.914  10.188 -0.1636 -0.1327 -0.0452
  200loPI    C2 3186  14.208   2.606  10.358  0.0416 -0.1573 -0.3134
  200loPI    C3 3187  14.293   2.981  10.468 -0.1875 -0.1910 -0.0074
  200loPI   PO4 3188  14.031   2.814   9.921  0.2398  0.1009 -0.0912
  200loPI   GL1 3189  13.824   2.835   9.519  0.3528 -0.2421  0.1255
  200loPI   GL2 3190  13.608   3.186   9.434 -0.2891 -0.0765  0.0835
  200loPI   C1A 3191  13.750   2.698   9.143 -0.1154 -0.4632 -0.0255
  200loPI   C2A 3192  13.662   2.652   8.732  0.2167  0.1297 -0.0623
  200loPI   C3A 3193  13.631   2.759   8.247 -0.2007 -0.1315  0.1107
  200loPI   C4A 3194  13.466   2.612   7.885 -0.0993 -0.1408 -0.0012
  200loPI   C5A 3195  13.587   2.436   7.522 -0.0470  0.2003  0.0715
  200loPI   C6A 3196  13.759   2.254   7.220  0.2001  0.5515 -0.0279
  200loPI   C1B 3197  13.643   3.162   9.011  0.1154 -0.1153 -0.3523
  200loPI   C2B 3198  13.559   3.222   8.591  0.5090 -0.1266 -0.2758
  200loPI   C3B 3199  13.473   3.252   8.166  0.0835  0.2408  0.0300
  200loPI   C4B 3200  13.547   3.297   7.758 -0.1100  0.0174 -0.1099
  201loPI    C1 3201  17.575  16.628  10.277  0.0352 -0.0908  0.0501
  201loPI    C2 3202  17.847  16.351  10.373  0.1313  0.0626  0.2270
  201loPI    C3 3203  17.613  16.509  10.657 -0.0802 -0.0005  0.0907
  201loPI   PO4 3204  17.629  16.611   9.951  0.1233 -0.1189  0.1750
  201loPI   GL1 3205  17.853  16.535   9.626 -0.2952  0.0254 -0.0345
  201loPI   GL2 3206  17.741  16.710   9.404  0.1534 -0.0062  0.0456
  201loPI   C1A 3207  18.021  16.364   9.171 -0.0081 -0.0872  0.1136
  201loPI   C2A 3208  18.105  16.281   8.744  0.3419  0.1132  0.0773
  201loPI   C3A 3209  18.124  15.960   8.373 -0.2557  0.0127 -0.0349
  201loPI   C4A 3210  18.126  15.780   8.012 -0.0228  0.0407  0.1957
  201loPI   C5A 3211  18.205  15.641   7.601  0.0341  0.2941 -0.0131
  201loPI   C6A 3212  18.326  15.354   7.400  0.1030 -0.1616 -0.2135
  201loPI   C1B 3213  17.619  16.541   8.945  0.0461  0.0045  0.0516
  201loPI   C2B 3214  17.563  16.697   8.599 -0.0044 -0.2510 -0.1092
  201loPI   C3B 3215  17.593  16.687   8.186  0.3038 -0.0730 -0.2218
  201loPI   C4B 3216  17.591  16.612   7.783  0.1495 -0.1846  0.3730
  202loPI    C1 3217  12.364  16.256   9.856  0.1203  0.1402 -0.0271
  202loPI    C2 3218  12.396  15.891  10.017 -0.2309  0.0959 -0.0500
  202loPI    C3 3219  12.623  15.992   9.704  0.0133 -0.0307  0.0833
  202loPI   PO4 3220  12.064  16.315   9.811 -0.1439  0.0925  0.0231
  202loPI   GL1 3221  11.854  16.304   9.416  0.1780 -0.0782 -0.1355
  202loPI   GL2 3222  11.915  16.556   9.406 -0.2686  0.2826  0.1992
  202loPI   C1A 3223  11.948  15.929   9.152  0.0997 -0.0982  0.3270
  202loPI   C2A 3224  12.148  15.869   8.842 -0.2097  0.0051  0.4706
  202loPI   C3A 3225  12.035  15.892   8.370  0.1677 -0.2891 -0.2085
  202loPI   C4A 3226  11.888  15.786   7.947  0.1485 -0.0780 -0.2987
  202loPI   C5A 3227  11.939  15.700   7.592 -0.2722 -0.1097  0.2481
  202loPI   C6A 3228  11.963  15.544   7.164  0.2004  0.3139 -0.3254
  202loPI   C1B 3229  11.869  16.791   9.034 -0.1655  0.2130  0.1102
  202loPI   C2B 3230  11.830  17.098   8.833  0.1578  0.0518  0.1420
  202loPI   C3B 3231  11.826  17.397   8.435 -0.1564  0.2006  0.0643
  202loPI   C4B 3232  11.757  17.230   7.958 -0.0168 -0.0564 -0.1651
  203loPI    C1 3233  16.737  16.131  10.148  0.2558 -0.0884  0.1860
  203loPI    C2 3234  16.613  15.797   9.967  0.0263  0.1338 -0.0752
  203loPI    C3 3235  16.487  15.882  10.337  0.2636 -0.1761  0.0819
  203loPI   PO4 3236  16.764  16.278   9.892  0.0181 -0.3036  0.0288
  203loPI   GL1 3237  16.601  16.208   9.564 -0.0480  0.0634 -0.1929
  203loPI   GL2 3238  16.652  15.865   9.433 -0.0068  0.0973 -0.4179
  203loPI   C1A 3239  16.642  16.319   9.111 -0.0919  0.2706 -0.0645
  203loPI   C2A 3240  16.525  16.340   8.686  0.2563 -0.0107 -0.1053
  203loPI   C3A 3241  16.647  16.190   8.400 -0.0047 -0.0208 -0.1314
  203loPI   C4A 3242  16.896  15.976   8.051  0.1934 -0.0975 -0.0098
  203loPI   C5A 3243  16.871  15.968   7.624 -0.2282 -0.0071 -0.0025
  203loPI   C6A 3244  16.660  15.641   7.332 -0.1141 -0.4462  0.1527
  203loPI   C1B 3245  16.829  15.837   9.148  0.1960 -0.1510  0.2308
  203loPI   C2B 3246  16.924  16.028   8.773  0.0634  0.3265  0.0825
  203loPI   C3B 3247  17.182  15.824   8.384  0.1596 -0.1601 -0.0322
  203loPI   C4B 3248  16.994  15.411   8.268 -0.1498 -0.1535  0.1433
  204loPI    C1 3249   7.548   5.199  11.310 -0.0618  0.0226  0.1036
  204loPI    C2 3250   7.694   4.833  11.378 -0.0922 -0.0056  0.0179
  204loPI    C3 3251   7.298   4.892  11.370 -0.0879  0.0172 -0.0288
  204loPI   PO4 3252   7.702   5.258  11.132 -0.1906  0.0352 -0.0379
  204loPI   GL1 3253   7.731   5.296  10.736  0.0672 -0.1691 -0.0541
  204loPI   GL2 3254   7.559   5.147  10.468 -0.0673  0.1023  0.1536
  204loPI   C1A 3255   7.811   5.518  10.342  0.0036  0.1574  0.1486
  204loPI   C2A 3256   7.953   5.281   9.881 -0.1232  0.0868  0.1251
  204loPI   C3A 3257   7.976   5.146   9.481  0.0747 -0.0812 -0.2416
  204loPI   C4A 3258   8.106   5.169   8.982 -0.0037  0.0182 -0.1179
  204loPI   C5A 3259   8.040   5.405   8.558  0.0191 -0.0228  0.0477
  204loPI   C6A 3260   7.727   5.501   8.264 -0.2048  0.1081  0.3528
  204loPI   C1B 3261   7.843   4.960  10.243  0.0397 -0.2861  0.0446
  204loPI   C2B 3262   8.109   4.696   9.948 -0.0880  0.1299 -0.0082
  204loPI   C3B 3263   8.462   4.479   9.809  0.2844  0.1059  0.1285
  204loPI   C4B 3264   8.566   4.395   9.292 -0.1429  0.1213 -0.2615
  205loPI    C1 3265   3.253  14.185  10.079  0.0094 -0.0303 -0.1736
  205loPI    C2 3266   3.374  13.873  10.299 -0.0467  0.1401  0.1030
  205loPI    C3 3267   3.523  14.238  10.369 -0.3733  0.2701  0.1394
  205loPI   PO4 3268   3.271  14.118   9.877 -0.0685  0.5490 -0.0509
  205loPI   GL1 3269   3.461  14.211   9.534 -0.3683  0.2395  0.0376
  205loPI   GL2 3270   3.264  14.467   9.455  0.0991  0.0079 -0.1477
  205loPI   C1A 3271   3.805  14.135   9.227  0.1050  0.0174 -0.3266
  205loPI   C2A 3272   4.027  13.945   8.936  0.0485  0.0277  0.3133
  205loPI   C3A 3273   4.063  13.893   8.536 -0.2654 -0.2359 -0.2094
  205loPI   C4A 3274   4.233  13.874   8.039 -0.0885  0.0519  0.0391
  205loPI   C5A 3275   4.494  13.997   7.710  0.3646  0.0630  0.0033
  205loPI   C6A 3276   4.918  14.131   7.669 -0.1387 -0.0028  0.1345
  205loPI   C1B 3277   3.286  14.255   9.004  0.0873  0.3746 -0.0511
  205loPI   C2B 3278   3.178  14.275   8.580  0.0041 -0.2443 -0.1792
  205loPI   C3B 3279   3.128  14.155   8.131 -0.0893 -0.2177 -0.2357
  205loPI   C4B 3280   3.389  14.130   7.811 -0.0124  0.0345  0.3118
  206loPI    C1 3281  13.314  13.694   9.648  0.2034  0.0520 -0.0061
  206loPI    C2 3282  13.263  13.963   9.939 -0.2487  0.2247 -0.2351
  206loPI    C3 3283  13.048  13.626   9.939  0.0349  0.0409 -0.1605
  206loPI   PO4 3284  13.217  13.816   9.446 -0.2530  0.3291  0.2324
  206loPI   GL1 3285  13.479  14.046   9.154  0.0338  0.0971  0.0316
  206loPI   GL2 3286  13.762  14.054   9.030  0.1805  0.1482  0.0908
  206loPI   C1A 3287  13.497  13.957   8.675  0.0900  0.0614  0.2666
  206loPI   C2A 3288  13.200  13.811   8.209 -0.3146 -0.1619 -0.1570
  206loPI   C3A 3289  12.765  13.707   7.985  0.2854 -0.0968 -0.2044
  206loPI   C4A 3290  12.514  13.631   7.512 -0.1203 -0.3039  0.0010
  206loPI   C5A 3291  12.222  13.445   7.281 -0.1586 -0.0102 -0.1781
  206loPI   C6A 3292  12.276  12.954   7.059  0.0779  0.0118  0.0813
  206loPI   C1B 3293  14.065  14.047   8.760  0.0150  0.1419  0.2146
  206loPI   C2B 3294  14.212  13.879   8.286  0.0677 -0.0989  0.3587
  206loPI   C3B 3295  14.422  14.041   7.947  0.2055  0.1384 -0.0750
  206loPI   C4B 3296  14.404  14.140   7.453 -0.1571  0.0406 -0.2673
  207loPI    C1 3297  15.902  11.683   9.980 -0.0376  0.1143  0.2499
  207loPI    C2 3298  16.122  11.354   9.926 -0.2818 -0.0035 -0.0565
  207loPI    C3 3299  16.032  11.476  10.296 -0.0491 -0.1845  0.0620
  207loPI   PO4 3300  15.927  11.797   9.756  0.2386  0.0417 -0.0098
  207loPI   GL1 3301  16.046  11.654   9.376  0.2309  0.0483 -0.1340
  207loPI   GL2 3302  16.033  11.284   9.459  0.0448 -0.0442  0.1296
  207loPI   C1A 3303  15.999  11.646   8.994 -0.1241 -0.2646 -0.0546
  207loPI   C2A 3304  16.268  11.376   8.716  0.2007 -0.4155  0.2533
  207loPI   C3A 3305  16.145  11.211   8.286 -0.3000 -0.2198 -0.0044
  207loPI   C4A 3306  16.238  10.960   7.983  0.0522  0.3137 -0.2269
  207loPI   C5A 3307  16.552  10.817   7.675 -0.0765 -0.2710 -0.4939
  207loPI   C6A 3308  16.600  10.831   7.268  0.0089  0.2320  0.0782
  207loPI   C1B 3309  16.151  11.041   9.034  0.1114 -0.1915  0.2573
  207loPI   C2B 3310  16.068  10.911   8.670  0.1310 -0.1264  0.0873
  207loPI   C3B 3311  15.734  10.852   8.373  0.0547 -0.0384 -0.1067
  207loPI   C4B 3312  15.741  10.853   7.951 -0.0084  0.3302 -0.2557
  208loPI    C1 3313   7.202  15.923  10.694 -0.1290  0.1173 -0.0316
  208loPI    C2 3314   7.466  16.205  10.798 -0.0168 -0.0335  0.0978
  208loPI    C3 3315   7.481  15.844  10.970 -0.1582 -0.1196 -0.0678
  208loPI   PO4 3316   7.181  15.901  10.491 -0.2199  0.1601 -0.1848
  208loPI   GL1 3317   6.970  15.951  10.130 -0.1129  0.0341 -0.0538
  208loPI   GL2 3318   6.742  16.203  10.102 -0.0976  0.0758  0.4202
  208loPI   C1A 3319   6.873  15.759   9.754 -0.2809 -0.0248  0.1849
  208loPI   C2A 3320   6.917  15.841   9.363 -0.0934  0.1381 -0.1583
  208loPI   C3A 3321   6.837  15.828   8.971 -0.0901 -0.0781  0.0675
  208loPI   C4A 3322   6.989  15.868   8.538  0.0342 -0.1304  0.0081
  208loPI   C5A 3323   7.298  15.878   8.190 -0.1218  0.0545 -0.1506
  208loPI   C6A 3324   7.608  15.912   7.850  0.0872  0.0468 -0.1292
  208loPI   C1B 3325   6.951  16.315   9.640 -0.2684  0.0612 -0.0291
  208loPI   C2B 3326   7.008  16.524   9.234  0.0187  0.2686 -0.3365
  208loPI   C3B 3327   7.181  16.316   8.891 -0.1521 -0.4303  0.0940
  208loPI   C4B 3328   7.060  16.382   8.455  0.3551  0.4019  0.1633
  209loPI    C1 3329  16.236   8.500  10.098 -0.0022 -0.1385 -0.0468
  209loPI    C2 3330  16.219   8.585  10.489  0.0763 -0.0254 -0.0675
  209loPI    C3 3331  16.469   8.302  10.356  0.1472  0.0295 -0.0513
  209loPI   PO4 3332  16.056   8.332   9.925 -0.0205 -0.1632 -0.1961
  209loPI   GL1 3333  15.887   8.297   9.507 -0.0149  0.0822 -0.2202
  209loPI   GL2 3334  15.598   8.435   9.522 -0.0597 -0.1603 -0.1309
  209loPI   C1A 3335  15.998   8.107   9.124  0.1061 -0.1619  0.1944
  209loPI   C2A 3336  16.209   8.319   8.721  0.0221  0.0307 -0.1442
  209loPI   C3A 3337  16.139   8.658   8.449 -0.4413  0.2365  0.3394
  209loPI   C4A 3338  16.309   8.907   8.237 -0.0772  0.1339 -0.1464
  209loPI   C5A 3339  16.161   8.989   7.808 -0.1053  0.2031  0.3097
  209loPI   C6A 3340  15.858   8.754   7.546 -0.2638  0.1067 -0.0024
  209loPI   C1B 3341  15.554   8.339   9.062  0.2320  0.2166  0.1659
  209loPI   C2B 3342  15.620   8.354   8.618 -0.0653 -0.0681 -0.0358
  209loPI   C3B 3343  15.713   8.231   8.229 -0.1901  0.2204  0.3100
  209loPI   C4B 3344  15.858   8.280   7.817  0.2270  0.1814 -0.0118
  210loPI    C1 3345   6.105  14.832  10.529 -0.0070 -0.0025  0.0281
  210loPI    C2 3346   6.179  15.213  10.629 -0.0986  0.0388 -0.0592
  210loPI    C3 3347   6.393  14.917  10.793 -0.0668  0.1239  0.0536
  210loPI   PO4 3348   5.858  14.838  10.359 -0.0910 -0.0396  0.2465
  210loPI   GL1 3349   5.863  14.848   9.895  0.1124  0.1215  0.0086
  210loPI   GL2 3350   5.979  14.586   9.737 -0.1500  0.1397  0.4118
  210loPI   C1A 3351   5.461  14.639   9.611  0.0064  0.1154  0.0210
  210loPI   C2A 3352   5.542  14.560   9.245 -0.1003  0.0605 -0.1205
  210loPI   C3A 3353   5.556  14.612   8.746  0.2399  0.1897 -0.1702
  210loPI   C4A 3354   5.616  14.653   8.250  0.2073  0.2810 -0.4478
  210loPI   C5A 3355   5.702  14.832   7.874  0.1664  0.0497  0.0241
  210loPI   C6A 3356   5.767  14.611   7.465  0.2324  0.3448  0.0494
  210loPI   C1B 3357   5.887  14.870   9.410 -0.1687 -0.1894 -0.3834
  210loPI   C2B 3358   5.956  14.852   8.959 -0.0308 -0.1521 -0.0612
  210loPI   C3B 3359   6.099  14.880   8.498 -0.3313  0.0802  0.1004
  210loPI   C4B 3360   6.152  14.927   8.087  0.0090 -0.2326 -0.1848
  211loPI    C1 3361   8.653  17.701  10.414 -0.1114  0.0018 -0.0587
  211loPI    C2 3362   8.563  18.090  10.430  0.2837  0.0997 -0.1216
  211loPI    C3 3363   8.630  17.886  10.767 -0.2015  0.0143 -0.0710
  211loPI   PO4 3364   8.512  17.592  10.196 -0.0083 -0.0604 -0.0902
  211loPI   GL1 3365   8.376  17.696   9.782  0.0693 -0.3283 -0.2906
  211loPI   GL2 3366   8.447  18.021   9.599 -0.4014 -0.2500  0.1386
  211loPI   C1A 3367   8.323  17.610   9.371  0.2392 -0.0079 -0.4183
  211loPI   C2A 3368   8.490  17.632   8.925 -0.0183 -0.0426 -0.3050
  211loPI   C3A 3369   8.519  17.387   8.476 -0.1547  0.0476 -0.1405
  211loPI   C4A 3370   8.496  17.515   8.152  0.0804  0.2975 -0.2770
  211loPI   C5A 3371   8.185  17.649   7.867 -0.0827  0.0327 -0.0842
  211loPI   C6A 3372   8.056  17.624   7.470  0.2597 -0.2412 -0.0186
  211loPI   C1B 3373   8.211  18.031   9.225 -0.0605  0.0824 -0.3187
  211loPI   C2B 3374   8.067  17.929   8.791 -0.0208 -0.6311  0.1089
  211loPI   C3B 3375   8.250  17.937   8.357  0.0327 -0.0301 -0.0565
  211loPI   C4B 3376   8.495  18.092   7.934  0.1120 -0.1629 -0.0660
  212loPI    C1 3377  17.192   2.437   9.806  0.0069  0.1369  0.0163
  212loPI    C2 3378  17.439   2.505  10.114  0.0353  0.1855 -0.0172
  212loPI    C3 3379  17.203   2.182  10.114  0.1508  0.1005 -0.0181
  212loPI   PO4 3380  17.185   2.628   9.704  0.0462  0.3146 -0.2005
  212loPI   GL1 3381  17.142   2.729   9.339 -0.2543  0.4135  0.1095
  212loPI   GL2 3382  17.456   2.559   9.306  0.2366  0.4152 -0.0972
  212loPI   C1A 3383  17.089   2.537   8.998  0.0310 -0.3120 -0.0021
  212loPI   C2A 3384  16.802   2.505   8.687  0.2403 -0.3455  0.1441
  212loPI   C3A 3385  16.967   2.649   8.257 -0.2294 -0.1086  0.3042
  212loPI   C4A 3386  16.877   2.944   7.902 -0.0445  0.4049  0.0372
  212loPI   C5A 3387  16.688   2.973   7.541 -0.1643 -0.1084  0.0194
  212loPI   C6A 3388  16.623   2.715   7.263  0.5951  0.0055  0.0868
  212loPI   C1B 3389  17.543   2.458   8.976 -0.2251  0.0899  0.1186
  212loPI   C2B 3390  17.805   2.461   8.581  0.0544  0.3433 -0.3094
  212loPI   C3B 3391  17.914   2.384   8.276 -0.3887 -0.2911  0.2336
  212loPI   C4B 3392  17.773   2.408   7.869  0.1244 -0.2827  0.0765
  213loPI    C1 3393  11.828  17.660  10.026 -0.1871 -0.0189  0.0212
  213loPI    C2 3394  11.885  17.977  10.263  0.0103 -0.1009  0.0854
  213loPI    C3 3395  11.712  17.648  10.409 -0.2812  0.0089 -0.0064
  213loPI   PO4 3396  11.978  17.659   9.871 -0.0219  0.1196  0.1827
  213loPI   GL1 3397  11.842  17.800   9.471 -0.0039 -0.0430  0.2296
  213loPI   GL2 3398  11.536  17.756   9.572 -0.1943 -0.2455  0.0969
  213loPI   C1A 3399  11.650  18.035   9.074 -0.0761  0.2621  0.2012
  213loPI   C2A 3400  11.793  17.894   8.713 -0.0542 -0.0052  0.0777
  213loPI   C3A 3401  11.865  17.821   8.235 -0.0626  0.2246 -0.0502
  213loPI   C4A 3402  11.640  17.679   7.804 -0.0146 -0.0412 -0.0574
  213loPI   C5A 3403  11.481  17.645   7.373  0.1366 -0.1639 -0.2530
  213loPI   C6A 3404  11.312  17.560   6.987 -0.3720 -0.2042  0.0887
  213loPI   C1B 3405  11.348  18.150   9.476 -0.2196 -0.0038  0.0842
  213loPI   C2B 3406  11.301  18.469   9.076 -0.1213  0.1433 -0.3168
  213loPI   C3B 3407  11.307  18.722   8.700  0.0546 -0.0880  0.0879
  213loPI   C4B 3408  11.113  18.670   8.249  0.1094 -0.1246 -0.1692
  214loPI    C1 3409  12.419   4.536  10.694 -0.2077 -0.0969 -0.0180
  214loPI    C2 3410  12.350   4.806  10.982  0.0220  0.0324 -0.0818
  214loPI    C3 3411  12.587   4.491  11.054 -0.1127 -0.0642 -0.0578
  214loPI   PO4 3412  12.448   4.657  10.490  0.2540  0.0292  0.0118
  214loPI   GL1 3413  12.056   4.686  10.331  0.0241  0.2136 -0.0556
  214loPI   GL2 3414  11.759   4.526  10.289 -0.0971  0.3186  0.0455
  214loPI   C1A 3415  12.149   4.839   9.943  0.2348  0.1537 -0.1637
  214loPI   C2A 3416  12.110   4.932   9.507  0.0835  0.0313  0.1974
  214loPI   C3A 3417  12.085   4.849   9.116  0.2024 -0.2028  0.1382
  214loPI   C4A 3418  12.027   4.865   8.674  0.0852 -0.2353  0.3929
  214loPI   C5A 3419  11.970   4.957   8.261 -0.1763  0.1935 -0.1108
  214loPI   C6A 3420  12.001   4.906   7.878  0.0511  0.0891  0.1981
  214loPI   C1B 3421  11.783   4.574   9.813  0.0060  0.0609 -0.2682
  214loPI   C2B 3422  11.713   4.541   9.437  0.0785 -0.0222 -0.2221
  214loPI   C3B 3423  11.658   4.521   8.947  0.4520  0.1978 -0.0883
  214loPI   C4B 3424  11.617   4.519   8.600 -0.1896  0.1182 -0.4111
  215loPI    C1 3425  17.070  17.776  10.101  0.1827 -0.0855 -0.1243
  215loPI    C2 3426  17.465  17.797  10.160  0.1391  0.3012  0.0630
  215loPI    C3 3427  17.254  17.499  10.324  0.4054 -0.1461 -0.3779
  215loPI   PO4 3428  17.010  17.806   9.837  0.1117  0.1079  0.1050
  215loPI   GL1 3429  17.151  17.673   9.378  0.0203 -0.6274 -0.0265
  215loPI   GL2 3430  16.885  17.869   9.337 -0.2820  0.2685 -0.0407
  215loPI   C1A 3431  17.423  17.621   9.085  0.0653  0.0981  0.1336
  215loPI   C2A 3432  17.654  17.702   8.700 -0.0170 -0.0422  0.1401
  215loPI   C3A 3433  17.703  17.641   8.332  0.0422  0.0491 -0.2410
  215loPI   C4A 3434  17.725  17.606   7.947  0.3143  0.2757 -0.0957
  215loPI   C5A 3435  17.868  17.835   7.703  0.0113  0.1411  0.4958
  215loPI   C6A 3436  17.850  18.262   7.838 -0.0045  0.1312  0.0452
  215loPI   C1B 3437  17.044  17.845   8.875  0.1317  0.2534  0.0520
  215loPI   C2B 3438  17.250  17.928   8.455  0.0318  0.2493 -0.0716
  215loPI   C3B 3439  17.386  17.987   8.107 -0.0742  0.0598  0.1400
  215loPI   C4B 3440  17.343  18.057   7.676  0.0240  0.2642 -0.0967
  216loPI    C1 3441   7.921   4.116  11.176 -0.1556  0.0033  0.0401
  216loPI    C2 3442   8.122   4.402  10.982 -0.0348 -0.1027  0.0083
  216loPI    C3 3443   7.733   4.448  11.058 -0.0416  0.0196 -0.0987
  216loPI   PO4 3444   7.921   3.916  11.036 -0.3040 -0.0202 -0.1392
  216loPI   GL1 3445   7.882   4.054  10.653  0.1267 -0.1447  0.1184
  216loPI   GL2 3446   8.138   4.094  10.604 -0.1790 -0.2452 -0.0207
  216loPI   C1A 3447   7.811   3.799  10.358  0.2325  0.1273  0.1893
  216loPI   C2A 3448   7.737   3.791   9.900  0.0346 -0.1334  0.0241
  216loPI   C3A 3449   7.635   3.851   9.477 -0.0731 -0.2574 -0.1169
  216loPI   C4A 3450   7.224   4.049   9.171  0.2222  0.0736 -0.0960
  216loPI   C5A 3451   7.221   3.944   8.656  0.2072 -0.2090 -0.0541
  216loPI   C6A 3452   7.004   4.141   8.432  0.0410  0.1346 -0.0908
  216loPI   C1B 3453   8.092   4.119  10.120 -0.0520  0.2338 -0.2588
  216loPI   C2B 3454   8.126   4.121   9.653  0.1854  0.0151  0.1928
  216loPI   C3B 3455   8.144   4.204   9.227 -0.0098  0.3089  0.1870
  216loPI   C4B 3456   8.130   4.311   8.824  0.0839  0.0345  0.0395
  217loPI    C1 3457   5.916  11.286  10.441 -0.0672  0.1331 -0.0524
  217loPI    C2 3458   5.619  11.466  10.243 -0.0844 -0.1125 -0.2541
  217loPI    C3 3459   5.540  11.257  10.575 -0.0855  0.1186 -0.1068
  217loPI   PO4 3460   6.077  11.132  10.256 -0.2549  0.1533  0.3115
  217loPI   GL1 3461   5.981  11.014   9.869 -0.1202  0.2432 -0.3229
  217loPI   GL2 3462   5.995  11.315   9.773  0.1649  0.0892  0.0624
  217loPI   C1A 3463   6.039  10.912   9.409 -0.1107  0.1279  0.2075
  217loPI   C2A 3464   5.856  10.803   9.044  0.3559  0.0167 -0.2059
  217loPI   C3A 3465   5.881  10.822   8.669  0.2542 -0.0737 -0.2259
  217loPI   C4A 3466   6.206  10.759   8.393 -0.2855 -0.1608  0.2066
  217loPI   C5A 3467   6.254  10.988   7.988 -0.0743  0.2004  0.1860
  217loPI   C6A 3468   6.157  11.354   7.741 -0.1444  0.0569  0.2431
  217loPI   C1B 3469   5.838  11.467   9.426 -0.2102 -0.1632 -0.4960
  217loPI   C2B 3470   5.826  11.374   8.970  0.1703 -0.0003 -0.2616
  217loPI   C3B 3471   5.679  11.589   8.525  0.1768  0.0855  0.0530
  217loPI   C4B 3472   5.473  11.773   8.204  0.2725  0.0488  0.1569
  218loPI    C1 3473  14.456   6.539  10.234  0.0967  0.0209  0.0347
  218loPI    C2 3474  14.724   6.652  10.509  0.1534 -0.0802  0.0216
  218loPI    C3 3475  14.357   6.811  10.510  0.1729 -0.0350  0.1177
  218loPI   PO4 3476  14.558   6.532   9.990 -0.0081  0.2199  0.1823
  218loPI   GL1 3477  14.464   6.619   9.511  0.0260  0.0562  0.5274
  218loPI   GL2 3478  14.622   6.967   9.566  0.0024  0.1865 -0.0177
  218loPI   C1A 3479  14.302   6.349   9.221  0.0266  0.1312 -0.0203
  218loPI   C2A 3480  14.242   6.479   8.782 -0.1789  0.3728 -0.0260
  218loPI   C3A 3481  14.319   6.470   8.376  0.0402 -0.2908 -0.0247
  218loPI   C4A 3482  14.609   6.286   7.972 -0.2667  0.4754 -0.1785
  218loPI   C5A 3483  14.740   6.426   7.576  0.1390 -0.0496  0.0560
  218loPI   C6A 3484  14.781   6.380   7.165 -0.1521  0.2421 -0.0330
  218loPI   C1B 3485  14.598   7.342   9.212  0.1145 -0.1025 -0.3751
  218loPI   C2B 3486  14.630   7.195   8.733 -0.1392  0.0125  0.1884
  218loPI   C3B 3487  14.920   7.173   8.309  0.3266 -0.0851  0.1089
  218loPI   C4B 3488  15.237   7.218   8.015  0.3205 -0.2296 -0.1488
  219loPI    C1 3489   7.578   6.438  11.315  0.1917 -0.0233  0.0243
  219loPI    C2 3490   7.517   6.236  11.655 -0.1006 -0.4052 -0.2465
  219loPI    C3 3491   7.274   6.538  11.556  0.0427 -0.2308 -0.0744
  219loPI   PO4 3492   7.558   6.232  11.134  0.0608  0.0031 -0.1368
  219loPI   GL1 3493   7.451   6.418  10.765  0.1677  0.0758 -0.0105
  219loPI   GL2 3494   7.669   6.639  10.716 -0.1941 -0.0082 -0.2263
  219loPI   C1A 3495   7.282   6.335  10.258  0.1377 -0.1357 -0.0849
  219loPI   C2A 3496   7.547   6.371   9.908 -0.2206  0.1018  0.0995
  219loPI   C3A 3497   7.777   6.225   9.606 -0.0461 -0.0205 -0.1400
  219loPI   C4A 3498   7.753   6.209   9.220  0.2092  0.0141  0.0511
  219loPI   C5A 3499   7.863   6.251   8.832 -0.1378 -0.0473 -0.0486
  219loPI   C6A 3500   8.039   6.490   8.510  0.1923  0.0610  0.1927
  219loPI   C1B 3501   7.791   6.458  10.329  0.3302  0.0159  0.1368
  219loPI   C2B 3502   7.982   6.554   9.938  0.3939 -0.1343 -0.0644
  219loPI   C3B 3503   8.133   6.527   9.447  0.1560 -0.1250  0.2601
  219loPI   C4B 3504   8.135   6.614   9.025 -0.1186  0.1210 -0.1209
  220loPI    C1 3505  13.038   3.762  10.292  0.1712  0.0566  0.0819
  220loPI    C2 3506  13.150   3.995  10.597  0.3538 -0.1712  0.1914
  220loPI    C3 3507  13.323   3.638  10.543  0.3714 -0.1054 -0.2194
  220loPI   PO4 3508  12.757   3.748  10.296 -0.1147 -0.2566 -0.2240
  220loPI   GL1 3509  12.577   3.721   9.970 -0.1746 -0.0387 -0.0078
  220loPI   GL2 3510  12.399   3.892   9.871 -0.5428 -0.2639 -0.1004
  220loPI   C1A 3511  12.413   3.391   9.600 -0.0645  0.2773 -0.1991
  220loPI   C2A 3512  12.188   3.302   9.346  0.3272  0.0065 -0.1379
  220loPI   C3A 3513  12.194   3.320   8.959  0.1362 -0.1232 -0.3132
  220loPI   C4A 3514  12.253   3.440   8.463 -0.0528  0.0116  0.0371
  220loPI   C5A 3515  12.240   3.338   8.015  0.0314 -0.2416 -0.0786
  220loPI   C6A 3516  12.307   3.216   7.496  0.2036  0.0408  0.0170
  220loPI   C1B 3517  12.253   3.872   9.480  0.1403  0.0110  0.1375
  220loPI   C2B 3518  12.370   3.785   9.139 -0.0847  0.3025 -0.1588
  220loPI   C3B 3519  12.200   3.880   8.736 -0.1345  0.2386  0.1240
  220loPI   C4B 3520  12.120   3.945   8.294 -0.0191  0.0678 -0.1240
  221loPI    C1 3521   0.057  17.623   9.959  0.1693  0.0048 -0.1460
  221loPI    C2 3522   0.024  17.995  10.103  0.1811 -0.0827  0.0870
  221loPI    C3 3523  -0.291  17.748  10.113  0.1963 -0.1054  0.0073
  221loPI   PO4 3524   0.157  17.643   9.721  0.1071  0.0716 -0.1257
  221loPI   GL1 3525   0.343  17.921   9.358  0.0896 -0.2699 -0.0482
  221loPI   GL2 3526   0.721  17.773   9.438  0.1540 -0.2263  0.0232
  221loPI   C1A 3527   0.194  17.859   8.980 -0.1377  0.3641  0.1253
  221loPI   C2A 3528   0.248  17.835   8.601  0.1337  0.0570 -0.1163
  221loPI   C3A 3529   0.274  17.725   8.287  0.0377 -0.1234 -0.1089
  221loPI   C4A 3530   0.266  17.594   7.879  0.0851 -0.1381 -0.2973
  221loPI   C5A 3531   0.066  17.364   7.599 -0.0517 -0.0005  0.1562
  221loPI   C6A 3532   0.227  16.889   7.751 -0.0136 -0.0088 -0.2249
  221loPI   C1B 3533   0.700  17.749   9.004 -0.0442  0.2573  0.0555
  221loPI   C2B 3534   0.649  17.562   8.653  0.1201 -0.0831 -0.3970
  221loPI   C3B 3535   0.559  17.316   8.182 -0.0110  0.2362  0.0767
  221loPI   C4B 3536   0.624  17.182   7.794  0.1595  0.2714 -0.0722
  222loPI    C1 3537  17.496  15.179  10.413  0.0192  0.0743 -0.2245
  222loPI    C2 3538  17.713  15.498  10.522 -0.0750 -0.0452  0.3489
  222loPI    C3 3539  17.319  15.534  10.462 -0.0112  0.0367 -0.0543
  222loPI   PO4 3540  17.599  15.084  10.202  0.1123  0.1809  0.0473
  222loPI   GL1 3541  17.380  15.152   9.748  0.0089 -0.1952 -0.1803
  222loPI   GL2 3542  17.190  15.259   9.622  0.1252  0.0665 -0.0476
  222loPI   C1A 3543  17.491  15.008   9.371  0.2005 -0.3999  0.2926
  222loPI   C2A 3544  17.517  15.031   8.842  0.0433 -0.1438 -0.1767
  222loPI   C3A 3545  17.628  14.985   8.446  0.0598 -0.0716  0.0916
  222loPI   C4A 3546  17.558  15.042   8.054  0.3032  0.0153 -0.1910
  222loPI   C5A 3547  17.325  14.746   7.886  0.1707  0.0986 -0.1804
  222loPI   C6A 3548  17.304  14.307   7.925  0.0673  0.0258 -0.1641
  222loPI   C1B 3549  17.198  15.493   9.252 -0.1219  0.3633  0.1438
  222loPI   C2B 3550  17.288  15.622   8.887  0.0179  0.1586 -0.2812
  222loPI   C3B 3551  17.452  16.107   8.723  0.1039 -0.2448 -0.1683
  222loPI   C4B 3552  17.674  16.160   8.426 -0.1576  0.0785  0.0984
  223loPI    C1 3553  13.687   2.478   9.836  0.0223  0.0987  0.2697
  223loPI    C2 3554  13.373   2.459  10.083 -0.0280 -0.2846  0.1828
  223loPI    C3 3555  13.743   2.408  10.225 -0.0330 -0.1965  0.2276
  223loPI   PO4 3556  13.671   2.307   9.658  0.3762 -0.0612 -0.0078
  223loPI   GL1 3557  13.440   2.324   9.345  0.3567 -0.1190 -0.0974
  223loPI   GL2 3558  13.376   2.026   9.403  0.0102 -0.3868 -0.0748
  223loPI   C1A 3559  13.242   2.336   8.855  0.4014 -0.0336 -0.0640
  223loPI   C2A 3560  13.180   2.349   8.332  0.0066  0.1096  0.1353
  223loPI   C3A 3561  13.116   2.232   7.865  0.0956  0.0822 -0.1491
  223loPI   C4A 3562  12.711   2.151   7.729 -0.2672 -0.0399  0.1354
  223loPI   C5A 3563  12.542   2.438   7.396  0.1535  0.3090 -0.3309
  223loPI   C6A 3564  12.221   2.495   7.198 -0.1684 -0.1316  0.0066
  223loPI   C1B 3565  13.307   1.815   8.998 -0.0496 -0.2401  0.2503
  223loPI   C2B 3566  13.316   1.767   8.574 -0.1825  0.3995 -0.2353
  223loPI   C3B 3567  13.280   1.841   8.112 -0.1679 -0.1886  0.2804
  223loPI   C4B 3568  13.006   1.772   7.658  0.2690 -0.1292 -0.0945
  224loPI    C1 3569   9.889  12.064  10.124  0.3228 -0.0405  0.1815
  224loPI    C2 3570   9.867  12.375  10.374 -0.1530  0.1859 -0.1269
  224loPI    C3 3571   9.668  12.037  10.456  0.2011  0.0274  0.1065
  224loPI   PO4 3572   9.856  12.071   9.933  0.1143 -0.4367  0.1696
  224loPI   GL1 3573   9.979  12.200   9.551 -0.2499  0.0699 -0.3396
  224loPI   GL2 3574   9.974  12.422   9.478 -0.1245 -0.0922 -0.2273
  224loPI   C1A 3575   9.989  12.054   9.157  0.2833 -0.0886 -0.0906
  224loPI   C2A 3576  10.304  12.074   8.822 -0.0312  0.1058 -0.0383
  224loPI   C3A 3577  10.480  12.209   8.369 -0.0932 -0.0897  0.2170
  224loPI   C4A 3578  10.707  12.511   7.993 -0.0791  0.2178 -0.0395
  224loPI   C5A 3579  10.670  12.838   7.762 -0.3190 -0.0532  0.3029
  224loPI   C6A 3580  10.591  13.161   7.379  0.0939  0.1034  0.2701
  224loPI   C1B 3581  10.170  12.518   9.046  0.0949  0.2947 -0.0035
  224loPI   C2B 3582  10.194  12.537   8.583  0.1802 -0.3555 -0.0142
  224loPI   C3B 3583  10.246  12.583   8.152 -0.0219 -0.2320 -0.0468
  224loPI   C4B 3584  10.197  12.667   7.780  0.3005  0.1749 -0.1370
  225loPI    C1 3585  12.005  14.709  10.297 -0.0891 -0.0441 -0.0018
  225loPI    C2 3586  12.237  14.921  10.545 -0.0592  0.0245 -0.0881
  225loPI    C3 3587  11.861  15.037  10.474  0.0281  0.1782 -0.3104
  225loPI   PO4 3588  12.163  14.755  10.052  0.1263 -0.1390 -0.0708
  225loPI   GL1 3589  12.015  14.699   9.582 -0.0003  0.0807 -0.0603
  225loPI   GL2 3590  11.864  14.540   9.410 -0.0412 -0.0544  0.2150
  225loPI   C1A 3591  12.215  14.834   9.223 -0.2254 -0.1489 -0.1083
  225loPI   C2A 3592  12.465  14.945   8.910  0.0620 -0.1145  0.1587
  225loPI   C3A 3593  12.542  15.026   8.531 -0.1357 -0.2030  0.1683
  225loPI   C4A 3594  12.637  15.210   8.042  0.0747  0.0908  0.2446
  225loPI   C5A 3595  12.737  15.289   7.719  0.1841  0.2042  0.0383
  225loPI   C6A 3596  13.013  15.180   7.407  0.0517 -0.1419 -0.1121
  225loPI   C1B 3597  11.756  14.647   9.021 -0.1140 -0.0590 -0.0955
  225loPI   C2B 3598  11.904  14.946   8.707  0.2874  0.0489  0.2251
  225loPI   C3B 3599  12.087  14.922   8.283 -0.0787  0.1487  0.0984
  225loPI   C4B 3600  12.271  14.836   7.878  0.0109  0.0299 -0.0699
  226loPI    C1 3601  10.400  17.328  10.536 -0.0652  0.1964  0.0776
  226loPI    C2 3602  10.556  17.272  10.900 -0.0596 -0.0730  0.0354
  226loPI    C3 3603  10.283  17.558  10.842 -0.1175 -0.0789  0.2683
  226loPI   PO4 3604  10.240  17.220  10.410  0.4784  0.0702 -0.0943
  226loPI   GL1 3605  10.221  17.327   9.981 -0.1662 -0.2854 -0.0382
  226loPI   GL2 3606  10.303  17.003   9.894  0.3102 -0.0778  0.1971
  226loPI   C1A 3607  10.354  17.690   9.801 -0.3313 -0.3067  0.1099
  226loPI   C2A 3608  10.324  18.073   9.582  0.0566 -0.0707 -0.0841
  226loPI   C3A 3609  10.242  18.115   9.082  0.4177  0.0584 -0.2007
  226loPI   C4A 3610  10.359  18.198   8.652 -0.1749  0.0471  0.1172
  226loPI   C5A 3611  10.184  18.338   8.204  0.0974 -0.0822  0.1446
  226loPI   C6A 3612   9.784  18.400   8.090 -0.1869 -0.1560  0.0794
  226loPI   C1B 3613  10.191  17.202   9.469 -0.0370  0.1834 -0.3134
  226loPI   C2B 3614   9.717  17.270   9.167 -0.2743  0.0365 -0.2288
  226loPI   C3B 3615   9.705  17.463   8.790 -0.0364 -0.0803 -0.3770
  226loPI   C4B 3616   9.458  17.478   8.452  0.2464 -0.0926  0.2483
  227loPI    C1 3617   4.781   2.991  10.336  0.1990  0.1784  0.1819
  227loPI    C2 3618   4.930   2.628  10.410  0.0577  0.0374 -0.2033
  227loPI    C3 3619   4.827   2.867  10.713  0.1852 -0.2280  0.0541
  227loPI   PO4 3620   4.851   3.141  10.165  0.2265  0.2127 -0.3215
  227loPI   GL1 3621   5.111   3.283   9.891  0.0933  0.0920 -0.0994
  227loPI   GL2 3622   5.359   3.256   9.978 -0.0461  0.1161 -0.0380
  227loPI   C1A 3623   5.456   3.552   9.589 -0.1203  0.1857 -0.2708
  227loPI   C2A 3624   5.513   3.438   9.093  0.2975  0.0359  0.1931
  227loPI   C3A 3625   5.429   3.413   8.604 -0.0175 -0.2526 -0.1328
  227loPI   C4A 3626   5.318   3.310   8.145  0.1429 -0.6651  0.1542
  227loPI   C5A 3627   5.396   3.279   7.725  0.1956  0.1444  0.2221
  227loPI   C6A 3628   5.302   3.261   7.307  0.0752 -0.0605 -0.4312
  227loPI   C1B 3629   5.374   3.077   9.518  0.0938  0.1694 -0.0662
  227loPI   C2B 3630   5.471   2.936   9.079  0.0016  0.0191 -0.2504
  227loPI   C3B 3631   5.482   2.895   8.669  0.0696 -0.1749 -0.0903
  227loPI   C4B 3632   5.468   2.823   8.335  0.1629  0.3085 -0.3774
  228loPI    C1 3633   4.377   2.717  10.446  0.1689  0.1116  0.0776
  228loPI    C2 3634   4.293   2.327  10.421  0.2681  0.0995 -0.0826
  228loPI    C3 3635   4.550   2.459  10.698 -0.2204  0.1298  0.3744
  228loPI   PO4 3636   4.393   2.758  10.154 -0.2191 -0.1765 -0.1309
  228loPI   GL1 3637   4.500   2.469   9.816  0.1644 -0.2923 -0.3746
  228loPI   GL2 3638   4.829   2.621   9.884 -0.2292 -0.1208  0.2267
  228loPI   C1A 3639   4.624   2.496   9.387 -0.0661 -0.0130  0.1673
  228loPI   C2A 3640   4.533   2.403   9.000 -0.3056  0.3743  0.0616
  228loPI   C3A 3641   4.552   2.278   8.624 -0.1549 -0.2236 -0.1079
  228loPI   C4A 3642   4.521   2.312   8.202  0.0152  0.1818 -0.2733
  228loPI   C5A 3643   4.564   2.480   7.849  0.1132 -0.0181  0.1908
  228loPI   C6A 3644   4.632   2.487   7.369  0.1059 -0.2632 -0.0956
  228loPI   C1B 3645   4.953   2.853   9.553 -0.0750  0.1840  0.0869
  228loPI   C2B 3646   5.036   2.788   9.216  0.1039 -0.0253 -0.1779
  228loPI   C3B 3647   4.943   2.627   8.765  0.0787  0.0552 -0.1356
  228loPI   C4B 3648   4.913   2.503   8.359  0.1529  0.2279 -0.1398
  229loPI    C1 3649   2.307   4.647  10.355 -0.2184  0.0946  0.1245
  229loPI    C2 3650   2.368   4.313  10.567 -0.1195  0.0938  0.0955
  229loPI    C3 3651   2.329   4.665  10.754 -0.1373  0.0783  0.1211
  229loPI   PO4 3652   2.249   4.544  10.162  0.1368 -0.3316  0.3952
  229loPI   GL1 3653   2.167   4.455   9.691  0.0169  0.0597  0.2022
  229loPI   GL2 3654   1.898   4.724   9.714 -0.0467 -0.0971  0.2333
  229loPI   C1A 3655   2.243   4.268   9.324  0.1714  0.0230  0.4283
  229loPI   C2A 3656   2.317   4.369   8.876  0.2004 -0.2243  0.1000
  229loPI   C3A 3657   2.257   4.370   8.468  0.1353  0.2140 -0.1587
  229loPI   C4A 3658   2.375   4.279   7.994  0.0794  0.2215 -0.3033
  229loPI   C5A 3659   2.478   4.649   7.841 -0.1699  0.0749  0.1159
  229loPI   C6A 3660   2.490   5.072   7.916 -0.1380 -0.1301  0.1125
  229loPI   C1B 3661   1.881   4.618   9.295  0.0249  0.3382  0.0813
  229loPI   C2B 3662   1.822   4.618   8.931  0.0100  0.0756  0.1614
  229loPI   C3B 3663   1.812   4.574   8.491  0.3256  0.1270 -0.3544
  229loPI   C4B 3664   1.865   4.578   8.021  0.1136  0.1004  0.2575
  230loPI    C1 3665  13.437   5.359  10.366 -0.0682  0.2029 -0.0328
  230loPI    C2 3666  13.134   5.271  10.611 -0.1404  0.1315 -0.1468
  230loPI    C3 3667  13.497   5.115  10.677 -0.2267 -0.1180 -0.2481
  230loPI   PO4 3668  13.271   5.343  10.031  0.1605 -0.2023  0.0164
  230loPI   GL1 3669  13.032   5.171   9.719  0.0781  0.3223 -0.0065
  230loPI   GL2 3670  13.011   4.932   9.479  0.1089  0.1922 -0.1205
  230loPI   C1A 3671  12.953   5.535   9.480 -0.2577  0.0106  0.0718
  230loPI   C2A 3672  12.903   5.550   8.982 -0.0961  0.0426  0.3810
  230loPI   C3A 3673  12.855   5.573   8.646  0.2144  0.2538 -0.1511
  230loPI   C4A 3674  12.732   5.524   8.272  0.2109  0.2015 -0.0391
  230loPI   C5A 3675  12.702   5.602   7.811  0.0660  0.0446 -0.1803
  230loPI   C6A 3676  12.699   5.733   7.477  0.0713 -0.0823  0.0715
  230loPI   C1B 3677  12.910   5.075   9.154 -0.0082  0.3029  0.1364
  230loPI   C2B 3678  12.879   5.069   8.749  0.1669  0.0558 -0.1800
  230loPI   C3B 3679  12.794   5.042   8.326  0.2107 -0.1382 -0.1137
  230loPI   C4B 3680  12.948   5.092   7.912  0.3295 -0.0787  0.1708
  231loPI    C1 3681   5.711   8.641  10.600  0.0840  0.0339 -0.1661
  231loPI    C2 3682   5.544   8.281  10.656  0.0320  0.0755 -0.0531
  231loPI    C3 3683   5.485   8.574  10.923  0.2594  0.1007 -0.0283
  231loPI   PO4 3684   5.851   8.627  10.390  0.4248 -0.0471 -0.3244
  231loPI   GL1 3685   5.802   8.599   9.955 -0.0074 -0.3321 -0.0655
  231loPI   GL2 3686   6.084   8.464   9.860  0.0611  0.0702 -0.0389
  231loPI   C1A 3687   5.663   8.602   9.553  0.0277 -0.2565  0.1812
  231loPI   C2A 3688   5.541   8.698   9.138  0.0733 -0.1581 -0.0137
  231loPI   C3A 3689   5.511   8.840   8.766 -0.1012 -0.0995  0.0574
  231loPI   C4A 3690   5.645   8.937   8.332  0.0853 -0.1561 -0.0593
  231loPI   C5A 3691   5.981   8.636   8.092  0.1032  0.1387 -0.2305
  231loPI   C6A 3692   6.289   8.400   7.850  0.0387 -0.0036 -0.2255
  231loPI   C1B 3693   6.141   8.099   9.649  0.0969  0.2737 -0.0199
  231loPI   C2B 3694   6.181   7.938   9.180 -0.4124 -0.2607 -0.1001
  231loPI   C3B 3695   6.611   8.120   8.907  0.0401  0.1703 -0.1980
  231loPI   C4B 3696   6.806   8.020   8.545  0.1986 -0.2676  0.1172
  232loPI    C1 3697   9.709   3.294  11.098 -0.0518  0.0897  0.0251
  232loPI    C2 3698   9.727   2.900  11.164 -0.1276  0.0756 -0.0368
  232loPI    C3 3699   9.629   3.148  11.462 -0.1837  0.0382 -0.0239
  232loPI   PO4 3700   9.879   3.358  10.840  0.0576  0.4581 -0.0635
  232loPI   GL1 3701   9.916   3.278  10.362 -0.0669  0.1093 -0.1710
  232loPI   GL2 3702   9.655   3.139  10.203  0.0525  0.2088  0.1480
  232loPI   C1A 3703   9.959   3.367   9.904 -0.1795 -0.0559  0.1339
  232loPI   C2A 3704   9.955   3.324   9.481  0.0182  0.0922  0.1118
  232loPI   C3A 3705  10.001   3.367   9.057  0.6208 -0.0386 -0.3476
  232loPI   C4A 3706  10.023   3.263   8.660  0.1660  0.2416  0.1546
  232loPI   C5A 3707   9.904   3.515   8.345  0.4972 -0.2359 -0.2705
  232loPI   C6A 3708  10.003   3.900   8.268 -0.2807 -0.1763 -0.0341
  232loPI   C1B 3709   9.578   3.069   9.707 -0.2453  0.0827  0.2068
  232loPI   C2B 3710   9.558   3.010   9.224 -0.0154  0.0557  0.0215
  232loPI   C3B 3711   9.572   3.095   8.829 -0.2086 -0.0601 -0.0105
  232loPI   C4B 3712   9.507   3.129   8.382 -0.3200  0.1510 -0.2980
  233loPI    C1 3713   9.511  10.195  10.225 -0.1315  0.1210 -0.0608
  233loPI    C2 3714   9.795  10.123   9.953 -0.0991 -0.4617  0.1141
  233loPI    C3 3715   9.889  10.304  10.297 -0.0911  0.0327 -0.1386
  233loPI   PO4 3716   9.300  10.216  10.086  0.0598  0.2214 -0.4915
  233loPI   GL1 3717   9.249  10.051   9.682 -0.0362  0.2751  0.5134
  233loPI   GL2 3718   9.037   9.960   9.625  0.0063 -0.2859 -0.0337
  233loPI   C1A 3719   9.537  10.080   9.423  0.0052  0.0630 -0.0258
  233loPI   C2A 3720   9.673  10.133   9.069  0.4353  0.2433  0.1202
  233loPI   C3A 3721   9.850   9.993   8.650  0.1064  0.1233  0.0546
  233loPI   C4A 3722  10.157  10.104   8.383  0.0616  0.0648  0.1954
  233loPI   C5A 3723  10.228   9.896   8.048 -0.0236  0.0132  0.0035
  233loPI   C6A 3724  10.482   9.818   7.719 -0.1758  0.0546  0.0031
  233loPI   C1B 3725   8.965  10.009   9.181  0.0939  0.0565 -0.4228
  233loPI   C2B 3726   8.693  10.249   8.952  0.2414  0.1581 -0.0969
  233loPI   C3B 3727   8.640  10.289   8.557  0.0844 -0.1153  0.2302
  233loPI   C4B 3728   8.766  10.684   8.224 -0.1811 -0.2495 -0.2229
  234loPI    C1 3729  17.448  18.151   9.801 -0.1102 -0.2037 -0.1901
  234loPI    C2 3730  17.743  18.196  10.068 -0.0316 -0.0301 -0.3047
  234loPI    C3 3731  17.365  18.276  10.172 -0.0514 -0.3322 -0.1330
  234loPI   PO4 3732  17.516  17.960   9.657 -0.0756  0.2279  0.2571
  234loPI   GL1 3733  17.809  17.798   9.405 -0.1482  0.0111 -0.2595
  234loPI   GL2 3734  17.894  17.619   9.363 -0.0265  0.2462  0.2125
  234loPI   C1A 3735  18.002  18.012   9.084 -0.0025  0.2440  0.0089
  234loPI   C2A 3736  18.137  17.854   8.644 -0.0233  0.1052  0.1437
  234loPI   C3A 3737  18.193  17.868   8.228 -0.0363 -0.0188  0.0109
  234loPI   C4A 3738  18.335  18.091   7.823 -0.1075  0.0886  0.3938
  234loPI   C5A 3739  18.261  18.501   7.603  0.0932  0.2081  0.2048
  234loPI   C6A 3740  18.071  18.589   7.227 -0.0557 -0.0886  0.0121
  234loPI   C1B 3741  18.030  17.501   8.977 -0.1156 -0.2330 -0.2428
  234loPI   C2B 3742  18.150  17.331   8.598  0.1020  0.2214  0.1333
  234loPI   C3B 3743  18.106  17.380   8.192 -0.0193  0.2001  0.1708
  234loPI   C4B 3744  18.060  17.315   7.693 -0.0973 -0.0415  0.3064
  235loPI    C1 3745  14.873  17.004  10.228  0.0253 -0.2130 -0.0744
  235loPI    C2 3746  15.142  17.291  10.303 -0.2626  0.0887 -0.1735
  235loPI    C3 3747  14.814  17.260  10.530 -0.2773 -0.1072 -0.2196
  235loPI   PO4 3748  14.917  17.000   9.955 -0.4853 -0.0571  0.0011
  235loPI   GL1 3749  14.976  17.073   9.573  0.3972  0.0150  0.1480
  235loPI   GL2 3750  14.652  17.145   9.436 -0.0235  0.1143 -0.2255
  235loPI   C1A 3751  15.142  16.967   9.163 -0.2814  0.1500  0.3746
  235loPI   C2A 3752  15.042  16.835   8.710  0.1401 -0.1019 -0.0801
  235loPI   C3A 3753  15.087  16.959   8.299  0.3083 -0.0274 -0.0254
  235loPI   C4A 3754  15.346  16.952   7.905 -0.1034 -0.0602  0.1601
  235loPI   C5A 3755  15.615  16.694   7.709  0.0439 -0.1287  0.0928
  235loPI   C6A 3756  15.488  16.339   7.763  0.3512 -0.1142 -0.0764
  235loPI   C1B 3757  14.448  17.537   9.185 -0.1479  0.1540 -0.0451
  235loPI   C2B 3758  14.333  17.517   8.855  0.1175 -0.2989  0.2143
  235loPI   C3B 3759  14.304  17.520   8.470 -0.0383 -0.1807 -0.1951
  235loPI   C4B 3760  14.215  17.805   8.075 -0.1500  0.0132  0.1098
  236loPI    C1 3761  18.220  12.142   9.713 -0.0170 -0.0069 -0.2038
  236loPI    C2 3762  18.620  12.142   9.708 -0.0127  0.0774  0.0206
  236loPI    C3 3763  18.422  11.845   9.889 -0.0480  0.1337  0.0748
  236loPI   PO4 3764  18.164  12.355   9.765  0.3129  0.1510 -0.1195
  236loPI   GL1 3765  17.975  12.490   9.308  0.0409  0.0971 -0.0601
  236loPI   GL2 3766  18.323  12.457   9.288  0.3006  0.2759 -0.1324
  236loPI   C1A 3767  17.965  12.573   8.902 -0.1167  0.0328  0.0517
  236loPI   C2A 3768  17.945  12.533   8.455  0.0005  0.1098  0.3378
  236loPI   C3A 3769  17.941  12.441   8.072  0.0009  0.2467  0.3919
  236loPI   C4A 3770  17.828  12.237   7.847 -0.3276  0.0702  0.3238
  236loPI   C5A 3771  17.525  12.423   7.643  0.0376 -0.4053 -0.1131
  236loPI   C6A 3772  17.279  12.303   7.333 -0.0443 -0.1749 -0.2226
  236loPI   C1B 3773  18.444  12.627   8.758  0.4060 -0.0385 -0.0628
  236loPI   C2B 3774  18.442  12.622   8.367 -0.1917 -0.3199  0.0808
  236loPI   C3B 3775  18.528  12.537   7.942 -0.2251 -0.0218  0.0637
  236loPI   C4B 3776  18.660  12.685   7.582  0.1865 -0.2259 -0.0217
  237loPI    C1 3777   4.787  16.505  10.254  0.1237  0.1069  0.0729
  237loPI    C2 3778   4.580  16.350  10.559  0.0149  0.1096  0.0012
  237loPI    C3 3779   4.913  16.560  10.629  0.0509  0.0170  0.1111
  237loPI   PO4 3780   4.709  16.340  10.008 -0.0052 -0.0074 -0.1576
  237loPI   GL1 3781   4.931  16.445   9.623 -0.0126  0.0413 -0.2688
  237loPI   GL2 3782   5.135  16.673   9.822 -0.2680 -0.1656  0.0086
  237loPI   C1A 3783   5.049  16.453   9.193 -0.2706 -0.0076 -0.0767
  237loPI   C2A 3784   5.203  16.467   8.823  0.0506  0.1590  0.3645
  237loPI   C3A 3785   5.289  16.493   8.365  0.0210 -0.1317  0.2079
  237loPI   C4A 3786   5.363  16.439   7.913 -0.0909 -0.2127 -0.1194
  237loPI   C5A 3787   5.385  16.202   7.608 -0.0025  0.1130 -0.0767
  237loPI   C6A 3788   5.558  15.981   7.228  0.4375 -0.0653 -0.0516
  237loPI   C1B 3789   5.254  16.812   9.435  0.0058  0.0762 -0.1811
  237loPI   C2B 3790   5.106  16.981   9.043 -0.0981  0.0951 -0.1488
  237loPI   C3B 3791   5.275  17.005   8.660  0.0708  0.0566  0.2861
  237loPI   C4B 3792   5.407  16.995   8.289 -0.0676 -0.1519  0.2320
  238loPI    C1 3793   9.269   9.427  10.431  0.2177 -0.0588 -0.0815
  238loPI    C2 3794   9.184   9.396  10.820 -0.1563  0.1320 -0.1437
  238loPI    C3 3795   8.991   9.663  10.594 -0.0465 -0.0765 -0.4919
  238loPI   PO4 3796   9.303   9.260  10.311 -0.1874  0.1213  0.1960
  238loPI   GL1 3797   9.332   9.286   9.941  0.1602  0.0585 -0.0248
  238loPI   GL2 3798   9.545   9.060   9.818  0.2720  0.0190  0.1478
  238loPI   C1A 3799   9.137   9.044   9.528 -0.0548  0.3135  0.0821
  238loPI   C2A 3800   9.165   9.094   9.108  0.0814  0.3536 -0.1374
  238loPI   C3A 3801   8.820   8.868   8.812 -0.0429  0.4188  0.3930
  238loPI   C4A 3802   8.426   8.499   8.767  0.1981 -0.4967 -0.0950
  238loPI   C5A 3803   8.033   8.281   8.793 -0.1560 -0.2338 -0.0052
  238loPI   C6A 3804   7.612   8.146   8.574 -0.0362  0.0675 -0.0621
  238loPI   C1B 3805   9.560   8.769   9.520 -0.0098  0.2253  0.2376
  238loPI   C2B 3806   9.174   8.578   9.350 -0.0109  0.0513 -0.0736
  238loPI   C3B 3807   8.773   8.621   9.468 -0.3706 -0.0580 -0.1420
  238loPI   C4B 3808   8.532   8.463   9.870  0.0076 -0.0668 -0.0462
  239loPI    C1 3809  15.362   2.315  10.062  0.1626 -0.1541 -0.1194
  239loPI    C2 3810  15.455   2.315  10.451 -0.1731 -0.1585 -0.0367
  239loPI    C3 3811  15.072   2.315  10.337 -0.0768 -0.1932 -0.3686
  239loPI   PO4 3812  15.511   2.523   9.878  0.0541  0.1116 -0.1111
  239loPI   GL1 3813  15.727   2.440   9.409  0.2694  0.3288  0.1960
  239loPI   GL2 3814  15.941   2.683   9.330 -0.1763  0.3354  0.1662
  239loPI   C1A 3815  15.753   2.307   8.981 -0.3065 -0.1282  0.0725
  239loPI   C2A 3816  15.979   2.138   8.616 -0.0511  0.1726 -0.2383
  239loPI   C3A 3817  16.010   2.206   8.139  0.0145  0.2518  0.0084
  239loPI   C4A 3818  15.834   2.212   7.783 -0.2037 -0.0602 -0.1375
  239loPI   C5A 3819  16.038   2.220   7.333 -0.1444  0.0000  0.0022
  239loPI   C6A 3820  16.501   2.138   7.245  0.1291  0.2689 -0.3357
  239loPI   C1B 3821  15.936   2.903   8.811  0.2190  0.2660 -0.0225
  239loPI   C2B 3822  16.058   3.112   8.437 -0.2515  0.1812  0.0703
  239loPI   C3B 3823  16.093   3.342   8.193 -0.2304  0.1906 -0.1941
  239loPI   C4B 3824  15.909   3.788   8.000  0.1501  0.1111 -0.1605
  240loPI    C1 3825   4.585   6.186  10.702  0.2890  0.0709  0.0954
  240loPI    C2 3826   4.431   5.893  10.927 -0.0582  0.2812  0.1381
  240loPI    C3 3827   4.698   6.147  11.084 -0.0275  0.2071  0.2064
  240loPI   PO4 3828   4.458   6.319  10.671  0.1675  0.1268  0.1540
  240loPI   GL1 3829   4.276   6.443  10.340  0.0242 -0.1817  0.1163
  240loPI   GL2 3830   4.187   6.759  10.116 -0.0808  0.1617  0.1089
  240loPI   C1A 3831   4.447   6.195   9.995  0.1696 -0.2779 -0.0341
  240loPI   C2A 3832   4.486   6.164   9.570  0.1416  0.1909 -0.1064
  240loPI   C3A 3833   4.589   6.204   9.095 -0.0341 -0.0122 -0.2572
  240loPI   C4A 3834   4.590   6.139   8.692 -0.2055 -0.0724 -0.0908
  240loPI   C5A 3835   4.745   5.915   8.199  0.0306 -0.0431  0.1080
  240loPI   C6A 3836   4.693   5.779   7.768 -0.0129 -0.0715  0.0510
  240loPI   C1B 3837   4.083   6.539   9.855  0.0751 -0.0952 -0.3604
  240loPI   C2B 3838   4.178   6.493   9.326 -0.1867 -0.1177 -0.2756
  240loPI   C3B 3839   4.136   6.435   8.901  0.0881  0.0118 -0.0332
  240loPI   C4B 3840   4.179   6.301   8.490  0.0495  0.3131  0.1864
  241loPI    C1 3841  16.142   6.530  10.167 -0.1383 -0.2022 -0.0677
  241loPI    C2 3842  16.484   6.325  10.196 -0.0488 -0.0560 -0.0851
  241loPI    C3 3843  16.155   6.190  10.377  0.1158  0.0127  0.2743
  241loPI   PO4 3844  16.191   6.537   9.854  0.1041  0.0674 -0.0285
  241loPI   GL1 3845  15.951   6.501   9.461 -0.1260 -0.1580 -0.1258
  241loPI   GL2 3846  16.082   6.369   9.377  0.2911 -0.1882  0.0209
  241loPI   C1A 3847  15.829   6.616   8.989 -0.0387  0.2194  0.1327
  241loPI   C2A 3848  15.727   6.702   8.604  0.0325 -0.2347  0.0499
  241loPI   C3A 3849  15.920   6.610   8.215 -0.1050  0.2506 -0.1452
  241loPI   C4A 3850  16.128   6.648   7.804  0.0787 -0.2149 -0.2300
  241loPI   C5A 3851  16.374   6.820   7.541 -0.0356 -0.1718 -0.3424
  241loPI   C6A 3852  16.450   6.549   7.237 -0.1922 -0.0155 -0.0979
  241loPI   C1B 3853  16.296   6.377   8.951 -0.0870  0.0738  0.2820
  241loPI   C2B 3854  16.173   6.389   8.548  0.1149 -0.0487  0.2291
  241loPI   C3B 3855  16.384   6.458   8.163  0.1362  0.3286 -0.0158
  241loPI   C4B 3856  16.607   6.441   7.829  0.1278 -0.1644 -0.0133
  242loPI    C1 3857  15.381   3.333   9.875  0.0966  0.0302 -0.1473
  242loPI    C2 3858  15.433   3.385  10.268  0.0492 -0.0519 -0.1299
  242loPI    C3 3859  15.666   3.580  10.008 -0.0174  0.1175 -0.0637
  242loPI   PO4 3860  15.409   3.063   9.806  0.0372  0.3390 -0.0210
  242loPI   GL1 3861  15.412   2.821   9.417 -0.2819  0.1908  0.1925
  242loPI   GL2 3862  15.113   2.761   9.216  0.2183 -0.2709  0.0810
  242loPI   C1A 3863  15.491   2.732   8.971 -0.1848 -0.0349  0.1240
  242loPI   C2A 3864  15.476   2.597   8.533 -0.0574 -0.0932  0.0350
  242loPI   C3A 3865  15.396   2.481   8.048  0.3625  0.1385 -0.2730
  242loPI   C4A 3866  15.258   2.302   7.583  0.2142  0.0434 -0.0036
  242loPI   C5A 3867  15.304   1.900   7.435 -0.0953 -0.0585 -0.1833
  242loPI   C6A 3868  15.699   1.662   7.418  0.2383  0.0985  0.1458
  242loPI   C1B 3869  15.004   2.721   8.766 -0.0287  0.3714 -0.1608
  242loPI   C2B 3870  14.986   2.639   8.383 -0.2820 -0.1776  0.1367
  242loPI   C3B 3871  14.919   2.653   7.947 -0.1829  0.2914 -0.1004
  242loPI   C4B 3872  14.766   2.591   7.592 -0.0776 -0.0666 -0.1567
  243loPI    C1 3873  10.823  15.969  10.107  0.2079  0.0401 -0.0565
  243loPI    C2 3874  10.856  16.197  10.434 -0.0782  0.0412 -0.0254
  243loPI    C3 3875  10.899  15.800  10.462 -0.0292  0.0481 -0.0002
  243loPI   PO4 3876  10.623  16.154   9.894 -0.1567  0.3602  0.2343
  243loPI   GL1 3877  10.670  16.074   9.518 -0.2120 -0.1572 -0.1906
  243loPI   GL2 3878  10.695  15.650   9.440  0.0884 -0.0433  0.0117
  243loPI   C1A 3879  10.517  15.912   9.010  0.2405 -0.2246  0.2227
  243loPI   C2A 3880  10.449  15.955   8.483  0.0875 -0.2062 -0.0217
  243loPI   C3A 3881  10.384  15.962   7.987  0.0618  0.0581 -0.0690
  243loPI   C4A 3882  10.083  16.251   7.677 -0.2992 -0.1050 -0.0194
  243loPI   C5A 3883   9.953  16.599   7.888  0.0507 -0.4610 -0.2646
  243loPI   C6A 3884  10.118  16.859   8.259  0.1186  0.1788 -0.2814
  243loPI   C1B 3885  10.960  15.804   9.162  0.3276 -0.1645  0.0511
  243loPI   C2B 3886  10.977  15.949   8.763 -0.0871 -0.1521 -0.2284
  243loPI   C3B 3887  11.109  16.010   8.283  0.1299  0.1388 -0.1295
  243loPI   C4B 3888  11.091  16.316   7.973 -0.0950  0.2085  0.2884
  244loPI    C1 3889  12.441   7.587  10.272  0.0519  0.0985  0.0937
  244loPI    C2 3890  12.597   7.953  10.308  0.2731  0.0033  0.1215
  244loPI    C3 3891  12.766   7.645  10.498  0.0521 -0.1035  0.1470
  244loPI   PO4 3892  12.172   7.621  10.026  0.1888  0.1826  0.0291
  244loPI   GL1 3893  11.860   7.756   9.725 -0.0316  0.0804 -0.0087
  244loPI   GL2 3894  11.855   8.041   9.604 -0.2714  0.1045 -0.1975
  244loPI   C1A 3895  11.727   7.370   9.389 -0.3133  0.0297 -0.2378
  244loPI   C2A 3896  11.681   7.417   8.902 -0.0385 -0.1312 -0.1498
  244loPI   C3A 3897  11.728   7.493   8.521 -0.1583  0.1927 -0.1370
  244loPI   C4A 3898  11.627   7.612   8.092  0.1953  0.2196  0.5104
  244loPI   C5A 3899  11.685   7.515   7.719 -0.0524 -0.5350 -0.1666
  244loPI   C6A 3900  11.300   7.459   7.513  0.1893 -0.0580 -0.0150
  244loPI   C1B 3901  11.910   7.823   9.173  0.2256  0.2434  0.3242
  244loPI   C2B 3902  11.718   8.019   8.824 -0.2019 -0.3243  0.1406
  244loPI   C3B 3903  11.691   8.111   8.455 -0.0444 -0.3708  0.2215
  244loPI   C4B 3904  11.633   8.086   8.003 -0.1639  0.3229 -0.1824
  245loPI    C1 3905   2.287   3.827  10.322 -0.1831 -0.3018 -0.0480
  245loPI    C2 3906   2.130   3.529  10.106 -0.3579 -0.2010 -0.0614
  245loPI    C3 3907   2.023   3.577  10.489 -0.0397 -0.3865  0.0546
  245loPI   PO4 3908   2.228   4.063  10.127 -0.0843  0.2180 -0.2431
  245loPI   GL1 3909   2.118   3.908   9.803 -0.1086 -0.0366  0.0999
  245loPI   GL2 3910   1.816   3.975   9.672  0.1676 -0.0501 -0.3551
  245loPI   C1A 3911   2.218   3.701   9.328  0.2007  0.1708  0.0578
  245loPI   C2A 3912   2.291   3.833   8.898 -0.0069 -0.3010  0.0333
  245loPI   C3A 3913   2.241   3.843   8.485  0.1646 -0.0083  0.3772
  245loPI   C4A 3914   2.345   3.808   8.093 -0.0223 -0.2346 -0.0537
  245loPI   C5A 3915   2.337   3.691   7.767  0.0491 -0.1775 -0.0306
  245loPI   C6A 3916   2.355   3.978   7.483  0.0506 -0.2900 -0.1043
  245loPI   C1B 3917   1.837   3.970   9.159 -0.1186 -0.1799  0.0349
  245loPI   C2B 3918   1.853   4.095   8.752 -0.1897  0.3233  0.1939
  245loPI   C3B 3919   1.840   4.078   8.327 -0.1001 -0.1606  0.2886
  245loPI   C4B 3920   1.989   4.085   7.831 -0.1628 -0.0646  0.5952
  246loPI    C1 3921  13.921  10.329  10.284  0.0696  0.0923  0.1647
  246loPI    C2 3922  14.078  10.473  10.623  0.0437 -0.1277  0.2722
  246loPI    C3 3923  13.756  10.648  10.461  0.0491 -0.0288  0.3671
  246loPI   PO4 3924  14.147  10.214  10.102  0.2736 -0.0955  0.0207
  246loPI   GL1 3925  14.086  10.262   9.661  0.0054 -0.1172 -0.3868
  246loPI   GL2 3926  14.212  10.033   9.616 -0.2972  0.2212 -0.0418
  246loPI   C1A 3927  14.160  10.278   9.252  0.2147 -0.1680 -0.1180
  246loPI   C2A 3928  14.056  10.185   8.960  0.1107 -0.2751 -0.0171
  246loPI   C3A 3929  13.920  10.002   8.654 -0.0198 -0.0714  0.1667
  246loPI   C4A 3930  14.048  10.027   8.214  0.0100  0.2399 -0.0636
  246loPI   C5A 3931  14.040  10.295   7.931 -0.1231  0.2496 -0.2349
  246loPI   C6A 3932  13.766  10.453   7.705  0.1130  0.0652  0.0615
  246loPI   C1B 3933  14.114   9.712   9.263  0.0338  0.0682  0.0681
  246loPI   C2B 3934  14.055   9.467   8.952  0.1507  0.0556  0.0108
  246loPI   C3B 3935  14.106   9.542   8.519 -0.0284  0.2830 -0.0526
  246loPI   C4B 3936  14.194   9.610   8.099  0.1228  0.0243  0.1365
  247loPI    C1 3937  10.148   4.628  10.933  0.0287  0.0359  0.0455
  247loPI    C2 3938  10.351   4.359  11.148 -0.0665  0.0634  0.1711
  247loPI    C3 3939  10.387   4.749  11.230  0.0166  0.0851  0.0353
  247loPI   PO4 3940  10.148   4.491  10.660 -0.3485 -0.1556  0.0397
  247loPI   GL1 3941  10.151   4.227  10.319  0.1571 -0.0416  0.3587
  247loPI   GL2 3942  10.526   4.284  10.325 -0.2912 -0.0261 -0.1764
  247loPI   C1A 3943   9.948   4.361   9.990 -0.0135  0.0608 -0.2750
  247loPI   C2A 3944   9.863   4.322   9.657 -0.0590  0.1233  0.1145
  247loPI   C3A 3945   9.895   4.382   9.177 -0.1843 -0.0265  0.0947
  247loPI   C4A 3946   9.855   4.347   8.680 -0.4092 -0.4059 -0.0887
  247loPI   C5A 3947   9.613   4.486   8.247 -0.0573 -0.1093  0.2352
  247loPI   C6A 3948   9.533   4.474   7.772 -0.1223 -0.0288  0.0582
  247loPI   C1B 3949  10.375   4.129   9.917 -0.2384 -0.1299 -0.0699
  247loPI   C2B 3950  10.323   4.254   9.445  0.0748  0.0758 -0.0585
  247loPI   C3B 3951  10.329   4.072   9.000  0.0894 -0.0458  0.1008
  247loPI   C4B 3952  10.293   4.139   8.621  0.0566 -0.0639  0.0037
  248loPI    C1 3953  12.398  11.712   9.938  0.1555 -0.0047  0.0195
  248loPI    C2 3954  12.320  11.391  10.163  0.0429 -0.0142 -0.0328
  248loPI    C3 3955  12.128  11.736  10.231  0.0495 -0.0016 -0.0779
  248loPI   PO4 3956  12.668  11.679   9.941 -0.0518 -0.0194  0.0448
  248loPI   GL1 3957  12.897  11.660   9.559 -0.2910 -0.0211  0.1710
  248loPI   GL2 3958  13.239  11.642   9.351  0.4432 -0.1819 -0.0385
  248loPI   C1A 3959  12.807  11.703   9.132 -0.0788 -0.0238 -0.0588
  248loPI   C2A 3960  12.757  11.915   8.740 -0.0227 -0.1494 -0.2241
  248loPI   C3A 3961  12.960  12.059   8.337  0.0506  0.1403 -0.3285
  248loPI   C4A 3962  13.225  11.927   7.983 -0.3379 -0.1604  0.1728
  248loPI   C5A 3963  13.231  11.947   7.579 -0.0302  0.2229 -0.0524
  248loPI   C6A 3964  13.401  12.160   7.235 -0.0041  0.1816 -0.0010
  248loPI   C1B 3965  13.144  11.511   8.879  0.0081 -0.0156 -0.2239
  248loPI   C2B 3966  13.236  11.534   8.430  0.2332 -0.0971  0.0168
  248loPI   C3B 3967  13.461  11.516   8.098 -0.2086  0.1101 -0.1078
  248loPI   C4B 3968  13.526  11.420   7.671  0.1545  0.3157  0.1518
  249loPI    C1 3969  10.509  10.194  10.201 -0.2404 -0.1786  0.1384
  249loPI    C2 3970  10.328  10.550  10.195  0.0263 -0.0413  0.0751
  249loPI    C3 3971  10.499  10.418  10.531 -0.1083 -0.1295  0.1098
  249loPI   PO4 3972  10.365  10.108   9.982 -0.1136 -0.0454  0.3052
  249loPI   GL1 3973  10.307  10.217   9.627 -0.1199  0.2883 -0.0077
  249loPI   GL2 3974  10.015  10.193   9.420  0.1327  0.0140 -0.1192
  249loPI   C1A 3975  10.477  10.034   9.312  0.0055 -0.5115  0.2503
  249loPI   C2A 3976  10.352  10.021   8.853  0.1045  0.0974  0.1564
  249loPI   C3A 3977  10.244   9.644   8.654  0.1316  0.0216 -0.1632
  249loPI   C4A 3978  10.151   9.404   8.198 -0.0513 -0.0556  0.0674
  249loPI   C5A 3979   9.860   9.344   7.824  0.3661 -0.1164 -0.1572
  249loPI   C6A 3980   9.893   9.144   7.449  0.3469 -0.0679 -0.0780
  249loPI   C1B 3981  10.064  10.404   9.077 -0.0658 -0.3698 -0.1399
  249loPI   C2B 3982  10.035  10.606   8.670 -0.0161 -0.0379 -0.1941
  249loPI   C3B 3983  10.084  10.576   8.248  0.3564 -0.0598  0.0355
  249loPI   C4B 3984  10.246  10.478   7.902  0.0251 -0.1574 -0.0029
  250loPI    C1 3985  15.440   8.701  10.142 -0.0058  0.1017  0.0403
  250loPI    C2 3986  15.829   8.728  10.232 -0.0081  0.2303  0.0129
  250loPI    C3 3987  15.555   8.733  10.523  0.0118  0.1140  0.0340
  250loPI   PO4 3988  15.493   8.862   9.834  0.3013 -0.0955 -0.3617
  250loPI   GL1 3989  15.303   8.984   9.481  0.0605 -0.0722 -0.1449
  250loPI   GL2 3990  14.922   9.036   9.590  0.2050  0.0404  0.1239
  250loPI   C1A 3991  15.260   8.801   9.113 -0.0306  0.2882 -0.0404
  250loPI   C2A 3992  15.217   8.632   8.798  0.0836 -0.1184 -0.2120
  250loPI   C3A 3993  15.145   8.582   8.440 -0.2631 -0.1864 -0.1726
  250loPI   C4A 3994  15.465   8.578   7.882  0.3747 -0.0306  0.2415
  250loPI   C5A 3995  15.524   8.303   7.449 -0.2660 -0.2471  0.0793
  250loPI   C6A 3996  15.711   8.252   7.099  0.0184 -0.1128 -0.1082
  250loPI   C1B 3997  14.846   9.080   9.079  0.0468 -0.0647  0.0285
  250loPI   C2B 3998  14.956   9.018   8.674  0.0423 -0.1870 -0.0134
  250loPI   C3B 3999  15.083   9.088   8.219  0.1482  0.2104 -0.1593
  250loPI   C4B 4000  15.144   8.917   7.873 -0.0196  0.3087 -0.1809
  251loPI    C1 4001   4.717   0.055  10.809  0.1775  0.1176  0.0390
  251loPI    C2 4002   4.620  -0.299  10.968  0.1348  0.0723 -0.0871
  251loPI    C3 4003   4.364   0.008  10.991  0.1283  0.0655 -0.0689
  251loPI   PO4 4004   4.796  -0.087  10.513 -0.2351  0.5205 -0.1434
  251loPI   GL1 4005   4.900  -0.039  10.070  0.0721  0.1243 -0.3680
  251loPI   GL2 4006   4.662   0.074   9.970 -0.2483 -0.1993 -0.0723
  251loPI   C1A 4007   5.124  -0.169   9.675 -0.3248  0.4475 -0.0432
  251loPI   C2A 4008   5.285  -0.269   9.207  0.0758 -0.1586 -0.1920
  251loPI   C3A 4009   5.245  -0.298   8.693 -0.0162 -0.1256 -0.4341
  251loPI   C4A 4010   5.377  -0.163   8.234  0.2677  0.0975  0.2364
  251loPI   C5A 4011   5.555  -0.014   7.813 -0.4709 -0.3707  0.1117
  251loPI   C6A 4012   6.113  -0.182   7.778 -0.0007  0.0637  0.0494
  251loPI   C1B 4013   4.760   0.188   9.624 -0.0072 -0.2887 -0.0327
  251loPI   C2B 4014   4.853   0.089   9.215  0.2660  0.0235  0.2203
  251loPI   C3B 4015   4.917   0.011   8.856 -0.0084 -0.0411  0.2903
  251loPI   C4B 4016   4.932   0.054   8.346 -0.1392  0.0492 -0.1622
  252loPI    C1 4017   9.160  14.437   9.987  0.3984  0.0961  0.0360
  252loPI    C2 4018   9.171  14.657  10.321  0.0399 -0.0703  0.1631
  252loPI    C3 4019   9.383  14.319  10.298 -0.0649 -0.1448  0.2866
  252loPI   PO4 4020   9.181  14.555   9.728  0.1542  0.2622 -0.0876
  252loPI   GL1 4021   9.078  14.390   9.313  0.1224  0.1709  0.1894
  252loPI   GL2 4022   9.371  14.287   9.153 -0.1646  0.3083  0.4256
  252loPI   C1A 4023   8.894  14.460   8.896  0.0501 -0.0014 -0.3168
  252loPI   C2A 4024   8.925  14.360   8.406 -0.1246 -0.0185 -0.0259
  252loPI   C3A 4025   9.127  14.471   7.981 -0.2020 -0.2412 -0.1428
  252loPI   C4A 4026   9.032  14.280   7.625  0.1841 -0.2510  0.1815
  252loPI   C5A 4027   9.018  14.176   7.241  0.0762  0.0655  0.2841
  252loPI   C6A 4028   9.013  13.963   6.892 -0.0112  0.0608  0.0533
  252loPI   C1B 4029   9.296  14.196   8.699 -0.0327 -0.1830  0.2230
  252loPI   C2B 4030   9.381  14.183   8.328  0.2792 -0.0769  0.2971
  252loPI   C3B 4031   9.271  13.930   7.932  0.0580 -0.0145 -0.0774
  252loPI   C4B 4032   8.928  13.767   7.625 -0.0773 -0.0625 -0.0048
  253loPI    C1 4033   8.600  12.044  10.354  0.1183  0.0686 -0.0730
  253loPI    C2 4034   8.225  12.010  10.489  0.1393  0.1152 -0.0029
  253loPI    C3 4035   8.524  12.088  10.744  0.2354 -0.1885 -0.0187
  253loPI   PO4 4036   8.576  12.229  10.131  0.3803 -0.2960 -0.4209
  253loPI   GL1 4037   8.557  12.480   9.651  0.0138  0.2684  0.0166
  253loPI   GL2 4038   8.749  12.172   9.446 -0.0910 -0.0106  0.0735
  253loPI   C1A 4039   8.677  12.803   9.358  0.1056 -0.0409  0.0475
  253loPI   C2A 4040   8.751  12.787   8.905  0.1460  0.3133  0.1415
  253loPI   C3A 4041   8.803  12.978   8.563  0.3843 -0.0378  0.2004
  253loPI   C4A 4042   8.957  13.103   8.105 -0.4500  0.5180  0.1133
  253loPI   C5A 4043   9.199  12.855   7.794 -0.0172 -0.0880  0.1498
  253loPI   C6A 4044   9.292  12.948   7.376 -0.1452 -0.1932 -0.1373
  253loPI   C1B 4045   8.514  12.386   9.100  0.0216 -0.0182 -0.1049
  253loPI   C2B 4046   8.454  12.533   8.628 -0.2234 -0.0074 -0.1152
  253loPI   C3B 4047   8.313  12.478   8.180  0.1280 -0.1270  0.0549
  253loPI   C4B 4048   8.363  12.348   7.742  0.4494 -0.1103 -0.5683
  254loPI    C1 4049   2.269  12.978  10.221  0.1083 -0.0449  0.1607
  254loPI    C2 4050   2.332  13.277  10.479 -0.3298 -0.0125  0.2369
  254loPI    C3 4051   2.530  12.933  10.521 -0.0483  0.1582  0.3312
  254loPI   PO4 4052   2.305  13.045   9.933 -0.1576  0.2825 -0.1001
  254loPI   GL1 4053   2.349  13.147   9.576 -0.1130  0.3174  0.1107
  254loPI   GL2 4054   2.215  12.721   9.552  0.0061 -0.3402  0.1787
  254loPI   C1A 4055   2.528  13.094   9.025 -0.2046  0.0546  0.0877
  254loPI   C2A 4056   2.611  12.892   8.596 -0.2209 -0.3745 -0.0431
  254loPI   C3A 4057   2.897  12.695   8.223 -0.1497 -0.1281 -0.2892
  254loPI   C4A 4058   3.249  12.701   7.859  0.2542  0.0273 -0.0134
  254loPI   C5A 4059   3.416  12.490   7.504 -0.1529  0.2666 -0.1782
  254loPI   C6A 4060   3.774  12.487   7.214 -0.2166  0.0311  0.3087
  254loPI   C1B 4061   2.518  12.675   9.249  0.0405 -0.1813 -0.1275
  254loPI   C2B 4062   2.818  12.508   8.977 -0.1607 -0.1381  0.2398
  254loPI   C3B 4063   2.911  12.380   8.603 -0.0603 -0.1498  0.2456
  254loPI   C4B 4064   3.214  12.312   8.319  0.0529 -0.2643 -0.0957
  255loPI    C1 4065  16.360   9.000  10.268  0.1199 -0.2487  0.0281
  255loPI    C2 4066  16.699   9.191  10.360  0.1916 -0.3157 -0.0950
  255loPI    C3 4067  16.404   9.168  10.629  0.2042 -0.0825 -0.0583
  255loPI   PO4 4068  16.342   9.104   9.962  0.0529 -0.2131 -0.4439
  255loPI   GL1 4069  16.453   8.865   9.571  0.0098 -0.1484 -0.0639
  255loPI   GL2 4070  16.760   8.763   9.567 -0.0376 -0.1021  0.2335
  255loPI   C1A 4071  16.391   8.974   9.131  0.1618  0.2881 -0.1156
  255loPI   C2A 4072  16.204   9.113   8.691 -0.3157  0.0489 -0.2139
  255loPI   C3A 4073  16.292   9.423   8.308  0.2813 -0.1261 -0.1226
  255loPI   C4A 4074  16.639   9.627   8.186 -0.2162 -0.1000  0.2454
  255loPI   C5A 4075  16.682   9.889   7.774 -0.1267  0.0910 -0.3788
  255loPI   C6A 4076  16.434   9.929   7.494 -0.1663  0.2308  0.0481
  255loPI   C1B 4077  16.814   8.788   9.179 -0.0373 -0.1542  0.0730
  255loPI   C2B 4078  16.686   8.813   8.737  0.0263 -0.1910  0.1684
  255loPI   C3B 4079  16.702   8.581   8.338 -0.0980 -0.3204  0.0670
  255loPI   C4B 4080  16.770   8.307   8.042 -0.5697 -0.0278 -0.1680
  256loPI    C1 4081   4.174  17.004  10.412  0.0664 -0.1572 -0.2259
  256loPI    C2 4082   4.544  16.866  10.479  0.0948 -0.1178 -0.2994
  256loPI    C3 4083   4.233  16.713  10.680  0.1757 -0.0124 -0.0904
  256loPI   PO4 4084   4.246  17.131  10.130  0.1050  0.1981 -0.1734
  256loPI   GL1 4085   4.043  16.998   9.728  0.0108 -0.1635  0.3739
  256loPI   GL2 4086   3.972  16.691   9.759 -0.4000 -0.2557 -0.1443
  256loPI   C1A 4087   3.969  17.132   9.309  0.2413  0.1877  0.1638
  256loPI   C2A 4088   4.108  16.993   8.975  0.2318  0.2125  0.0646
  256loPI   C3A 4089   4.373  17.004   8.567  0.0554  0.1134  0.3747
  256loPI   C4A 4090   4.583  17.049   8.203  0.2169  0.0616  0.1329
  256loPI   C5A 4091   4.977  16.821   8.017 -0.0479 -0.0784 -0.1429
  256loPI   C6A 4092   5.348  16.958   7.776  0.1423 -0.0487  0.1386
  256loPI   C1B 4093   4.095  16.584   9.393 -0.0299 -0.0729  0.4401
  256loPI   C2B 4094   4.254  16.382   9.055  0.4566 -0.2652 -0.0951
  256loPI   C3B 4095   4.331  16.466   8.676  0.0391 -0.2755 -0.0015
  256loPI   C4B 4096   4.435  16.508   8.286 -0.0147  0.0132  0.0059
  257loPI    C1 4097   9.871  11.556  10.367  0.1274 -0.4217 -0.0702
  257loPI    C2 4098   9.667  11.457  10.696  0.0062 -0.0279 -0.0212
  257loPI    C3 4099  10.046  11.581  10.726 -0.0004 -0.0049 -0.0319
  257loPI   PO4 4100   9.768  11.438  10.172  0.0774  0.1552  0.2534
  257loPI   GL1 4101   9.803  11.326   9.775 -0.1448 -0.0471 -0.2634
  257loPI   GL2 4102   9.952  11.190   9.603  0.1589  0.1167 -0.0940
  257loPI   C1A 4103   9.461  11.400   9.523  0.0375 -0.1890 -0.0948
  257loPI   C2A 4104   9.348  11.392   8.992 -0.2069 -0.3404 -0.4757
  257loPI   C3A 4105   9.282  11.398   8.596 -0.0149 -0.2024 -0.2229
  257loPI   C4A 4106   9.160  11.030   8.328  0.2663 -0.3668  0.3537
  257loPI   C5A 4107   9.011  11.015   7.919 -0.1096  0.1460  0.0021
  257loPI   C6A 4108   8.966  10.944   7.501 -0.0923  0.0297 -0.3669
  257loPI   C1B 4109   9.765  11.222   9.204 -0.2252 -0.0567  0.4235
  257loPI   C2B 4110   9.600  11.003   8.798  0.1601 -0.0832  0.2474
  257loPI   C3B 4111   9.638  10.802   8.439 -0.1969  0.1111  0.2934
  257loPI   C4B 4112   9.870  10.912   7.998 -0.0981 -0.2693 -0.0649
  258loPI    C1 4113  16.669   2.398  10.129  0.1145 -0.2744  0.1826
  258loPI    C2 4114  16.397   2.114  10.056  0.0651 -0.1550 -0.1101
  258loPI    C3 4115  16.695   2.043  10.312 -0.2256 -0.2955  0.1976
  258loPI   PO4 4116  16.675   2.545   9.841  0.0543  0.0289  0.1057
  258loPI   GL1 4117  16.811   2.375   9.407  0.3641 -0.0783 -0.0044
  258loPI   GL2 4118  16.658   2.598   9.204  0.0804 -0.0491 -0.0344
  258loPI   C1A 4119  16.803   2.000   9.103 -0.3676  0.2420  0.0946
  258loPI   C2A 4120  16.754   1.741   8.748  0.5430 -0.0474  0.1907
  258loPI   C3A 4121  16.635   1.663   8.339  0.0381 -0.1498 -0.3729
  258loPI   C4A 4122  16.433   1.875   8.035 -0.1256 -0.0000  0.0617
  258loPI   C5A 4123  16.340   2.261   7.737  0.0443  0.3495  0.0861
  258loPI   C6A 4124  16.215   2.668   7.659 -0.2506 -0.2457  0.4669
  258loPI   C1B 4125  16.360   2.306   8.934 -0.1202 -0.3012  0.1714
  258loPI   C2B 4126  16.490   2.099   8.522  0.1450 -0.0873 -0.1513
  258loPI   C3B 4127  16.608   2.379   8.120 -0.0257 -0.0235  0.2710
  258loPI   C4B 4128  16.801   2.455   7.773  0.2095  0.0066  0.0475
  259loPI    C1 4129   0.478   1.215   9.607 -0.0123  0.2470 -0.3281
  259loPI    C2 4130   0.661   1.033   9.302  0.1562 -0.2850  0.0748
  259loPI    C3 4131   0.266   0.993   9.350  0.0849  0.0220 -0.2170
  259loPI   PO4 4132   0.550   1.493   9.562 -0.1967 -0.0820  0.0156
  259loPI   GL1 4133   0.723   1.618   9.133  0.0156 -0.1090 -0.1048
  259loPI   GL2 4134   0.621   1.402   9.003  0.0102 -0.4252 -0.0163
  259loPI   C1A 4135   0.842   1.979   9.004  0.0575 -0.2710 -0.2971
  259loPI   C2A 4136   0.907   2.075   8.577 -0.0543 -0.2054  0.1176
  259loPI   C3A 4137   0.891   2.094   8.139  0.3148 -0.4116 -0.1325
  259loPI   C4A 4138   0.692   2.113   7.709 -0.1739  0.1360 -0.0991
  259loPI   C5A 4139   0.659   2.004   7.332  0.3187  0.3240  0.4467
  259loPI   C6A 4140   0.558   2.231   7.083  0.0066 -0.1345 -0.0729
  259loPI   C1B 4141   0.817   1.505   8.578 -0.3359 -0.2832  0.0065
  259loPI   C2B 4142   0.842   1.527   8.101 -0.2455  0.1831  0.1842
  259loPI   C3B 4143   0.906   1.694   7.850 -0.1221 -0.0910 -0.0000
  259loPI   C4B 4144   1.123   1.824   7.418 -0.1480 -0.2659 -0.2332
  260loPI    C1 4145   1.410   4.027  10.181 -0.0316 -0.1083 -0.0668
  260loPI    C2 4146   1.687   3.746  10.110  0.0219 -0.1096  0.1404
  260loPI    C3 4147   1.720   3.983  10.431 -0.0312  0.1248 -0.0245
  260loPI   PO4 4148   1.371   4.102   9.924 -0.4227 -0.0035 -0.2273
  260loPI   GL1 4149   1.087   3.965   9.704 -0.2041  0.1582 -0.0954
  260loPI   GL2 4150   0.853   3.699   9.660 -0.3018 -0.1548  0.3164
  260loPI   C1A 4151   0.928   4.162   9.360  0.0946 -0.0720 -0.0521
  260loPI   C2A 4152   0.957   4.217   8.962  0.1397  0.1923 -0.1813
  260loPI   C3A 4153   0.896   4.137   8.538 -0.2643 -0.1350 -0.2558
  260loPI   C4A 4154   0.942   4.060   8.104  0.0645  0.1955  0.2392
  260loPI   C5A 4155   1.003   4.154   7.683  0.1364  0.0559  0.3373
  260loPI   C6A 4156   1.191   4.413   7.443 -0.0754  0.0892  0.1218
  260loPI   C1B 4157   0.976   3.681   9.237  0.1118  0.1069 -0.0790
  260loPI   C2B 4158   0.906   3.651   8.775 -0.0843 -0.0296  0.0957
  260loPI   C3B 4159   0.966   3.661   8.372  0.1262 -0.0561  0.0891
  260loPI   C4B 4160   1.130   3.614   7.950  0.3748 -0.0787  0.2537
  261loPI    C1 4161  15.705   5.131   9.817  0.1094 -0.0088  0.0359
  261loPI    C2 4162  15.378   4.909   9.876  0.0495  0.0456 -0.0870
  261loPI    C3 4163  15.616   5.001  10.184  0.0448 -0.1410 -0.0261
  261loPI   PO4 4164  15.650   5.268   9.641  0.0137 -0.1173 -0.0326
  261loPI   GL1 4165  15.555   5.510   9.299 -0.0683  0.2296 -0.0618
  261loPI   GL2 4166  15.889   5.392   9.231  0.1476  0.2432  0.1385
  261loPI   C1A 4167  15.485   5.565   8.750 -0.1385 -0.0419  0.2981
  261loPI   C2A 4168  15.643   5.736   8.379  0.0269 -0.1321 -0.1294
  261loPI   C3A 4169  15.620   5.917   7.998  0.0555 -0.1151  0.2588
  261loPI   C4A 4170  15.978   5.774   7.710 -0.0660  0.1990  0.0111
  261loPI   C5A 4171  15.997   5.764   7.371 -0.0723  0.3242  0.1311
  261loPI   C6A 4172  16.241   5.609   7.045  0.1346  0.1379  0.1231
  261loPI   C1B 4173  15.918   5.343   8.818  0.0451 -0.0023 -0.0618
  261loPI   C2B 4174  15.773   5.245   8.406 -0.1033 -0.1330 -0.0460
  261loPI   C3B 4175  15.379   5.213   8.194 -0.2305  0.1407 -0.2984
  261loPI   C4B 4176  15.050   5.545   8.089  0.3379  0.2174  0.1138
  262loPI    C1 4177  12.563   5.504  10.655  0.1533 -0.0579 -0.2713
  262loPI    C2 4178  12.859   5.615  10.900  0.0494 -0.1014 -0.1250
  262loPI    C3 4179  12.688   5.256  10.943 -0.1208 -0.0201 -0.1161
  262loPI   PO4 4180  12.558   5.615  10.457  0.2585  0.0060  0.1521
  262loPI   GL1 4181  12.321   5.539  10.076 -0.2444  0.4408  0.1931
  262loPI   GL2 4182  12.575   5.450   9.920 -0.1502 -0.1266  0.0264
  262loPI   C1A 4183  12.026   5.449   9.741  0.3354  0.2245 -0.0892
  262loPI   C2A 4184  11.987   5.438   9.262 -0.0117  0.0317 -0.1238
  262loPI   C3A 4185  11.945   5.392   8.848  0.4097  0.3297  0.0158
  262loPI   C4A 4186  11.906   5.416   8.384  0.0750  0.1102  0.1346
  262loPI   C5A 4187  11.628   5.272   7.984  0.0428  0.1168  0.2593
  262loPI   C6A 4188  11.355   5.256   7.615  0.4569  0.0201  0.3414
  262loPI   C1B 4189  12.535   5.285   9.423  0.0380  0.1763  0.0817
  262loPI   C2B 4190  12.435   5.254   8.987 -0.1566 -0.0816 -0.1511
  262loPI   C3B 4191  12.385   5.157   8.589 -0.0679 -0.3514  0.0033
  262loPI   C4B 4192  12.383   5.263   8.133  0.1211  0.1619  0.1347
  263loPI    C1 4193   3.564   5.026  10.508  0.1695  0.0276 -0.3492
  263loPI    C2 4194   3.942   5.128  10.593  0.1989 -0.0091 -0.4347
  263loPI    C3 4195   3.845   4.743  10.541  0.0849 -0.0294 -0.0951
  263loPI   PO4 4196   3.530   5.168  10.314 -0.0125 -0.0931  0.1890
  263loPI   GL1 4197   3.703   4.839  10.052 -0.3471  0.0502 -0.3453
  263loPI   GL2 4198   3.938   5.018   9.956 -0.1716  0.3378 -0.2488
  263loPI   C1A 4199   3.556   4.648   9.754  0.2450 -0.0030 -0.1489
  263loPI   C2A 4200   3.535   4.619   9.409  0.1201  0.1177 -0.2080
  263loPI   C3A 4201   3.722   4.550   8.994  0.1410  0.2715  0.0572
  263loPI   C4A 4202   3.643   4.518   8.513 -0.0357 -0.1054 -0.1877
  263loPI   C5A 4203   3.693   4.340   8.113 -0.2659  0.1852 -0.1682
  263loPI   C6A 4204   4.056   4.061   8.007  0.0214 -0.0504  0.1281
  263loPI   C1B 4205   3.981   4.909   9.562 -0.2875 -0.1474 -0.0732
  263loPI   C2B 4206   4.101   4.885   9.130  0.1225  0.2290 -0.2979
  263loPI   C3B 4207   4.051   4.826   8.691 -0.0757  0.0473  0.2187
  263loPI   C4B 4208   4.087   4.701   8.247  0.1135 -0.1169 -0.3293
  264loPI    C1 4209  14.047   1.882  10.263 -0.0224  0.0796  0.0596
  264loPI    C2 4210  14.308   2.148  10.408  0.0136 -0.0527  0.2404
  264loPI    C3 4211  14.043   1.975  10.652 -0.1591 -0.0155  0.0814
  264loPI   PO4 4212  13.968   1.956   9.998  0.1847 -0.2683  0.2667
  264loPI   GL1 4213  14.025   1.677   9.650  0.3677 -0.0159  0.0521
  264loPI   GL2 4214  13.708   1.736   9.589  0.0079 -0.1962 -0.1450
  264loPI   C1A 4215  14.000   1.343   9.346 -0.2488 -0.0690  0.0308
  264loPI   C2A 4216  13.845   1.168   8.921  0.1831 -0.1881  0.1401
  264loPI   C3A 4217  13.776   1.036   8.442 -0.3603 -0.4837  0.1671
  264loPI   C4A 4218  13.783   1.050   7.984 -0.2051 -0.0312  0.0411
  264loPI   C5A 4219  13.720   1.122   7.563 -0.0597  0.1086  0.1525
  264loPI   C6A 4220  13.372   1.046   7.084 -0.0362 -0.0148  0.1799
  264loPI   C1B 4221  13.785   1.715   9.161 -0.2767  0.1946  0.3207
  264loPI   C2B 4222  13.763   1.612   8.717 -0.2846 -0.0612  0.0691
  264loPI   C3B 4223  13.696   1.522   8.305 -0.1696 -0.1800  0.2461
  264loPI   C4B 4224  13.685   1.520   7.921  0.0416 -0.2254  0.0310
  265loPI    C1 4225   0.113   8.691  10.545  0.0536 -0.0129 -0.1060
  265loPI    C2 4226  -0.128   8.638  10.860 -0.0801 -0.0218 -0.2088
  265loPI    C3 4227  -0.082   9.003  10.701 -0.1070 -0.0378 -0.2538
  265loPI   PO4 4228   0.046   8.553  10.328  0.0919  0.0302  0.4239
  265loPI   GL1 4229  -0.056   8.763   9.811 -0.1683  0.0017 -0.1195
  265loPI   GL2 4230  -0.259   8.813   9.540  0.1614  0.0450  0.0427
  265loPI   C1A 4231   0.146   9.066   9.525  0.0968  0.1494 -0.1901
  265loPI   C2A 4232   0.296   9.027   9.195  0.0912 -0.0803 -0.0076
  265loPI   C3A 4233   0.168   8.915   8.866 -0.1715  0.1977  0.4495
  265loPI   C4A 4234   0.162   9.149   8.508  0.2222 -0.0450 -0.0693
  265loPI   C5A 4235   0.294   9.089   8.088 -0.0427  0.2192 -0.2115
  265loPI   C6A 4236   0.102   9.205   7.784 -0.2729 -0.0226 -0.3166
  265loPI   C1B 4237  -0.316   8.942   9.068 -0.1573 -0.2718 -0.0602
  265loPI   C2B 4238  -0.275   8.902   8.662 -0.0044 -0.1978 -0.0666
  265loPI   C3B 4239  -0.291   9.061   8.353 -0.0251 -0.0210  0.0564
  265loPI   C4B 4240  -0.142   9.396   8.208  0.0670 -0.2910  0.2046
  266loPI    C1 4241   8.323   2.307  10.868 -0.0719  0.0512  0.0573
  266loPI    C2 4242   7.981   2.350  10.666 -0.1110  0.0332  0.1195
  266loPI    C3 4243   8.025   2.524  11.023 -0.0158  0.1234  0.0642
  266loPI   PO4 4244   8.480   2.211  10.679  0.0195  0.0034 -0.0099
  266loPI   GL1 4245   8.724   2.320  10.260  0.0500 -0.3593  0.0297
  266loPI   GL2 4246   9.071   2.364  10.449  0.2618  0.1885 -0.0859
  266loPI   C1A 4247   8.826   2.419   9.860 -0.0524 -0.2025  0.2508
  266loPI   C2A 4248   8.719   2.515   9.513  0.0294  0.2293 -0.3980
  266loPI   C3A 4249   8.681   2.456   9.036  0.3553  0.0915  0.2168
  266loPI   C4A 4250   8.622   2.481   8.566 -0.0366  0.0115 -0.0047
  266loPI   C5A 4251   8.915   2.399   8.199 -0.1984  0.0709 -0.2965
  266loPI   C6A 4252   9.359   2.315   7.800 -0.2600  0.0398 -0.3606
  266loPI   C1B 4253   9.341   2.222  10.112  0.0155  0.0988 -0.1914
  266loPI   C2B 4254   9.302   2.263   9.615  0.0918  0.0553 -0.1732
  266loPI   C3B 4255   9.140   2.259   9.186  0.0054  0.0182 -0.0125
  266loPI   C4B 4256   9.076   2.273   8.777  0.2332  0.2072 -0.0390
  267loPI    C1 4257   2.967   0.758  10.374 -0.0836  0.3406 -0.0843
  267loPI    C2 4258   2.600   0.803  10.528 -0.0637  0.1269  0.0294
  267loPI    C3 4259   2.918   0.780  10.770 -0.0137 -0.0409 -0.0500
  267loPI   PO4 4260   3.028   0.847  10.116 -0.4262  0.4037  0.0256
  267loPI   GL1 4261   3.296   1.056   9.750 -0.1756  0.0204 -0.0442
  267loPI   GL2 4262   3.630   1.042   9.770  0.2537 -0.2863 -0.2381
  267loPI   C1A 4263   3.141   1.190   9.334  0.0196 -0.0715  0.4248
  267loPI   C2A 4264   3.179   1.184   8.920 -0.1186  0.0597 -0.0988
  267loPI   C3A 4265   3.147   1.143   8.523 -0.3355  0.0388 -0.2360
  267loPI   C4A 4266   3.011   1.106   8.076 -0.0581 -0.1737 -0.0229
  267loPI   C5A 4267   3.258   1.082   7.637  0.0319  0.4459  0.2851
  267loPI   C6A 4268   3.694   0.930   7.557 -0.3164 -0.3287  0.3165
  267loPI   C1B 4269   3.577   1.016   9.297  0.0921  0.0719 -0.1760
  267loPI   C2B 4270   3.604   0.841   8.979  0.3144  0.2169 -0.0219
  267loPI   C3B 4271   3.568   0.829   8.606 -0.0481 -0.2842 -0.1785
  267loPI   C4B 4272   3.575   0.868   8.100  0.1915 -0.1464 -0.3654
  268loPI    C1 4273  18.246  11.239  10.071  0.1084 -0.1951 -0.0547
  268loPI    C2 4274  17.936  11.247  10.324 -0.1818 -0.0566 -0.4065
  268loPI    C3 4275  18.267  11.455  10.407 -0.1793 -0.2044 -0.0276
  268loPI   PO4 4276  18.240  11.227   9.769  0.0381 -0.1014  0.2626
  268loPI   GL1 4277  18.369  11.114   9.466  0.1030 -0.0801  0.0877
  268loPI   GL2 4278  18.621  11.393   9.391  0.0850 -0.1081  0.2495
  268loPI   C1A 4279  18.404  10.995   9.101 -0.0464  0.4588 -0.0149
  268loPI   C2A 4280  18.389  10.885   8.681  0.2119  0.1309 -0.0712
  268loPI   C3A 4281  18.329  10.802   8.367  0.1129  0.2130  0.1683
  268loPI   C4A 4282  18.178  10.840   7.916 -0.0720 -0.1223 -0.2353
  268loPI   C5A 4283  18.151  11.041   7.480  0.0209 -0.0794  0.1136
  268loPI   C6A 4284  18.295  11.370   7.096 -0.0754  0.1833  0.0870
  268loPI   C1B 4285  18.798  11.305   8.939 -0.0145 -0.1091 -0.0822
  268loPI   C2B 4286  18.846  11.294   8.555  0.0333  0.0361  0.2168
  268loPI   C3B 4287  18.915  11.375   8.139 -0.0416  0.0018 -0.1247
  268loPI   C4B 4288  18.991  11.372   7.752 -0.0285 -0.2958  0.0881
  269loPI    C1 4289   5.463  11.744  10.810  0.0592  0.0886 -0.0176
  269loPI    C2 4290   5.842  11.686  10.700  0.0293 -0.3077  0.0728
  269loPI    C3 4291   5.754  11.964  10.973  0.1943  0.1201 -0.2964
  269loPI   PO4 4292   5.368  11.806  10.553  0.1763  0.0899 -0.0449
  269loPI   GL1 4293   5.536  11.979  10.069  0.0124 -0.3599  0.0297
  269loPI   GL2 4294   5.250  11.812  10.078  0.0785  0.0470 -0.0748
  269loPI   C1A 4295   5.728  11.864   9.755  0.0352  0.2658 -0.2473
  269loPI   C2A 4296   5.750  11.927   9.282  0.1921 -0.0671  0.0739
  269loPI   C3A 4297   5.787  11.943   8.875 -0.0150 -0.2405  0.2371
  269loPI   C4A 4298   5.822  12.098   8.377 -0.0119 -0.1626 -0.2339
  269loPI   C5A 4299   5.966  12.457   8.208  0.1315 -0.0581  0.1043
  269loPI   C6A 4300   6.041  12.814   8.204  0.1993  0.0785  0.0807
  269loPI   C1B 4301   5.257  12.013   9.679 -0.0469  0.0141  0.0799
  269loPI   C2B 4302   5.242  11.994   9.209  0.1867  0.0575 -0.4472
  269loPI   C3B 4303   5.258  11.878   8.776  0.0836 -0.0803  0.0134
  269loPI   C4B 4304   5.210  11.491   8.547 -0.1554 -0.1901 -0.0752
  270loPI    C1 4305   5.495  17.055  10.394  0.0355 -0.2170  0.1218
  270loPI    C2 4306   5.213  16.945  10.656  0.0344 -0.2149  0.1215
  270loPI    C3 4307   5.590  17.003  10.779  0.0559 -0.3157  0.1040
  270loPI   PO4 4308   5.479  16.944  10.215 -0.0541  0.0695 -0.0920
  270loPI   GL1 4309   5.611  17.008   9.831  0.2086  0.3822  0.1787
  270loPI   GL2 4310   5.682  16.652   9.852  0.1697  0.2553  0.0236
  270loPI   C1A 4311   5.565  17.197   9.448 -0.1539  0.0576  0.0273
  270loPI   C2A 4312   5.703  17.241   8.951 -0.0720  0.2103  0.0406
  270loPI   C3A 4313   5.779  17.236   8.552  0.1168 -0.4263 -0.2901
  270loPI   C4A 4314   5.881  17.194   8.125  0.0173  0.2979 -0.0431
  270loPI   C5A 4315   6.024  17.056   7.729 -0.1444  0.0603 -0.2081
  270loPI   C6A 4316   5.670  16.786   7.448 -0.0403 -0.0553 -0.1875
  270loPI   C1B 4317   5.721  16.700   9.419 -0.1162  0.1452  0.1288
  270loPI   C2B 4318   5.667  16.711   9.026  0.3591  0.0901 -0.1084
  270loPI   C3B 4319   5.700  16.714   8.625 -0.0852  0.1479  0.0525
  270loPI   C4B 4320   5.783  16.725   8.239  0.0649 -0.0541 -0.0328
  271loPI    C1 4321  14.157  17.446  10.113 -0.2983  0.0522  0.1458
  271loPI    C2 4322  14.487  17.277   9.963 -0.3251  0.2161 -0.1045
  271loPI    C3 4323  14.348  17.162  10.320 -0.1817 -0.0826 -0.1415
  271loPI   PO4 4324  14.051  17.430   9.873  0.1824 -0.0072  0.0503
  271loPI   GL1 4325  13.935  17.664   9.541  0.0072 -0.4404 -0.0295
  271loPI   GL2 4326  14.062  17.947   9.459  0.2160  0.1461 -0.1122
  271loPI   C1A 4327  13.950  17.535   9.133  0.1013 -0.0345 -0.3161
  271loPI   C2A 4328  13.801  17.682   8.783 -0.1750  0.2669 -0.0744
  271loPI   C3A 4329  13.713  17.385   8.498 -0.1637 -0.1050 -0.1898
  271loPI   C4A 4330  13.694  17.348   8.044 -0.0486 -0.0181  0.5991
  271loPI   C5A 4331  13.377  17.399   7.702 -0.1525 -0.1501  0.0664
  271loPI   C6A 4332  13.249  17.813   7.505  0.0644 -0.0459  0.1305
  271loPI   C1B 4333  14.133  18.024   9.039 -0.1101 -0.1520 -0.1645
  271loPI   C2B 4334  14.200  17.989   8.619 -0.0059 -0.0016 -0.3349
  271loPI   C3B 4335  14.451  18.202   8.282  0.0622  0.6505 -0.1089
  271loPI   C4B 4336  14.734  18.384   8.061 -0.2032  0.0050 -0.1719
  272loPI    C1 4337   3.332  17.881  10.380  0.1449 -0.2254 -0.0273
  272loPI    C2 4338   3.199  18.136  10.658  0.1193 -0.1419 -0.1156
  272loPI    C3 4339   3.080  17.755  10.664  0.0061 -0.1068 -0.0959
  272loPI   PO4 4340   3.283  17.939  10.076 -0.2369  0.0552 -0.1322
  272loPI   GL1 4341   3.379  18.012   9.573  0.1889 -0.1827 -0.0361
  272loPI   GL2 4342   3.095  17.894   9.472  0.0051  0.3288  0.1569
  272loPI   C1A 4343   3.463  18.197   9.146 -0.1057  0.1470 -0.1897
  272loPI   C2A 4344   3.452  18.151   8.709 -0.2549  0.5337 -0.1293
  272loPI   C3A 4345   3.574  18.090   8.319 -0.3762  0.1909 -0.0977
  272loPI   C4A 4346   3.458  18.163   7.853  0.0404  0.2915 -0.0039
  272loPI   C5A 4347   3.329  18.168   7.417 -0.2507 -0.0736 -0.0719
  272loPI   C6A 4348   3.027  18.227   7.175  0.2056  0.1665  0.0828
  272loPI   C1B 4349   3.032  17.847   9.080 -0.3279 -0.2142 -0.1643
  272loPI   C2B 4350   3.069  17.885   8.540 -0.3558 -0.3210  0.4253
  272loPI   C3B 4351   3.164  17.807   8.044 -0.3141 -0.1998 -0.1380
  272loPI   C4B 4352   2.923  17.554   7.800 -0.1961 -0.4366 -0.0047
  273loPI    C1 4353   6.782   8.581  10.853 -0.1049 -0.0617  0.0245
  273loPI    C2 4354   6.841   8.391  11.200 -0.1814  0.0052  0.0743
  273loPI    C3 4355   7.142   8.590  11.028 -0.0818 -0.2180 -0.0134
  273loPI   PO4 4356   6.678   8.418  10.708  0.0355 -0.0184 -0.0201
  273loPI   GL1 4357   6.840   8.205  10.389  0.0467 -0.0548 -0.1997
  273loPI   GL2 4358   7.193   8.195  10.424  0.2994 -0.1844  0.2232
  273loPI   C1A 4359   7.085   8.279   9.965  0.0481 -0.1228  0.0258
  273loPI   C2A 4360   7.004   8.094   9.644 -0.2249 -0.1500  0.0054
  273loPI   C3A 4361   7.064   7.954   9.258  0.0103  0.1979  0.0114
  273loPI   C4A 4362   7.210   7.829   8.816 -0.1819 -0.3461 -0.0903
  273loPI   C5A 4363   7.570   7.618   8.554  0.3104 -0.2056 -0.0633
  273loPI   C6A 4364   7.894   7.351   8.463  0.2310  0.0651  0.2548
  273loPI   C1B 4365   7.551   8.245  10.144 -0.1026 -0.1309 -0.2649
  273loPI   C2B 4366   8.020   8.305  10.046 -0.2124 -0.1444  0.0009
  273loPI   C3B 4367   8.119   8.264   9.642  0.0112 -0.0687 -0.4159
  273loPI   C4B 4368   8.317   8.415   9.305 -0.1569 -0.0506  0.1135
  274loPI    C1 4369  17.114   9.398  10.290 -0.0456  0.0559  0.2369
  274loPI    C2 4370  17.295   9.570  10.603 -0.1309  0.2070  0.2045
  274loPI    C3 4371  16.896   9.571  10.578 -0.1349 -0.0493  0.2330
  274loPI   PO4 4372  17.259   9.332  10.008 -0.0640 -0.0492 -0.1182
  274loPI   GL1 4373  17.273   9.221   9.583  0.1303  0.1867 -0.2367
  274loPI   GL2 4374  17.471   8.965   9.493  0.0823 -0.0096  0.2264
  274loPI   C1A 4375  17.569   9.492   9.246  0.1613  0.1283 -0.0667
  274loPI   C2A 4376  17.781   9.830   8.946  0.2735 -0.1821  0.1795
  274loPI   C3A 4377  17.803  10.136   8.591 -0.2791 -0.2359  0.0701
  274loPI   C4A 4378  18.240  10.309   8.346  0.1771 -0.0012 -0.0515
  274loPI   C5A 4379  18.570  10.492   8.032  0.0414  0.2729 -0.0976
  274loPI   C6A 4380  18.827  10.306   7.658 -0.0715  0.0086 -0.1204
  274loPI   C1B 4381  17.441   9.050   9.064 -0.3600  0.0254  0.1009
  274loPI   C2B 4382  17.651   9.371   8.758  0.2581  0.0820  0.0109
  274loPI   C3B 4383  17.551   9.626   8.387  0.0283 -0.1017 -0.2867
  274loPI   C4B 4384  17.720   9.431   8.027 -0.0155  0.2554  0.1880
  275loPI    C1 4385   1.065   4.614  10.373 -0.1071 -0.1316  0.2720
  275loPI    C2 4386   1.325   4.806  10.608 -0.0500  0.0392  0.0728
  275loPI    C3 4387   0.997   4.639  10.766  0.1406 -0.1134  0.3150
  275loPI   PO4 4388   1.337   4.520  10.173 -0.2819  0.0267 -0.1458
  275loPI   GL1 4389   1.382   4.657   9.808 -0.3931  0.1405 -0.3217
  275loPI   GL2 4390   1.527   4.381   9.596  0.1273  0.1432 -0.0754
  275loPI   C1A 4391   1.392   4.844   9.508 -0.0434  0.3572 -0.0444
  275loPI   C2A 4392   1.379   4.890   9.111 -0.1141 -0.2432 -0.2273
  275loPI   C3A 4393   1.451   4.916   8.680  0.1817 -0.4333 -0.1460
  275loPI   C4A 4394   1.443   4.835   8.159  0.4935 -0.1668 -0.0349
  275loPI   C5A 4395   1.447   4.893   7.730  0.2509 -0.0418  0.2162
  275loPI   C6A 4396   1.698   4.600   7.540 -0.2804  0.1604 -0.1231
  275loPI   C1B 4397   1.405   4.344   9.279  0.4850  0.1405  0.0007
  275loPI   C2B 4398   1.413   4.388   8.866 -0.1054  0.3069 -0.0626
  275loPI   C3B 4399   1.407   4.326   8.367 -0.1388  0.3514  0.2285
  275loPI   C4B 4400   1.469   4.274   7.904 -0.0459 -0.1810  0.0098
  276loPI    C1 4401   9.018   5.900  10.741 -0.4296 -0.0300  0.0100
  276loPI    C2 4402   9.111   5.811  11.120 -0.0289 -0.0563 -0.0896
  276loPI    C3 4403   8.851   6.105  11.041  0.1180  0.1570  0.2008
  276loPI   PO4 4404   9.132   5.950  10.639  0.2149 -0.1265 -0.5957
  276loPI   GL1 4405   9.434   5.856  10.260  0.0682  0.0917  0.0474
  276loPI   GL2 4406   9.302   5.587  10.324 -0.0498  0.0495 -0.1222
  276loPI   C1A 4407   9.656   5.907   9.767  0.2110  0.1107  0.0238
  276loPI   C2A 4408   9.734   5.836   9.396  0.1111  0.0607  0.1667
  276loPI   C3A 4409   9.578   5.977   8.942  0.1083 -0.3559  0.2399
  276loPI   C4A 4410   9.413   5.891   8.530  0.2185  0.0455  0.0158
  276loPI   C5A 4411   9.680   5.893   8.244 -0.0761 -0.0592  0.0628
  276loPI   C6A 4412  10.098   5.606   8.225 -0.1617 -0.1569  0.0034
  276loPI   C1B 4413   9.280   5.621   9.877 -0.1077 -0.0353 -0.3659
  276loPI   C2B 4414   9.332   5.536   9.495 -0.0408 -0.0275  0.2210
  276loPI   C3B 4415   9.233   5.703   9.122 -0.0440  0.0397 -0.1462
  276loPI   C4B 4416   9.152   5.448   8.751  0.0628 -0.2551 -0.0836
  277loPI    C1 4417   0.442   5.898  10.427  0.0115  0.0864  0.1560
  277loPI    C2 4418   0.705   5.731  10.677  0.2550  0.1843 -0.0309
  277loPI    C3 4419   0.453   6.011  10.810 -0.1858 -0.3468  0.2957
  277loPI   PO4 4420   0.386   5.712  10.211  0.2769 -0.3252  0.1083
  277loPI   GL1 4421   0.511   5.627   9.805  0.0899  0.0575  0.1971
  277loPI   GL2 4422   0.796   5.515   9.648 -0.0701  0.1287 -0.1964
  277loPI   C1A 4423   0.383   5.524   9.333 -0.0372  0.0625  0.1653
  277loPI   C2A 4424   0.536   5.428   8.842  0.0500 -0.3809 -0.0113
  277loPI   C3A 4425   0.469   5.494   8.455 -0.0422  0.3029 -0.1098
  277loPI   C4A 4426   0.586   5.435   8.101 -0.2208  0.3269 -0.2085
  277loPI   C5A 4427   0.461   5.415   7.675  0.0685  0.0762  0.1257
  277loPI   C6A 4428   0.329   5.202   7.312  0.3555 -0.2629 -0.2586
  277loPI   C1B 4429   0.897   5.551   9.279 -0.3302 -0.1633  0.0656
  277loPI   C2B 4430   0.979   5.740   8.962 -0.2282  0.1332 -0.2864
  277loPI   C3B 4431   1.005   5.691   8.486 -0.0551  0.2229  0.3115
  277loPI   C4B 4432   1.068   5.593   8.075  0.0400 -0.0286 -0.1756
  278loPI    C1 4433   8.045  15.396  10.411  0.0330  0.0906 -0.3690
  278loPI    C2 4434   8.129  15.778  10.496 -0.1701  0.0595 -0.0078
  278loPI    C3 4435   8.255  15.487  10.739 -0.1419 -0.0940 -0.2035
  278loPI   PO4 4436   7.986  15.397  10.120 -0.3020 -0.1352  0.0724
  278loPI   GL1 4437   7.785  15.581   9.764 -0.0021 -0.0651 -0.2240
  278loPI   GL2 4438   7.872  15.187   9.656  0.3546 -0.0723 -0.3333
  278loPI   C1A 4439   7.918  15.724   9.397 -0.0054 -0.4316  0.0411
  278loPI   C2A 4440   8.093  15.789   9.082 -0.2614  0.2706  0.1006
  278loPI   C3A 4441   7.956  16.001   8.715 -0.1351  0.0651 -0.2295
  278loPI   C4A 4442   8.167  16.300   8.483  0.2767 -0.1454  0.1845
  278loPI   C5A 4443   8.418  16.524   8.156  0.1082 -0.1929  0.1245
  278loPI   C6A 4444   8.375  16.784   7.781  0.2276 -0.0028  0.2040
  278loPI   C1B 4445   7.743  15.236   9.253 -0.0480 -0.3977  0.2494
  278loPI   C2B 4446   7.836  15.436   8.816 -0.1797 -0.0979 -0.2822
  278loPI   C3B 4447   8.212  15.591   8.520  0.3196 -0.0384 -0.2307
  278loPI   C4B 4448   8.539  15.837   8.310  0.2990 -0.3565 -0.0668
  279loPI    C1 4449  15.131   3.724   9.726 -0.1097 -0.2858 -0.0805
  279loPI    C2 4450  15.349   4.021   9.882  0.1153 -0.2927 -0.3744
  279loPI    C3 4451  15.172   3.755  10.123 -0.0014  0.0156 -0.1126
  279loPI   PO4 4452  14.952   3.871   9.471  0.4242 -0.0535 -0.0033
  279loPI   GL1 4453  14.995   4.022   9.180  0.1831  0.1447 -0.1076
  279loPI   GL2 4454  14.656   4.065   9.161  0.1415  0.1593 -0.1096
  279loPI   C1A 4455  15.044   4.136   8.815 -0.0357 -0.0783 -0.0768
  279loPI   C2A 4456  14.909   4.278   8.378  0.2499 -0.0427  0.3199
  279loPI   C3A 4457  14.647   4.513   8.112 -0.0155  0.2450  0.0932
  279loPI   C4A 4458  14.624   4.694   7.779 -0.2034  0.1045 -0.0730
  279loPI   C5A 4459  14.916   4.725   7.592  0.2423 -0.1385  0.0362
  279loPI   C6A 4460  15.361   4.728   7.750 -0.1834 -0.1546  0.1501
  279loPI   C1B 4461  14.548   4.301   8.775  0.0996 -0.1382 -0.1099
  279loPI   C2B 4462  14.226   4.384   8.503 -0.0620  0.2102 -0.5317
  279loPI   C3B 4463  14.146   4.580   8.039  0.0179 -0.0388  0.2591
  279loPI   C4B 4464  14.165   4.685   7.596 -0.1680 -0.1426  0.2450
  280loPI    C1 4465   5.009   4.564  10.670  0.1960 -0.1851  0.0507
  280loPI    C2 4466   4.891   4.748  11.004  0.2430  0.1101 -0.0924
  280loPI    C3 4467   5.124   4.425  11.027 -0.1917 -0.1956  0.1759
  280loPI   PO4 4468   4.792   4.571  10.472 -0.2880 -0.1486  0.0466
  280loPI   GL1 4469   4.732   4.506  10.116 -0.1690 -0.0582  0.1368
  280loPI   GL2 4470   5.042   4.826  10.134  0.2880  0.0263 -0.2413
  280loPI   C1A 4471   4.960   4.411   9.754 -0.1166  0.1377  0.0054
  280loPI   C2A 4472   5.028   4.308   9.393 -0.0396  0.1471 -0.1367
  280loPI   C3A 4473   4.958   4.293   8.955 -0.1246 -0.1050 -0.0143
  280loPI   C4A 4474   4.994   4.204   8.575  0.2929 -0.0097  0.1793
  280loPI   C5A 4475   5.079   4.251   8.153  0.1940 -0.1500  0.0379
  280loPI   C6A 4476   5.491   4.532   8.148  0.0935 -0.0615  0.0851
  280loPI   C1B 4477   4.841   4.879   9.718 -0.1741 -0.0319  0.3542
  280loPI   C2B 4478   4.905   4.784   9.381  0.0298 -0.1152 -0.2159
  280loPI   C3B 4479   4.992   4.769   8.910 -0.0786 -0.1079 -0.0609
  280loPI   C4B 4480   5.005   4.687   8.463 -0.0361  0.2390 -0.1793
  281loPI    C1 4481  10.056   5.757  11.254 -0.1334  0.0838  0.0605
  281loPI    C2 4482   9.931   5.436  11.457 -0.0988  0.0073 -0.0380
  281loPI    C3 4483  10.270   5.619  11.562 -0.0818 -0.0312 -0.0259
  281loPI   PO4 4484  10.047   5.557  11.010  0.2552  0.3730 -0.0329
  281loPI   GL1 4485  10.045   5.512  10.554 -0.0326 -0.0261  0.0268
  281loPI   GL2 4486  10.286   5.495  10.415 -0.2666 -0.2085 -0.0758
  281loPI   C1A 4487   9.790   5.507  10.147 -0.2348 -0.2646 -0.0203
  281loPI   C2A 4488   9.776   5.392   9.770  0.1258  0.1418 -0.3328
  281loPI   C3A 4489   9.793   5.339   9.369 -0.2007 -0.0529 -0.1272
  281loPI   C4A 4490   9.684   5.504   8.955  0.1830 -0.3287 -0.1320
  281loPI   C5A 4491   9.653   5.324   8.609  0.2398 -0.2991 -0.0877
  281loPI   C6A 4492   9.622   5.216   8.214 -0.2888 -0.1195 -0.1690
  281loPI   C1B 4493  10.256   5.707   9.981  0.0543 -0.1178  0.0170
  281loPI   C2B 4494  10.152   5.678   9.549 -0.1177  0.2709 -0.2921
  281loPI   C3B 4495  10.115   5.732   9.091  0.1334  0.3038 -0.0138
  281loPI   C4B 4496   9.965   5.818   8.685 -0.0017 -0.1864 -0.0727
  282loPI    C1 4497   7.846  17.251  10.727  0.2617 -0.0106  0.1071
  282loPI    C2 4498   8.064  17.050  10.996 -0.2002 -0.2190  0.3372
  282loPI    C3 4499   7.919  17.412  11.086 -0.1190 -0.1667  0.2596
  282loPI   PO4 4500   7.581  17.118  10.660  0.1145 -0.2543  0.0722
  282loPI   GL1 4501   7.545  17.079  10.200  0.2283  0.2790 -0.1526
  282loPI   GL2 4502   7.530  16.808  10.281  0.1230  0.3277  0.1382
  282loPI   C1A 4503   7.511  17.429   9.999  0.2904 -0.1981  0.3363
  282loPI   C2A 4504   7.416  17.359   9.611  0.0913  0.2348 -0.3187
  282loPI   C3A 4505   7.306  17.382   9.203 -0.0601  0.2464  0.0092
  282loPI   C4A 4506   7.161  17.447   8.781 -0.2876  0.0223 -0.0939
  282loPI   C5A 4507   7.194  17.445   8.340 -0.2045  0.1737  0.1221
  282loPI   C6A 4508   7.185  17.628   7.912 -0.0159 -0.2391  0.0944
  282loPI   C1B 4509   7.844  16.774   9.901 -0.3498 -0.1778 -0.0258
  282loPI   C2B 4510   8.209  16.649   9.750 -0.0807 -0.0964  0.2631
  282loPI   C3B 4511   8.449  16.624   9.365  0.0561 -0.3186 -0.1772
  282loPI   C4B 4512   8.552  16.951   9.007  0.2440  0.2598 -0.3348
  283loPI    C1 4513  15.994   5.525   9.933 -0.2184  0.1574 -0.3430
  283loPI    C2 4514  15.871   5.867  10.100  0.0629  0.0998 -0.0081
  283loPI    C3 4515  15.702   5.521  10.206 -0.1566  0.1215 -0.2770
  283loPI   PO4 4516  15.958   5.677   9.617 -0.1791  0.0362 -0.2173
  283loPI   GL1 4517  15.801   5.994   9.456 -0.1692 -0.3045  0.0944
  283loPI   GL2 4518  15.583   6.217   9.535  0.0878 -0.1137  0.1453
  283loPI   C1A 4519  15.723   5.986   9.051  0.1582  0.0055 -0.2780
  283loPI   C2A 4520  15.620   6.152   8.682  0.2259  0.1326  0.3823
  283loPI   C3A 4521  15.418   6.372   8.295  0.1303  0.0974  0.2378
  283loPI   C4A 4522  15.520   6.544   7.865 -0.0017  0.0471 -0.2569
  283loPI   C5A 4523  15.698   6.471   7.550  0.3435  0.0326  0.3007
  283loPI   C6A 4524  15.599   6.090   7.285 -0.2031 -0.2041 -0.1811
  283loPI   C1B 4525  15.301   6.326   9.171  0.0207 -0.1257 -0.0561
  283loPI   C2B 4526  15.132   6.535   8.828 -0.2586  0.0889 -0.1797
  283loPI   C3B 4527  15.242   6.830   8.593  0.1559 -0.1015  0.0066
  283loPI   C4B 4528  15.467   6.866   8.255  0.2596 -0.1019 -0.0827
  284loPI    C1 4529  10.627   1.204  10.674 -0.1476 -0.0498  0.2776
  284loPI    C2 4530  10.390   0.944  10.863 -0.0252 -0.1632  0.2766
  284loPI    C3 4531  10.774   0.854  10.799  0.0288  0.0359  0.3139
  284loPI   PO4 4532  10.635   1.247  10.386 -0.0185  0.0520 -0.1924
  284loPI   GL1 4533  10.702   1.426  10.074 -0.0212 -0.2256  0.3351
  284loPI   GL2 4534  10.558   1.070   9.881 -0.3492  0.0322  0.1312
  284loPI   C1A 4535  10.654   1.547   9.623 -0.0326  0.1313 -0.1484
  284loPI   C2A 4536  10.610   1.643   9.153  0.1854 -0.2416  0.3408
  284loPI   C3A 4537  10.617   1.643   8.768  0.2012 -0.2155  0.0700
  284loPI   C4A 4538  10.548   1.734   8.325 -0.0123 -0.1862 -0.0134
  284loPI   C5A 4539  10.369   2.127   8.187  0.0630 -0.0421  0.0817
  284loPI   C6A 4540  10.300   2.506   8.150 -0.1314  0.0798  0.2822
  284loPI   C1B 4541  10.652   1.044   9.505  0.2012 -0.0452 -0.0518
  284loPI   C2B 4542  10.681   1.142   9.061 -0.2650  0.0071 -0.5797
  284loPI   C3B 4543  10.637   1.139   8.647  0.0949 -0.1871 -0.3591
  284loPI   C4B 4544  10.663   1.011   8.325 -0.1814  0.2113  0.4725
  285loPI    C1 4545  12.173   2.558  10.459  0.1016  0.1581  0.0856
  285loPI    C2 4546  12.046   2.826  10.727 -0.0125  0.0425  0.1481
  285loPI    C3 4547  11.938   2.860  10.344 -0.2126 -0.0392  0.1957
  285loPI   PO4 4548  12.388   2.545  10.372  0.0960  0.1217 -0.0128
  285loPI   GL1 4549  12.568   2.522   9.956  0.1764 -0.4217 -0.0131
  285loPI   GL2 4550  12.199   2.485   9.897  0.0334  0.0101  0.0133
  285loPI   C1A 4551  12.554   2.438   9.581 -0.1798  0.1982  0.2434
  285loPI   C2A 4552  12.490   2.267   9.257 -0.1253 -0.0664  0.1506
  285loPI   C3A 4553  12.372   2.226   8.817 -0.0487 -0.1228 -0.3112
  285loPI   C4A 4554  12.223   2.371   8.362 -0.1223 -0.1196 -0.0453
  285loPI   C5A 4555  12.210   2.239   7.836  0.0601  0.1602  0.0709
  285loPI   C6A 4556  12.258   1.914   7.460  0.2170  0.0193  0.1785
  285loPI   C1B 4557  11.963   2.634   9.580 -0.0856  0.0767 -0.0595
  285loPI   C2B 4558  11.837   2.464   9.154  0.1619  0.2244  0.3648
  285loPI   C3B 4559  11.919   2.619   8.712  0.2831  0.4185  0.2307
  285loPI   C4B 4560  11.750   2.558   8.308  0.2496 -0.0570  0.0279
  286loPI    C1 4561   2.633  15.358  10.098 -0.0629  0.1825  0.0271
  286loPI    C2 4562   2.291  15.376  10.304 -0.1414 -0.2818 -0.0516
  286loPI    C3 4563   2.594  15.153  10.440  0.1167  0.0860 -0.0089
  286loPI   PO4 4564   2.539  15.208   9.910  0.1751  0.2861 -0.1630
  286loPI   GL1 4565   2.798  14.897   9.583  0.2665  0.1616  0.0861
  286loPI   GL2 4566   3.085  14.969   9.420 -0.4598 -0.1145 -0.3325
  286loPI   C1A 4567   2.682  14.950   9.092 -0.1764  0.2989  0.2422
  286loPI   C2A 4568   2.460  14.994   8.681  0.2131 -0.1313 -0.1528
  286loPI   C3A 4569   2.495  15.198   8.289 -0.3232  0.0143 -0.0404
  286loPI   C4A 4570   2.375  15.079   7.820  0.2800 -0.1441 -0.0957
  286loPI   C5A 4571   2.389  15.020   7.362  0.3121  0.0686  0.2147
  286loPI   C6A 4572   2.465  15.106   7.061 -0.3616 -0.1837 -0.1044
  286loPI   C1B 4573   3.117  14.718   8.987 -0.1447 -0.1723  0.1599
  286loPI   C2B 4574   3.052  14.922   8.589 -0.1526  0.0202  0.2779
  286loPI   C3B 4575   2.993  15.099   8.274  0.0748  0.1029  0.0480
  286loPI   C4B 4576   2.811  14.837   8.009 -0.1012 -0.2853  0.1231
  287loPI    C1 4577   2.781   5.929  10.598 -0.0154  0.1825  0.0244
  287loPI    C2 4578   2.389   5.998  10.632 -0.0198  0.0274  0.3192
  287loPI    C3 4579   2.650   6.220  10.838  0.0631  0.2660 -0.0334
  287loPI   PO4 4580   2.839   5.958  10.400 -0.0263  0.2148 -0.0731
  287loPI   GL1 4581   2.791   5.766  10.132  0.0312 -0.1802  0.0293
  287loPI   GL2 4582   2.577   5.823   9.855 -0.2696  0.1239 -0.4253
  287loPI   C1A 4583   3.076   5.670   9.698  0.0393  0.2216  0.0978
  287loPI   C2A 4584   3.134   5.340   9.366 -0.2001 -0.0229 -0.0394
  287loPI   C3A 4585   3.211   5.390   8.938 -0.4365  0.0640 -0.3710
  287loPI   C4A 4586   3.091   5.343   8.519 -0.1702 -0.2757  0.2045
  287loPI   C5A 4587   3.285   5.486   8.138 -0.1622 -0.2544 -0.2129
  287loPI   C6A 4588   3.275   5.371   7.716 -0.3576  0.4160 -0.3762
  287loPI   C1B 4589   2.700   5.719   9.430  0.0405  0.0230  0.3587
  287loPI   C2B 4590   2.820   5.651   8.985 -0.1837  0.0782  0.0113
  287loPI   C3B 4591   2.688   5.785   8.575 -0.2044  0.1907 -0.0068
  287loPI   C4B 4592   2.667   5.951   8.204  0.1156  0.0012  0.0019
  288loPI    C1 4593  18.667   1.065   9.894 -0.0749 -0.1672 -0.1094
  288loPI    C2 4594  19.023   1.186  10.030 -0.0475 -0.2588 -0.0985
  288loPI    C3 4595  18.849   0.863  10.187 -0.2091 -0.1230  0.0056
  288loPI   PO4 4596  18.642   1.002   9.689 -0.4380  0.0711 -0.4401
  288loPI   GL1 4597  18.488   0.902   9.363  0.3369  0.1625 -0.1428
  288loPI   GL2 4598  18.740   0.595   9.378 -0.3052  0.1173  0.0352
  288loPI   C1A 4599  18.560   0.927   8.978 -0.0114 -0.2277 -0.3852
  288loPI   C2A 4600  18.895   0.971   8.841  0.1873 -0.2098  0.3644
  288loPI   C3A 4601  19.028   1.199   8.687  0.0553  0.2368  0.0903
  288loPI   C4A 4602  19.095   1.207   8.221  0.1002  0.1559 -0.2291
  288loPI   C5A 4603  19.269   1.238   7.877 -0.1596 -0.4622  0.1649
  288loPI   C6A 4604  19.595   1.302   7.569 -0.2251  0.2102  0.0519
  288loPI   C1B 4605  18.990   0.513   9.034 -0.1626 -0.1171  0.1231
  288loPI   C2B 4606  19.371   0.766   8.882 -0.1440 -0.2389 -0.2451
  288loPI   C3B 4607  19.469   1.008   8.574 -0.0970  0.0451  0.2501
  288loPI   C4B 4608  19.711   0.989   8.108 -0.1678 -0.0994  0.0338
  289loPI    C1 4609  10.395   0.484  10.590  0.0773 -0.4908 -0.0634
  289loPI    C2 4610  10.125   0.384  10.868 -0.0767  0.1510  0.0335
  289loPI    C3 4611  10.511   0.419  10.967  0.0060 -0.4624 -0.0362
  289loPI   PO4 4612  10.301   0.645  10.391  0.0844 -0.0786 -0.1956
  289loPI   GL1 4613  10.301   0.639   9.945 -0.4903  0.2268 -0.2774
  289loPI   GL2 4614  10.076   0.396   9.962 -0.0033  0.0654 -0.2151
  289loPI   C1A 4615  10.302   0.698   9.524  0.2707 -0.1915  0.0510
  289loPI   C2A 4616  10.314   0.729   9.089 -0.0356 -0.1537 -0.1410
  289loPI   C3A 4617  10.257   0.869   8.745 -0.0808  0.1954  0.3440
  289loPI   C4A 4618  10.229   0.827   8.433 -0.0583 -0.1607  0.3810
  289loPI   C5A 4619  10.357   0.565   8.039 -0.0260 -0.0638 -0.1097
  289loPI   C6A 4620  10.408   0.227   7.743 -0.0262 -0.0263 -0.1476
  289loPI   C1B 4621   9.860   0.865   9.944  0.1362 -0.1650  0.0784
  289loPI   C2B 4622   9.756   0.919   9.561 -0.1008  0.2861 -0.2730
  289loPI   C3B 4623   9.869   0.934   9.192 -0.3242  0.2781  0.1868
  289loPI   C4B 4624   9.786   0.664   8.846 -0.0237  0.0224  0.1682
  290loPI    C1 4625   9.657  16.811  10.391  0.0857 -0.0037 -0.1051
  290loPI    C2 4626   9.727  17.101  10.657  0.1488 -0.0061 -0.1191
  290loPI    C3 4627   9.449  16.823  10.732  0.0256  0.1093 -0.1451
  290loPI   PO4 4628   9.742  16.892  10.156 -0.0098 -0.1055  0.0561
  290loPI   GL1 4629   9.803  16.942   9.729  0.2295  0.2214  0.1931
  290loPI   GL2 4630  10.049  16.715   9.611 -0.0150  0.4496  0.1466
  290loPI   C1A 4631   9.466  16.740   9.482 -0.0109 -0.0102 -0.1477
  290loPI   C2A 4632   9.276  16.839   9.053 -0.5513  0.0528 -0.1272
  290loPI   C3A 4633   9.454  16.955   8.783 -0.2202 -0.1406  0.4749
  290loPI   C4A 4634   9.629  17.040   8.435  0.1751 -0.1429  0.0150
  290loPI   C5A 4635   9.408  17.109   8.143  0.0644 -0.2071 -0.0716
  290loPI   C6A 4636   9.345  16.978   7.708 -0.1034 -0.1494 -0.3154
  290loPI   C1B 4637   9.921  16.793   9.156  0.1199 -0.2910  0.1951
  290loPI   C2B 4638   9.935  16.791   8.815 -0.0805  0.1614  0.2572
  290loPI   C3B 4639   9.713  16.556   8.434 -0.0978 -0.1159 -0.1006
  290loPI   C4B 4640   9.474  16.638   8.074  0.3371  0.1393  0.0669
  291loPI    C1 4641   1.705   9.636  10.474 -0.1374 -0.0385  0.0335
  291loPI    C2 4642   1.424   9.412  10.299 -0.1384 -0.0466  0.0454
  291loPI    C3 4643   1.319   9.701  10.554 -0.1505  0.1334 -0.1603
  291loPI   PO4 4644   1.954   9.568  10.252  0.0624 -0.0784 -0.0023
  291loPI   GL1 4645   1.980   9.674   9.831  0.3286 -0.1697  0.0117
  291loPI   GL2 4646   1.775   9.840   9.653  0.2205  0.1509 -0.2384
  291loPI   C1A 4647   2.034   9.369   9.545 -0.1147  0.2610  0.2431
  291loPI   C2A 4648   1.984   9.174   9.166 -0.1641  0.2390 -0.1111
  291loPI   C3A 4649   2.003   9.028   8.709 -0.0502 -0.0597  0.0128
  291loPI   C4A 4650   1.904   8.770   8.314  0.2559 -0.0522  0.0129
  291loPI   C5A 4651   1.895   8.987   7.950 -0.1371  0.2200  0.0961
  291loPI   C6A 4652   1.837   9.400   7.854 -0.2883 -0.1800 -0.0196
  291loPI   C1B 4653   1.971   9.763   9.236 -0.0298 -0.0775 -0.0592
  291loPI   C2B 4654   2.130   9.580   8.803 -0.1618  0.1871 -0.2332
  291loPI   C3B 4655   2.429   9.677   8.518 -0.1080 -0.1062  0.1554
  291loPI   C4B 4656   2.368   9.963   8.107 -0.1057 -0.2539 -0.0484
  292loPI    C1 4657   5.466   3.536  10.862  0.2728  0.0778 -0.2597
  292loPI    C2 4658   5.619   3.543  11.232  0.1138  0.2662 -0.1953
  292loPI    C3 4659   5.304   3.310  11.150  0.1204  0.2591 -0.2004
  292loPI   PO4 4660   5.657   3.633  10.682 -0.2009 -0.3493 -0.1407
  292loPI   GL1 4661   5.900   3.614  10.261 -0.0397 -0.2773  0.1467
  292loPI   GL2 4662   6.183   3.445  10.263  0.0219  0.0369 -0.1670
  292loPI   C1A 4663   5.908   3.850   9.972 -0.2691  0.0594  0.3929
  292loPI   C2A 4664   5.888   3.855   9.641  0.0883 -0.0569 -0.2833
  292loPI   C3A 4665   5.936   3.731   9.260  0.2953 -0.0074  0.2677
  292loPI   C4A 4666   5.908   3.689   8.836  0.1861  0.3825  0.3368
  292loPI   C5A 4667   5.875   3.692   8.337 -0.3875  0.1555  0.1383
  292loPI   C6A 4668   5.711   3.571   7.926  0.2591 -0.1334 -0.3550
  292loPI   C1B 4669   6.364   3.505   9.898 -0.1957 -0.0244 -0.5119
  292loPI   C2B 4670   6.302   3.525   9.488  0.2450 -0.1643  0.2235
  292loPI   C3B 4671   6.332   3.456   9.011  0.0139  0.4816 -0.1057
  292loPI   C4B 4672   6.307   3.595   8.568  0.2132  0.1075  0.1426
  293loPI    C1 4673  12.296  17.128  10.121  0.3369  0.1480  0.0310
  293loPI    C2 4674  12.165  17.455  10.310  0.2444  0.2304 -0.1720
  293loPI    C3 4675  12.554  17.363  10.316  0.2423  0.2309  0.0569
  293loPI   PO4 4676  12.135  17.140   9.915 -0.1862  0.0543 -0.2135
  293loPI   GL1 4677  12.155  17.310   9.541 -0.0540 -0.2640  0.4113
  293loPI   GL2 4678  11.937  17.082   9.448  0.0077  0.2027 -0.1517
  293loPI   C1A 4679  12.341  17.617   9.248 -0.4019  0.0479  0.1867
  293loPI   C2A 4680  12.278  17.655   8.800 -0.0250  0.0986 -0.1984
  293loPI   C3A 4681  12.299  17.595   8.385  0.0335  0.0252  0.1834
  293loPI   C4A 4682  12.187  17.647   7.889  0.1752  0.0154  0.0756
  293loPI   C5A 4683  11.996  17.568   7.479 -0.1735  0.1528 -0.1373
  293loPI   C6A 4684  11.728  17.238   7.262  0.3189  0.1002 -0.1272
  293loPI   C1B 4685  11.738  17.447   9.200 -0.0444  0.4453 -0.1504
  293loPI   C2B 4686  11.507  17.506   8.751 -0.2543 -0.0939  0.0972
  293loPI   C3B 4687  11.278  17.600   8.474 -0.0015 -0.1178  0.1240
  293loPI   C4B 4688  11.292  17.452   8.064  0.0857 -0.2478 -0.1936
  294loPI    C1 4689  13.217   3.273  10.188  0.0589  0.2919  0.0312
  294loPI    C2 4690  12.851   3.294  10.029  0.1123  0.1469 -0.1140
  294loPI    C3 4691  12.898   3.314  10.426 -0.0782 -0.1059 -0.0760
  294loPI   PO4 4692  13.369   3.442  10.044 -0.1530 -0.0702  0.3163
  294loPI   GL1 4693  13.394   3.683   9.635 -0.0883  0.4701  0.2469
  294loPI   GL2 4694  13.053   3.672   9.727  0.2250  0.2671  0.3850
  294loPI   C1A 4695  13.301   3.505   9.166 -0.2054 -0.1342 -0.0879
  294loPI   C2A 4696  13.163   3.464   8.767 -0.2128  0.3245 -0.1409
  294loPI   C3A 4697  13.075   3.380   8.436 -0.1848  0.1070  0.0532
  294loPI   C4A 4698  13.044   3.458   7.953  0.1738  0.1700 -0.1454
  294loPI   C5A 4699  12.721   3.542   7.524 -0.2632 -0.0019  0.1125
  294loPI   C6A 4700  12.545   3.461   7.119  0.2225  0.1524  0.0253
  294loPI   C1B 4701  12.760   3.755   9.475 -0.0979 -0.0942 -0.0911
  294loPI   C2B 4702  12.839   3.669   9.103 -0.0796  0.1387  0.0274
  294loPI   C3B 4703  12.675   3.586   8.756  0.0433 -0.0994 -0.3037
  294loPI   C4B 4704  12.678   3.693   8.269 -0.0511 -0.3335  0.2004
  295loPI    C1 4705  13.586   1.782  10.435 -0.0138  0.0530  0.0242
  295loPI    C2 4706  13.587   1.818  10.833 -0.1190 -0.0149  0.0310
  295loPI    C3 4707  13.532   2.141  10.603 -0.3214 -0.0149  0.0771
  295loPI   PO4 4708  13.543   1.507  10.345  0.0470 -0.0733  0.1988
  295loPI   GL1 4709  13.483   1.451   9.930 -0.1366  0.2010  0.3316
  295loPI   GL2 4710  13.178   1.649   9.770  0.1947 -0.0819  0.2146
  295loPI   C1A 4711  13.440   1.293   9.538  0.1690  0.1000 -0.2330
  295loPI   C2A 4712  13.408   1.343   9.089  0.1132 -0.0331  0.3738
  295loPI   C3A 4713  13.387   1.261   8.676 -0.3331  0.2322 -0.1610
  295loPI   C4A 4714  13.347   1.171   8.260  0.0470  0.0714 -0.1867
  295loPI   C5A 4715  13.285   1.163   7.792 -0.0207  0.1811 -0.1684
  295loPI   C6A 4716  13.170   0.907   7.544  0.0401  0.0439 -0.1347
  295loPI   C1B 4717  12.954   1.462   9.304  0.0037 -0.1860 -0.0155
  295loPI   C2B 4718  12.949   1.523   8.878  0.2144  0.1142 -0.0091
  295loPI   C3B 4719  12.969   1.426   8.442  0.3110 -0.0102 -0.3269
  295loPI   C4B 4720  12.812   1.619   8.129  0.3313  0.2265  0.1881
  296loPI    C1 4721   1.827   5.544  10.761 -0.1104 -0.2827  0.2048
  296loPI    C2 4722   1.521   5.790  10.684  0.0647 -0.1517 -0.0890
  296loPI    C3 4723   1.539   5.597  11.034 -0.1172  0.1897  0.1145
  296loPI   PO4 4724   1.870   5.437  10.533  0.1478 -0.1838  0.3473
  296loPI   GL1 4725   1.903   5.441  10.091 -0.0056  0.0570 -0.2964
  296loPI   GL2 4726   1.797   5.150   9.867 -0.1086  0.2193 -0.0118
  296loPI   C1A 4727   1.868   5.568   9.635  0.0868  0.0822  0.1962
  296loPI   C2A 4728   1.817   5.676   9.181  0.2256 -0.0787 -0.1137
  296loPI   C3A 4729   1.865   5.634   8.802  0.4513  0.2785 -0.1045
  296loPI   C4A 4730   1.903   5.553   8.281 -0.3284 -0.2522  0.0685
  296loPI   C5A 4731   1.756   5.551   7.804  0.1630  0.2967  0.1061
  296loPI   C6A 4732   1.371   5.555   7.663 -0.0656 -0.1789 -0.0005
  296loPI   C1B 4733   1.895   5.142   9.422  0.0774 -0.3327  0.0787
  296loPI   C2B 4734   1.811   5.119   9.022  0.0691 -0.2118 -0.1754
  296loPI   C3B 4735   1.905   5.165   8.552 -0.2120  0.0293  0.3815
  296loPI   C4B 4736   1.880   5.094   8.097 -0.1329  0.0333 -0.2236
  297loPI    C1 4737   0.971   8.064  10.335 -0.0785  0.0616  0.2624
  297loPI    C2 4738   0.768   8.152  10.669 -0.1333 -0.0362  0.2554
  297loPI    C3 4739   1.052   7.871  10.676 -0.1400 -0.0440  0.2176
  297loPI   PO4 4740   0.863   8.174  10.117 -0.3976  0.0904 -0.2040
  297loPI   GL1 4741   0.665   8.088   9.721  0.0040  0.0619 -0.0420
  297loPI   GL2 4742   0.552   8.441   9.688  0.3059 -0.1265  0.1536
  297loPI   C1A 4743   0.547   8.109   9.288  0.0679  0.2209 -0.0251
  297loPI   C2A 4744   0.373   8.264   8.928 -0.0395 -0.1384 -0.3715
  297loPI   C3A 4745   0.121   8.365   8.646 -0.0576 -0.0069  0.4565
  297loPI   C4A 4746   0.107   8.676   8.330 -0.1270 -0.3390  0.1749
  297loPI   C5A 4747  -0.165   8.792   7.949 -0.2717  0.0061  0.1406
  297loPI   C6A 4748  -0.342   9.024   7.625  0.0048  0.2095 -0.2375
  297loPI   C1B 4749   0.263   8.590   9.411 -0.0102  0.2884  0.0705
  297loPI   C2B 4750  -0.081   8.544   9.194  0.3874  0.0814  0.2211
  297loPI   C3B 4751  -0.324   8.288   8.933  0.2803  0.1019  0.0106
  297loPI   C4B 4752  -0.251   8.088   8.503  0.1058  0.0292 -0.0087
  298loPI    C1 4753   6.188   8.893  10.872 -0.2763 -0.2479 -0.0658
  298loPI    C2 4754   5.822   9.048  10.919 -0.1487 -0.0285  0.2422
  298loPI    C3 4755   5.934   8.731  11.135 -0.1699 -0.1213  0.1179
  298loPI   PO4 4756   6.213   8.832  10.638 -0.0981 -0.0805  0.0787
  298loPI   GL1 4757   6.615   8.679  10.304 -0.1484  0.0044 -0.0395
  298loPI   GL2 4758   6.931   8.758  10.271  0.0372  0.0492  0.1163
  298loPI   C1A 4759   6.631   8.384   9.915  0.0328 -0.0977  0.1149
  298loPI   C2A 4760   6.572   8.309   9.484  0.1344 -0.2366 -0.5137
  298loPI   C3A 4761   6.273   8.390   9.221  0.0637 -0.3386  0.0425
  298loPI   C4A 4762   6.132   8.393   8.878  0.3486 -0.2446  0.5185
  298loPI   C5A 4763   5.957   8.328   8.485 -0.1562 -0.1167 -0.4345
  298loPI   C6A 4764   5.773   8.170   8.094  0.1741 -0.0089  0.0031
  298loPI   C1B 4765   6.971   8.806   9.862  0.1315 -0.0521 -0.2891
  298loPI   C2B 4766   6.967   8.596   9.543 -0.3399  0.0870 -0.3824
  298loPI   C3B 4767   6.933   8.449   9.164  0.0193  0.0673  0.2647
  298loPI   C4B 4768   7.303   8.306   8.914 -0.1723  0.0982 -0.0024
  299loPI    C1 4769   2.763   4.994  10.422  0.1282  0.0991 -0.1118
  299loPI    C2 4770   2.675   5.365  10.542  0.2096  0.0281  0.1750
  299loPI    C3 4771   2.650   5.060  10.800 -0.0487 -0.1976 -0.1094
  299loPI   PO4 4772   3.032   5.043  10.376 -0.1817 -0.0837  0.1390
  299loPI   GL1 4773   3.159   5.179  10.039  0.3655  0.0144 -0.0349
  299loPI   GL2 4774   2.877   5.289  10.020  0.2968  0.3956 -0.0163
  299loPI   C1A 4775   3.499   5.113   9.667  0.0117 -0.1775 -0.1790
  299loPI   C2A 4776   3.600   5.246   9.341 -0.2747  0.0530  0.1728
  299loPI   C3A 4777   3.682   5.158   8.991  0.1929 -0.0421  0.3029
  299loPI   C4A 4778   3.685   5.087   8.450 -0.2392 -0.1388 -0.1966
  299loPI   C5A 4779   3.624   4.857   7.971 -0.1894 -0.3305  0.0190
  299loPI   C6A 4780   3.611   4.900   7.489 -0.1529 -0.1043 -0.3225
  299loPI   C1B 4781   2.790   5.273   9.670 -0.0621  0.0414 -0.3130
  299loPI   C2B 4782   2.707   5.214   9.251  0.1484  0.2092  0.2035
  299loPI   C3B 4783   2.716   5.115   8.840 -0.0051  0.0720  0.1442
  299loPI   C4B 4784   2.673   4.973   8.414  0.2966  0.4772 -0.1100
  300loPI    C1 4785   3.013   7.228  10.657  0.2208  0.1901  0.3666
  300loPI    C2 4786   2.756   7.275  10.960 -0.4909  0.1528 -0.2019
  300loPI    C3 4787   2.823   7.576  10.706 -0.2202  0.0528 -0.2533
  300loPI   PO4 4788   2.964   6.996  10.522  0.0192 -0.1241  0.1295
  300loPI   GL1 4789   3.053   6.923  10.099 -0.2179  0.1549  0.0490
  300loPI   GL2 4790   3.332   7.008   9.951 -0.2129  0.0995  0.1476
  300loPI   C1A 4791   2.953   6.809   9.688 -0.1588  0.0877 -0.2906
  300loPI   C2A 4792   3.244   6.612   9.488 -0.0790  0.0291 -0.1136
  300loPI   C3A 4793   3.298   6.609   9.158  0.1774  0.0784 -0.2287
  300loPI   C4A 4794   3.331   6.612   8.733 -0.1114  0.2879 -0.2508
  300loPI   C5A 4795   3.347   6.508   8.357  0.1241  0.5282  0.2044
  300loPI   C6A 4796   3.413   6.666   8.013 -0.0836  0.0530  0.2090
  300loPI   C1B 4797   3.648   6.890   9.706 -0.1325  0.0810 -0.2699
  300loPI   C2B 4798   3.774   6.868   9.301  0.1571 -0.3828  0.1033
  300loPI   C3B 4799   3.844   6.812   8.878  0.0496  0.2855  0.0915
  300loPI   C4B 4800   3.795   6.721   8.468 -0.3895  0.0345 -0.1229
  301loPI    C1 4801  18.114  17.791   9.808 -0.1103  0.0135  0.0725
  301loPI    C2 4802  17.849  17.552   9.989  0.0070  0.0349  0.2751
  301loPI    C3 4803  18.017  17.854  10.191  0.1366  0.0620  0.1288
  301loPI   PO4 4804  18.291  17.603   9.678 -0.1857 -0.0608 -0.4275
  301loPI   GL1 4805  18.449  17.601   9.240 -0.0182  0.1608 -0.1844
  301loPI   GL2 4806  18.841  17.545   9.255  0.1086 -0.0137 -0.0542
  301loPI   C1A 4807  18.546  17.609   8.779 -0.4464 -0.0702 -0.0375
  301loPI   C2A 4808  18.615  17.536   8.322  0.3018 -0.0977  0.0701
  301loPI   C3A 4809  18.574  17.635   7.986 -0.1073 -0.0848  0.0163
  301loPI   C4A 4810  18.432  17.638   7.637  0.0480  0.1935  0.1411
  301loPI   C5A 4811  18.259  17.815   7.286  0.2801 -0.2850 -0.1034
  301loPI   C6A 4812  18.426  18.265   7.159 -0.0949  0.0760 -0.1507
  301loPI   C1B 4813  18.966  17.350   8.843 -0.1049 -0.1578  0.1523
  301loPI   C2B 4814  18.977  17.274   8.489  0.0457 -0.3154  0.0978
  301loPI   C3B 4815  18.850  17.194   8.067  0.3899 -0.3026  0.1756
  301loPI   C4B 4816  18.532  17.091   7.788  0.1888  0.3429  0.1781
  302loPI    C1 4817  12.770   8.709  10.033  0.1811 -0.1147  0.0366
  302loPI    C2 4818  12.761   8.430  10.320 -0.1559  0.0884  0.2295
  302loPI    C3 4819  13.017   8.736  10.347 -0.2500  0.1562  0.3632
  302loPI   PO4 4820  12.503   8.937   9.990  0.3231 -0.0071 -0.0933
  302loPI   GL1 4821  12.290   9.032   9.646 -0.4401  0.3171  0.3991
  302loPI   GL2 4822  12.013   8.902   9.523 -0.1031 -0.1925 -0.4040
  302loPI   C1A 4823  12.471   8.898   9.150 -0.1730 -0.0308  0.0097
  302loPI   C2A 4824  12.223   8.673   8.898  0.0023  0.2180 -0.0736
  302loPI   C3A 4825  12.049   8.477   8.557 -0.0642  0.0788  0.3446
  302loPI   C4A 4826  11.902   8.459   8.187  0.4249  0.0604  0.2578
  302loPI   C5A 4827  11.722   8.589   7.855  0.2143  0.0114 -0.3430
  302loPI   C6A 4828  11.647   8.816   7.530 -0.0217  0.1738  0.2178
  302loPI   C1B 4829  11.853   8.984   9.121  0.0481 -0.2129  0.0796
  302loPI   C2B 4830  11.802   8.945   8.707 -0.3384 -0.1969 -0.1105
  302loPI   C3B 4831  11.817   9.033   8.243 -0.1318  0.0021 -0.0467
  302loPI   C4B 4832  12.011   8.983   7.862 -0.1214 -0.0001 -0.1539
  303loPI    C1 4833  18.756  10.194  10.195  0.3004 -0.0544  0.0317
  303loPI    C2 4834  18.527   9.886  10.307  0.0928  0.0561 -0.0823
  303loPI    C3 4835  18.905   9.910  10.434  0.0877 -0.2049 -0.0106
  303loPI   PO4 4836  18.806  10.200   9.908 -0.2653  0.0106 -0.1384
  303loPI   GL1 4837  19.051  10.395   9.650  0.0794  0.0466 -0.0376
  303loPI   GL2 4838  19.139  10.066   9.429  0.0415 -0.0523  0.1074
  303loPI   C1A 4839  18.918  10.521   9.344 -0.1507 -0.3988  0.2775
  303loPI   C2A 4840  18.885  10.766   8.913  0.0874 -0.5777 -0.0305
  303loPI   C3A 4841  18.911  10.741   8.524  0.1311 -0.0388  0.0389
  303loPI   C4A 4842  18.833  10.889   8.185  0.2279 -0.2769 -0.1037
  303loPI   C5A 4843  19.068  10.848   7.790 -0.1088  0.2375 -0.0580
  303loPI   C6A 4844  19.129  10.716   7.399  0.2060  0.0839  0.1104
  303loPI   C1B 4845  19.443   9.937   9.189 -0.2722 -0.2563 -0.2298
  303loPI   C2B 4846  19.641   9.856   8.816 -0.0091 -0.3571 -0.1118
  303loPI   C3B 4847  19.770   9.659   8.619  0.1227  0.1262  0.3134
  303loPI   C4B 4848  19.901   9.244   8.329 -0.1205 -0.1310  0.1284
  304loPI    C1 4849  18.277  15.784  10.053  0.0704  0.3726 -0.3123
  304loPI    C2 4850  17.894  15.821  10.160  0.0970 -0.0598 -0.0427
  304loPI    C3 4851  18.183  15.967  10.396  0.1099  0.0517 -0.1265
  304loPI   PO4 4852  18.249  15.784   9.737  0.3910  0.1098 -0.0057
  304loPI   GL1 4853  17.956  15.866   9.550 -0.1754  0.1929  0.2713
  304loPI   GL2 4854  17.642  15.664   9.537 -0.0985  0.1487  0.0550
  304loPI   C1A 4855  18.231  15.898   9.097 -0.1171 -0.3102 -0.3370
  304loPI   C2A 4856  18.191  15.661   8.728 -0.2564 -0.2701  0.0842
  304loPI   C3A 4857  18.134  15.414   8.364  0.2473 -0.3955  0.1049
  304loPI   C4A 4858  18.075  15.221   7.931  0.1574 -0.0429 -0.3138
  304loPI   C5A 4859  17.974  14.782   7.891  0.1215  0.1068 -0.0238
  304loPI   C6A 4860  17.647  14.711   7.552  0.2486 -0.1201 -0.1125
  304loPI   C1B 4861  17.814  15.423   9.187 -0.0907  0.1050  0.0264
  304loPI   C2B 4862  17.948  15.267   8.785 -0.2925  0.0164  0.1646
  304loPI   C3B 4863  18.133  14.937   8.721  0.0044 -0.2033 -0.0408
  304loPI   C4B 4864  18.228  14.877   8.343  0.2309 -0.0501 -0.0921
  305loPI    C1 4865   7.812   9.806  10.387  0.0789  0.2041 -0.1387
  305loPI    C2 4866   7.442   9.664  10.332  0.1292 -0.1191  0.3015
  305loPI    C3 4867   7.509   9.941  10.612  0.1868  0.1071  0.0676
  305loPI   PO4 4868   8.055   9.722  10.170  0.0188  0.0856  0.0426
  305loPI   GL1 4869   8.122   9.577   9.728 -0.2284 -0.1150 -0.2546
  305loPI   GL2 4870   8.256   9.339   9.578  0.0064  0.0699  0.0808
  305loPI   C1A 4871   7.961   9.858   9.447  0.3090  0.1147  0.0132
  305loPI   C2A 4872   7.753   9.922   9.137  0.0431  0.2242 -0.2162
  305loPI   C3A 4873   7.707   9.818   8.740  0.1837  0.1106  0.0105
  305loPI   C4A 4874   7.745   9.691   8.325  0.1060 -0.3295 -0.0168
  305loPI   C5A 4875   8.062   9.826   8.114  0.2421 -0.2376  0.3082
  305loPI   C6A 4876   8.267  10.167   8.125 -0.2852  0.0011  0.1103
  305loPI   C1B 4877   8.131   9.437   9.164 -0.1137 -0.0571 -0.1422
  305loPI   C2B 4878   8.060   9.419   8.689 -0.0166 -0.1023  0.2725
  305loPI   C3B 4879   8.245   9.367   8.298 -0.1062 -0.0691 -0.0116
  305loPI   C4B 4880   8.243   9.428   7.850 -0.4356  0.1045 -0.1462
  306loPI    C1 4881   9.147  17.576  10.197  0.0552 -0.0471 -0.0718
  306loPI    C2 4882   8.930  17.245  10.140  0.1095 -0.1048  0.0521
  306loPI    C3 4883   9.234  17.243  10.400  0.2158 -0.0051 -0.0700
  306loPI   PO4 4884   9.296  17.629   9.978  0.0019  0.1508 -0.0522
  306loPI   GL1 4885   9.253  17.720   9.548 -0.3468 -0.2019 -0.0896
  306loPI   GL2 4886   8.958  17.953   9.522 -0.0995 -0.0177  0.1466
  306loPI   C1A 4887   9.429  17.728   9.169 -0.0830  0.2004 -0.2655
  306loPI   C2A 4888   9.726  17.960   9.029 -0.2692 -0.0240 -0.2354
  306loPI   C3A 4889  10.031  17.837   8.674 -0.0168 -0.0086  0.2812
  306loPI   C4A 4890  10.316  17.689   8.374  0.1024  0.1535 -0.0882
  306loPI   C5A 4891  10.602  17.817   8.091 -0.2419  0.2435  0.0932
  306loPI   C6A 4892  10.541  18.140   7.832 -0.0380  0.0960  0.1579
  306loPI   C1B 4893   8.932  17.773   9.086 -0.1473 -0.1093  0.1191
  306loPI   C2B 4894   9.139  17.721   8.738 -0.3152  0.0347  0.0390
  306loPI   C3B 4895   9.445  17.938   8.405  0.2904 -0.0884 -0.0005
  306loPI   C4B 4896   9.822  17.909   8.240  0.2073 -0.0212  0.2754
  307loPI    C1 4897   0.865  15.709   9.830 -0.1971  0.1022 -0.2047
  307loPI    C2 4898   0.778  15.903  10.169  0.0162  0.0518 -0.1194
  307loPI    C3 4899   1.060  15.620  10.167  0.0212  0.0561 -0.3414
  307loPI   PO4 4900   0.571  15.704   9.740  0.0936  0.2279 -0.3228
  307loPI   GL1 4901   0.350  15.607   9.343  0.0465  0.2980  0.1010
  307loPI   GL2 4902   0.372  15.919   9.309  0.0318  0.0244 -0.3358
  307loPI   C1A 4903   0.017  15.670   8.949 -0.1892  0.0239 -0.0118
  307loPI   C2A 4904  -0.164  15.707   8.456  0.1417  0.1049  0.0399
  307loPI   C3A 4905  -0.175  15.893   8.023  0.0384 -0.3121  0.0499
  307loPI   C4A 4906  -0.352  16.167   7.726  0.0031 -0.0844  0.1580
  307loPI   C5A 4907  -0.636  16.475   7.443  0.2627 -0.0986 -0.0958
  307loPI   C6A 4908  -0.947  16.883   7.491  0.0390 -0.2465 -0.1112
  307loPI   C1B 4909   0.436  16.108   8.923 -0.2273  0.2379 -0.2918
  307loPI   C2B 4910   0.562  16.569   8.693  0.2021  0.1874  0.1192
  307loPI   C3B 4911   0.494  17.043   8.844 -0.2823 -0.0878 -0.1841
  307loPI   C4B 4912   0.427  17.334   9.191 -0.1991  0.1339  0.1690
  308loPI    C1 4913   8.411   3.180  11.160  0.0098 -0.0032 -0.1564
  308loPI    C2 4914   8.204   3.173  11.502  0.0882  0.0801 -0.1067
  308loPI    C3 4915   8.579   3.314  11.498  0.2189 -0.2575 -0.1560
  308loPI   PO4 4916   8.303   2.955  11.056 -0.2661 -0.1230  0.1473
  308loPI   GL1 4917   8.249   2.817  10.605 -0.3748  0.2716  0.2962
  308loPI   GL2 4918   8.454   3.114  10.595 -0.0256  0.0090 -0.3882
  308loPI   C1A 4919   8.255   2.679  10.238  0.0220  0.0290  0.2809
  308loPI   C2A 4920   8.322   2.657   9.876  0.1857 -0.3345  0.2541
  308loPI   C3A 4921   8.198   2.676   9.438 -0.3748  0.0483  0.1219
  308loPI   C4A 4922   8.217   2.642   9.005 -0.0811 -0.0187  0.3193
  308loPI   C5A 4923   8.230   2.773   8.499  0.1100  0.0606 -0.2645
  308loPI   C6A 4924   8.172   3.168   8.187  0.1373  0.1683 -0.4135
  308loPI   C1B 4925   8.129   3.181  10.230  0.3220  0.3164 -0.0700
  308loPI   C2B 4926   8.229   3.170   9.713  0.4470 -0.1264 -0.3447
  308loPI   C3B 4927   8.175   3.230   9.250  0.0477  0.0227 -0.1400
  308loPI   C4B 4928   8.135   3.277   8.768  0.2332  0.1883  0.1877
  309loPI    C1 4929  10.527  17.924  10.206 -0.1835 -0.1846 -0.0462
  309loPI    C2 4930  10.342  17.960  10.559 -0.2397 -0.0713 -0.0864
  309loPI    C3 4931  10.182  17.731  10.272 -0.0814 -0.3407  0.0360
  309loPI   PO4 4932  10.731  18.049  10.262 -0.1534 -0.3765  0.0029
  309loPI   GL1 4933  10.792  18.181   9.849  0.0430  0.0322 -0.0079
  309loPI   GL2 4934  11.006  18.397   9.797  0.0665  0.0545  0.0334
  309loPI   C1A 4935  10.794  18.108   9.427 -0.0261 -0.0265  0.0668
  309loPI   C2A 4936  10.722  18.315   9.116 -0.1697 -0.2362 -0.0381
  309loPI   C3A 4937  10.862  18.456   8.770 -0.0281 -0.0450  0.3618
  309loPI   C4A 4938  10.688  18.365   8.239  0.0187 -0.3140 -0.1910
  309loPI   C5A 4939  10.672  18.577   7.888  0.1961  0.4632 -0.0568
  309loPI   C6A 4940  10.681  18.778   7.510 -0.2764  0.0834 -0.0423
  309loPI   C1B 4941  10.531  18.532   9.569  0.3785  0.3643  0.4197
  309loPI   C2B 4942  10.300  18.635   9.128 -0.0897  0.0965  0.0456
  309loPI   C3B 4943  10.296  18.704   8.681  0.0945  0.3360  0.1106
  309loPI   C4B 4944  10.043  18.836   8.289  0.3386  0.0194 -0.0722
  310loPI    C1 4945  12.497  13.409   9.947  0.1064  0.1288 -0.1001
  310loPI    C2 4946  12.142  13.402   9.764  0.0419  0.1255  0.0242
  310loPI    C3 4947  12.271  13.080   9.963  0.2035  0.0574 -0.1871
  310loPI   PO4 4948  12.559  13.678   9.854 -0.0207 -0.0322  0.4135
  310loPI   GL1 4949  12.301  13.787   9.549 -0.0846  0.2940  0.2652
  310loPI   GL2 4950  12.544  13.806   9.373  0.2486 -0.0900  0.1594
  310loPI   C1A 4951  12.085  13.552   9.210 -0.1208 -0.0168 -0.2713
  310loPI   C2A 4952  12.163  13.561   8.796  0.0772 -0.1483 -0.3062
  310loPI   C3A 4953  12.041  13.614   8.275  0.1555 -0.0948 -0.0235
  310loPI   C4A 4954  11.929  13.773   7.859 -0.0027  0.0695  0.0945
  310loPI   C5A 4955  11.743  13.555   7.437  0.0006 -0.0180  0.0231
  310loPI   C6A 4956  11.444  13.305   7.300  0.3205 -0.4063 -0.3636
  310loPI   C1B 4957  12.496  14.110   8.998 -0.1646  0.2731 -0.2236
  310loPI   C2B 4958  12.368  14.115   8.584 -0.0694 -0.0031  0.1288
  310loPI   C3B 4959  12.282  14.034   8.158  0.2907 -0.2114  0.1185
  310loPI   C4B 4960  12.409  14.087   7.663  0.2372 -0.1936 -0.0806
  311loPI    C1 4961  12.031   3.355  10.681  0.0099 -0.0782  0.3433
  311loPI    C2 4962  11.758   3.518  10.923  0.0069  0.0970  0.2236
  311loPI    C3 4963  12.037   3.273  11.072 -0.0766  0.0975  0.3821
  311loPI   PO4 4964  11.923   3.314  10.513 -0.0250 -0.2397  0.0623
  311loPI   GL1 4965  11.750   3.318  10.218 -0.1040  0.0487 -0.0067
  311loPI   GL2 4966  11.733   3.598  10.049  0.3484 -0.3234 -0.1576
  311loPI   C1A 4967  11.487   3.163   9.766 -0.1209 -0.2351 -0.2659
  311loPI   C2A 4968  11.254   3.257   9.366  0.0996 -0.1058  0.2190
  311loPI   C3A 4969  11.270   3.181   8.858 -0.2637 -0.1663 -0.2069
  311loPI   C4A 4970  11.349   3.300   8.379  0.1288 -0.2450  0.0711
  311loPI   C5A 4971  11.543   3.424   8.001  0.0897  0.0630  0.0324
  311loPI   C6A 4972  11.664   3.871   7.873 -0.0410 -0.0104  0.0305
  311loPI   C1B 4973  11.904   3.527   9.698 -0.1157 -0.0544 -0.0272
  311loPI   C2B 4974  11.868   3.620   9.195 -0.2025 -0.0604  0.1320
  311loPI   C3B 4975  11.804   3.521   8.725 -0.0202  0.2526 -0.2202
  311loPI   C4B 4976  11.754   3.610   8.382 -0.1197 -0.1163  0.0206
  312loPI    C1 4977  17.928  14.715  10.112 -0.3058  0.0356 -0.1423
  312loPI    C2 4978  17.950  14.905  10.463 -0.1984  0.1502 -0.2097
  312loPI    C3 4979  17.729  14.573  10.428 -0.1829  0.1192 -0.0260
  312loPI   PO4 4980  18.172  14.858  10.027  0.1934 -0.0499 -0.0825
  312loPI   GL1 4981  18.204  15.034   9.646 -0.1692 -0.1139  0.1000
  312loPI   GL2 4982  18.489  14.867   9.468 -0.0246 -0.1087 -0.0763
  312loPI   C1A 4983  17.965  14.979   9.260  0.0363  0.0749  0.0735
  312loPI   C2A 4984  17.811  14.597   8.901 -0.3146 -0.0578 -0.0586
  312loPI   C3A 4985  18.143  14.379   8.535  0.1563 -0.1281 -0.3800
  312loPI   C4A 4986  18.133  14.336   8.112 -0.0917  0.3921  0.1083
  312loPI   C5A 4987  18.366  14.357   7.765 -0.2741  0.0693  0.0488
  312loPI   C6A 4988  18.666  14.540   7.519  0.4505  0.0643  0.0637
  312loPI   C1B 4989  18.553  14.820   8.973  0.0852  0.2046 -0.1542
  312loPI   C2B 4990  18.569  14.597   8.614  0.0365 -0.1098  0.0918
  312loPI   C3B 4991  18.592  14.520   8.179 -0.1301 -0.1945  0.2448
  312loPI   C4B 4992  18.795  14.292   7.947  0.1011  0.0058 -0.3268
  313loPI    C1 4993   4.375   0.657  10.372  0.2405  0.2668  0.2014
  313loPI    C2 4994   4.010   0.572  10.510  0.0666  0.3258 -0.2062
  313loPI    C3 4995   4.326   0.554  10.755 -0.1403 -0.1954  0.0378
  313loPI   PO4 4996   4.381   0.480  10.139  0.5055  0.0606  0.3155
  313loPI   GL1 4997   4.351   0.483   9.730 -0.1533 -0.1670 -0.1480
  313loPI   GL2 4998   4.175   0.626   9.579 -0.2448 -0.0470 -0.0048
  313loPI   C1A 4999   4.405   0.363   9.248 -0.0191 -0.0108 -0.2040
  313loPI   C2A 5000   4.460   0.314   8.789  0.0334  0.3624  0.4551
  313loPI   C3A 5001   4.385   0.321   8.414  0.1369  0.2714 -0.0908
  313loPI   C4A 5002   4.485   0.417   8.000 -0.3765 -0.0260  0.2827
  313loPI   C5A 5003   4.607   0.762   7.686  0.3158  0.1322 -0.0472
  313loPI   C6A 5004   4.880   0.658   7.330 -0.0800  0.0760 -0.2798
  313loPI   C1B 5005   3.959   0.662   9.188 -0.1963  0.0886 -0.0720
  313loPI   C2B 5006   4.008   0.577   8.716 -0.0706  0.3526 -0.0755
  313loPI   C3B 5007   3.937   0.576   8.315  0.1177 -0.2120  0.0709
  313loPI   C4B 5008   4.046   0.593   7.818 -0.1214 -0.0115  0.1408
  314loPI    C1 5009  13.440   5.846  10.292  0.0491  0.1408  0.1242
  314loPI    C2 5010  13.504   5.750  10.675  0.1197 -0.0524  0.0652
  314loPI    C3 5011  13.139   5.862  10.555  0.0576 -0.1565  0.1552
  314loPI   PO4 5012  13.605   6.006  10.225  0.0075  0.0230 -0.1584
  314loPI   GL1 5013  13.559   6.228   9.789 -0.1944 -0.0695 -0.0627
  314loPI   GL2 5014  13.668   6.406   9.538 -0.1259  0.0421  0.1617
  314loPI   C1A 5015  13.374   6.023   9.350  0.0306  0.2939  0.4160
  314loPI   C2A 5016  13.298   5.808   8.918 -0.1226  0.0410 -0.3009
  314loPI   C3A 5017  13.312   5.938   8.501  0.0739 -0.0865 -0.3029
  314loPI   C4A 5018  13.183   6.244   8.247 -0.1361 -0.0086  0.2317
  314loPI   C5A 5019  13.157   6.471   7.942  0.2845 -0.0670 -0.1487
  314loPI   C6A 5020  13.271   6.590   7.531  0.0122 -0.0621 -0.0914
  314loPI   C1B 5021  13.823   6.311   9.150  0.0604 -0.1051 -0.2401
  314loPI   C2B 5022  13.658   6.305   8.770 -0.0274  0.3857 -0.2772
  314loPI   C3B 5023  13.784   6.316   8.336  0.0352 -0.0761 -0.2846
  314loPI   C4B 5024  13.604   6.226   7.928 -0.2467  0.0145  0.2092
  315loPI    C1 5025   6.005   5.364  11.215  0.2312  0.3998  0.2496
  315loPI    C2 5026   6.231   5.033  11.206 -0.0957  0.1721  0.2413
  315loPI    C3 5027   6.151   5.212  11.555 -0.0273  0.1671  0.2596
  315loPI   PO4 5028   6.122   5.436  10.872 -0.2119 -0.0561  0.0106
  315loPI   GL1 5029   6.185   5.467  10.405  0.2187  0.0892  0.2188
  315loPI   GL2 5030   6.268   5.780  10.305 -0.0924  0.3093  0.1983
  315loPI   C1A 5031   6.224   5.366   9.914  0.0614  0.0244 -0.0671
  315loPI   C2A 5032   6.304   5.379   9.532  0.0130 -0.2260  0.1019
  315loPI   C3A 5033   6.452   5.092   9.257  0.0288 -0.3470  0.2105
  315loPI   C4A 5034   6.542   4.932   8.903 -0.3366  0.4491 -0.0241
  315loPI   C5A 5035   6.763   4.840   8.569 -0.2069  0.1733  0.1210
  315loPI   C6A 5036   7.064   4.726   8.248  0.0288 -0.0854  0.2302
  315loPI   C1B 5037   6.240   5.885   9.923 -0.1006 -0.5884  0.0109
  315loPI   C2B 5038   6.337   5.814   9.386  0.0780  0.0432  0.2400
  315loPI   C3B 5039   6.426   5.743   9.019 -0.1531  0.0100  0.0455
  315loPI   C4B 5040   6.594   5.869   8.685 -0.3150  0.0822 -0.1016
  316loPI    C1 5041   2.404   7.690  10.236  0.1028  0.0813  0.1388
  316loPI    C2 5042   2.622   7.357  10.281 -0.0128 -0.0354 -0.1398
  316loPI    C3 5043   2.328   7.441  10.539 -0.0740 -0.2220 -0.1472
  316loPI   PO4 5044   2.320   7.655   9.964  0.1622  0.1134 -0.1232
  316loPI   GL1 5045   2.157   7.533   9.606 -0.1012  0.1595  0.0118
  316loPI   GL2 5046   1.887   7.573   9.770  0.1380  0.0448 -0.0678
  316loPI   C1A 5047   2.197   7.198   9.507 -0.1288  0.2813  0.0124
  316loPI   C2A 5048   2.281   7.096   9.121 -0.2309 -0.1063  0.0054
  316loPI   C3A 5049   2.223   6.982   8.765  0.1203 -0.2806  0.0875
  316loPI   C4A 5050   2.396   6.843   8.389 -0.2802  0.1489  0.1446
  316loPI   C5A 5051   2.461   6.444   8.202  0.1011 -0.1712 -0.0619
  316loPI   C6A 5052   2.435   6.125   7.778  0.0383  0.0454 -0.2809
  316loPI   C1B 5053   1.766   7.715   9.321 -0.2693 -0.0168  0.2038
  316loPI   C2B 5054   1.920   7.938   8.879  0.0289 -0.2501 -0.2504
  316loPI   C3B 5055   1.780   7.844   8.445 -0.1909  0.2949 -0.1626
  316loPI   C4B 5056   1.989   7.925   8.028 -0.0344 -0.0629 -0.0839
  317loPI    C1 5057   6.503  15.598  10.586 -0.0593  0.0378 -0.0726
  317loPI    C2 5058   6.781  15.705  10.853 -0.0507  0.1534 -0.1274
  317loPI    C3 5059   6.536  15.399  10.932  0.1235  0.0198 -0.0995
  317loPI   PO4 5060   6.576  15.664  10.345  0.0901 -0.3816 -0.2095
  317loPI   GL1 5061   6.702  15.371  10.032 -0.0302 -0.2057 -0.0290
  317loPI   GL2 5062   6.923  15.252   9.892  0.0384  0.0057  0.0746
  317loPI   C1A 5063   6.453  15.551   9.655  0.1337  0.0213 -0.0623
  317loPI   C2A 5064   6.403  15.675   9.170  0.0259 -0.2038 -0.1098
  317loPI   C3A 5065   6.430  15.640   8.770  0.0420 -0.0817  0.0281
  317loPI   C4A 5066   6.532  15.683   8.344 -0.0347  0.0931 -0.3439
  317loPI   C5A 5067   6.819  15.811   8.008 -0.1163 -0.4067 -0.3805
  317loPI   C6A 5068   7.041  16.247   7.946 -0.0641  0.0931  0.2958
  317loPI   C1B 5069   6.832  15.314   9.493 -0.0196 -0.1847 -0.0401
  317loPI   C2B 5070   6.799  15.336   9.080 -0.1508  0.0651 -0.1360
  317loPI   C3B 5071   6.922  15.332   8.654  0.0931  0.3739  0.0938
  317loPI   C4B 5072   7.058  15.408   8.226 -0.0560 -0.0254  0.1066
  318loPI    C1 5073  14.537   2.769   9.890  0.1164  0.0930  0.0465
  318loPI    C2 5074  14.666   2.428  10.055  0.0807  0.0674  0.0217
  318loPI    C3 5075  14.739   2.777  10.235 -0.2272  0.0158  0.2539
  318loPI   PO4 5076  14.606   2.917   9.669 -0.0853  0.1282  0.4654
  318loPI   GL1 5077  14.605   2.858   9.259  0.0946 -0.0320  0.0516
  318loPI   GL2 5078  14.321   2.654   9.360  0.2267  0.1484 -0.0249
  318loPI   C1A 5079  14.547   2.892   8.787  0.4245  0.2745 -0.3119
  318loPI   C2A 5080  14.523   2.835   8.394 -0.2899 -0.0881 -0.0386
  318loPI   C3A 5081  14.470   2.852   7.939 -0.2927  0.0473 -0.0051
  318loPI   C4A 5082  14.382   3.005   7.530 -0.3214  0.2067  0.1073
  318loPI   C5A 5083  14.313   3.210   7.155 -0.0149  0.1891 -0.1088
  318loPI   C6A 5084  13.976   3.107   6.929 -0.0729  0.1474 -0.0722
  318loPI   C1B 5085  14.158   2.512   9.054  0.1544  0.1537  0.1923
  318loPI   C2B 5086  14.200   2.542   8.660  0.0200 -0.0132 -0.1772
  318loPI   C3B 5087  14.075   2.552   8.175  0.1596 -0.1225  0.1534
  318loPI   C4B 5088  14.151   2.529   7.741  0.1064 -0.1170  0.0340
  319loPI    C1 5089  16.163  12.582  10.347 -0.0308  0.1697  0.0802
  319loPI    C2 5090  16.167  12.694  10.731  0.3409  0.1148  0.0959
  319loPI    C3 5091  16.311  12.336  10.625 -0.0679 -0.0096 -0.0573
  319loPI   PO4 5092  16.226  12.791  10.183 -0.2215 -0.1802 -0.1129
  319loPI   GL1 5093  16.203  12.826   9.776 -0.1435  0.0458  0.1523
  319loPI   GL2 5094  16.402  12.584   9.633 -0.2216  0.0455  0.0412
  319loPI   C1A 5095  16.128  13.037   9.469  0.4416 -0.2136 -0.4236
  319loPI   C2A 5096  16.162  13.442   9.199  0.2421  0.0068 -0.1093
  319loPI   C3A 5097  16.352  13.583   8.983  0.0140  0.0302 -0.1189
  319loPI   C4A 5098  16.572  13.744   8.640 -0.1030  0.0494 -0.4169
  319loPI   C5A 5099  16.759  13.929   8.305  0.0236  0.0305  0.0225
  319loPI   C6A 5100  16.756  14.093   7.935  0.0171  0.2713 -0.0391
  319loPI   C1B 5101  16.646  12.889   9.444  0.0574 -0.2479  0.0966
  319loPI   C2B 5102  16.673  12.959   9.023 -0.0050  0.2673  0.0682
  319loPI   C3B 5103  16.765  13.287   8.810 -0.2033 -0.0672  0.3420
  319loPI   C4B 5104  16.799  13.386   8.342  0.3191 -0.4896 -0.0647
  320loPI    C1 5105   6.664   2.472  10.988 -0.0220  0.0842  0.0697
  320loPI    C2 5106   6.353   2.524  11.234  0.0320 -0.0688  0.1723
  320loPI    C3 5107   6.725   2.585  11.367  0.0456  0.1508  0.0393
  320loPI   PO4 5108   6.611   2.562  10.655  0.0091 -0.3273 -0.0594
  320loPI   GL1 5109   6.481   2.461  10.238  0.0183  0.1884  0.0192
  320loPI   GL2 5110   6.734   2.438  10.012 -0.1936 -0.0959  0.0177
  320loPI   C1A 5111   6.275   2.455   9.897 -0.1768  0.0969 -0.0157
  320loPI   C2A 5112   6.332   2.420   9.453 -0.2739  0.0628  0.0995
  320loPI   C3A 5113   6.308   2.303   9.019  0.3902  0.0450  0.3534
  320loPI   C4A 5114   6.374   2.425   8.542  0.0205 -0.1712  0.0615
  320loPI   C5A 5115   6.305   2.826   8.237  0.4071 -0.1183  0.0051
  320loPI   C6A 5116   6.371   3.250   8.247 -0.1551 -0.0490  0.1415
  320loPI   C1B 5117   6.736   2.712   9.791 -0.0294 -0.2410  0.3482
  320loPI   C2B 5118   6.777   2.741   9.324 -0.4250  0.2992  0.0453
  320loPI   C3B 5119   6.752   2.605   8.902 -0.4047  0.0022  0.0491
  320loPI   C4B 5120   6.849   2.763   8.561  0.0619 -0.0825  0.1925
  321loPI    C1 5121  12.818  16.974   9.922 -0.1404  0.1550  0.1569
  321loPI    C2 5122  13.144  17.162  10.057  0.0500  0.0230 -0.1085
  321loPI    C3 5123  13.149  16.766  10.005 -0.1686  0.0145 -0.0742
  321loPI   PO4 5124  12.662  17.066   9.697  0.2430 -0.3277  0.3736
  321loPI   GL1 5125  12.575  17.078   9.341  0.0172 -0.3560  0.1915
  321loPI   GL2 5126  12.676  16.816   9.218  0.0199  0.1814 -0.4607
  321loPI   C1A 5127  12.368  17.100   9.007 -0.2142 -0.0891 -0.1418
  321loPI   C2A 5128  12.353  17.136   8.552  0.0458 -0.1293 -0.1312
  321loPI   C3A 5129  12.149  17.030   8.199  0.1621 -0.1474  0.1954
  321loPI   C4A 5130  12.240  16.720   7.843 -0.0322 -0.2345  0.0187
  321loPI   C5A 5131  12.444  16.469   7.541  0.0320 -0.3291 -0.2759
  321loPI   C6A 5132  12.787  16.135   7.626  0.1563  0.0770  0.0212
  321loPI   C1B 5133  12.786  16.821   8.851 -0.0067  0.0192  0.1068
  321loPI   C2B 5134  12.800  16.865   8.482  0.1960 -0.1456  0.0765
  321loPI   C3B 5135  12.843  16.769   8.113 -0.1640 -0.1016  0.1314
  321loPI   C4B 5136  12.815  16.891   7.691 -0.1903  0.1629  0.1314
  322loPI    C1 5137  13.708   0.242  10.317  0.1389 -0.0631 -0.3386
  322loPI    C2 5138  13.689   0.603  10.488 -0.0494  0.0005 -0.4891
  322loPI    C3 5139  13.911   0.314  10.653 -0.2383  0.0546 -0.1299
  322loPI   PO4 5140  13.737   0.357  10.047  0.2729 -0.3822  0.4386
  322loPI   GL1 5141  13.562   0.590   9.726 -0.1278 -0.1785  0.3247
  322loPI   GL2 5142  13.690   0.898   9.655 -0.0360 -0.0040 -0.3760
  322loPI   C1A 5143  13.503   0.433   9.381  0.2237 -0.0881  0.2294
  322loPI   C2A 5144  13.556   0.235   8.988 -0.1095 -0.0543  0.5022
  322loPI   C3A 5145  13.467   0.257   8.626 -0.1639 -0.1234  0.2503
  322loPI   C4A 5146  13.499   0.201   8.195  0.1395 -0.1466 -0.1566
  322loPI   C5A 5147  13.402   0.161   7.781 -0.0734 -0.3221  0.3292
  322loPI   C6A 5148  13.009   0.192   7.638  0.0689  0.1100  0.0628
  322loPI   C1B 5149  13.541   0.912   9.265  0.0092 -0.3952  0.0366
  322loPI   C2B 5150  13.415   0.716   8.884  0.0128 -0.0052 -0.1172
  322loPI   C3B 5151  13.454   0.699   8.430  0.0459 -0.1350  0.1694
  322loPI   C4B 5152  13.387   0.714   8.014 -0.1457  0.0099  0.0327
  323loPI    C1 5153   0.689  15.305  10.118  0.3526  0.0991  0.0079
  323loPI    C2 5154   0.699  15.003  10.380 -0.1600 -0.0390 -0.1200
  323loPI    C3 5155   0.697  15.381  10.511 -0.2251 -0.1037  0.0693
  323loPI   PO4 5156   0.695  15.168   9.857 -0.1210  0.0614 -0.0816
  323loPI   GL1 5157   0.592  15.197   9.440  0.4541 -0.0902  0.1452
  323loPI   GL2 5158   0.822  15.472   9.324  0.2369 -0.0833  0.1006
  323loPI   C1A 5159   0.590  14.966   9.089  0.1865 -0.1128 -0.1263
  323loPI   C2A 5160   0.680  15.010   8.698 -0.0842  0.2055 -0.1449
  323loPI   C3A 5161   0.800  15.095   8.235 -0.1712  0.1190 -0.3897
  323loPI   C4A 5162   0.958  15.369   7.957  0.0002 -0.2514 -0.0361
  323loPI   C5A 5163   0.686  15.521   7.606 -0.0132 -0.0880  0.1836
  323loPI   C6A 5164   0.284  15.517   7.388  0.0348  0.1084 -0.0564
  323loPI   C1B 5165   0.597  15.461   8.910 -0.1484  0.0047 -0.1379
  323loPI   C2B 5166   0.665  15.506   8.481  0.2767 -0.0927 -0.1276
  323loPI   C3B 5167   0.723  15.771   8.085 -0.3317 -0.2119  0.0642
  323loPI   C4B 5168   0.932  16.084   7.811  0.1315 -0.0430 -0.1556
  324loPI    C1 5169   3.440   6.127  10.562 -0.1420  0.2142 -0.2623
  324loPI    C2 5170   3.115   6.203  10.783 -0.1157  0.1377 -0.1966
  324loPI    C3 5171   3.480   6.263  10.936 -0.0969  0.0439 -0.2042
  324loPI   PO4 5172   3.356   6.033  10.366 -0.2015  0.0861 -0.1058
  324loPI   GL1 5173   3.244   6.003   9.969  0.1258 -0.0037  0.1412
  324loPI   GL2 5174   3.031   6.202   9.996 -0.1010 -0.0645 -0.2435
  324loPI   C1A 5175   3.170   6.098   9.540 -0.1566  0.2187 -0.1411
  324loPI   C2A 5176   3.167   6.046   9.141  0.1588 -0.0011  0.2297
  324loPI   C3A 5177   3.205   5.888   8.719 -0.1671  0.2988 -0.1359
  324loPI   C4A 5178   3.289   5.985   8.248 -0.2697  0.2656 -0.2190
  324loPI   C5A 5179   3.410   6.109   7.949  0.0223 -0.0029 -0.1771
  324loPI   C6A 5180   3.512   5.820   7.660  0.0838 -0.1177 -0.1640
  324loPI   C1B 5181   2.766   6.353   9.645  0.0893  0.2169  0.2063
  324loPI   C2B 5182   2.630   6.224   9.298 -0.0540 -0.0908  0.1411
  324loPI   C3B 5183   2.848   6.302   8.894  0.1911  0.3700  0.1328
  324loPI   C4B 5184   2.845   6.356   8.464  0.1091  0.2414  0.1619
  325loPI    C1 5185  14.868   6.965  10.054  0.0456 -0.0739 -0.0029
  325loPI    C2 5186  15.081   7.038  10.385 -0.1301 -0.0022  0.0961
  325loPI    C3 5187  14.698   7.150  10.365 -0.1108  0.0270 -0.1467
  325loPI   PO4 5188  15.095   7.090   9.776  0.2413  0.0202  0.1173
  325loPI   GL1 5189  15.150   7.135   9.344  0.3850  0.4737  0.0033
  325loPI   GL2 5190  15.207   7.516   9.418  0.0320 -0.4385 -0.0365
  325loPI   C1A 5191  14.959   6.769   9.192  0.0659 -0.2484 -0.2614
  325loPI   C2A 5192  14.652   6.683   8.841 -0.1564 -0.2063  0.2304
  325loPI   C3A 5193  14.679   6.775   8.440  0.0480  0.0361  0.1459
  325loPI   C4A 5194  14.607   6.880   8.044  0.3845  0.0149  0.2627
  325loPI   C5A 5195  14.277   6.603   7.805 -0.0161 -0.1399  0.1687
  325loPI   C6A 5196  13.848   6.549   7.693  0.4018  0.0434  0.0386
  325loPI   C1B 5197  14.968   7.622   8.908 -0.0287 -0.0327  0.0001
  325loPI   C2B 5198  14.757   7.653   8.540 -0.1094  0.1755 -0.2080
  325loPI   C3B 5199  14.428   7.824   8.311  0.0753  0.1190 -0.0932
  325loPI   C4B 5200  14.262   7.936   7.950 -0.0050  0.2685  0.1099
  326loPI    C1 5201   3.673  16.880  10.092 -0.1615  0.1047 -0.0337
  326loPI    C2 5202   3.444  16.608  10.276 -0.2489  0.2609  0.0898
  326loPI    C3 5203   3.828  16.651  10.382 -0.1481 -0.0306 -0.1468
  326loPI   PO4 5204   3.556  16.959   9.939 -0.1821 -0.1177 -0.0498
  326loPI   GL1 5205   3.534  16.895   9.520 -0.2221 -0.2115  0.0535
  326loPI   GL2 5206   3.648  16.675   9.374  0.2041  0.0661 -0.1343
  326loPI   C1A 5207   3.490  17.135   9.131 -0.0020 -0.1260  0.2610
  326loPI   C2A 5208   3.626  17.134   8.797 -0.1048 -0.0098 -0.1743
  326loPI   C3A 5209   3.927  17.244   8.533 -0.1213 -0.2018  0.0439
  326loPI   C4A 5210   4.096  17.343   8.069  0.0433 -0.0142 -0.0814
  326loPI   C5A 5211   4.005  17.484   7.636  0.1992 -0.1048 -0.2905
  326loPI   C6A 5212   4.386  17.363   7.402  0.2426  0.1365  0.1468
  326loPI   C1B 5213   3.697  16.675   8.941 -0.0118 -0.2098  0.1355
  326loPI   C2B 5214   3.897  16.748   8.565 -0.0943  0.1025  0.2387
  326loPI   C3B 5215   4.066  16.808   8.287  0.1953  0.0562  0.1701
  326loPI   C4B 5216   4.056  16.727   7.917 -0.3074 -0.3817  0.2192
  327loPI    C1 5217   7.361  18.471  10.762 -0.0059  0.0807 -0.0721
  327loPI    C2 5218   7.689  18.460  10.990 -0.2397  0.1440  0.2736
  327loPI    C3 5219   7.603  18.152  10.751  0.1645  0.2043  0.0403
  327loPI   PO4 5220   7.381  18.743  10.542  0.1102  0.5671 -0.0663
  327loPI   GL1 5221   7.443  18.901  10.188 -0.1480 -0.3247 -0.2998
  327loPI   GL2 5222   7.770  19.027  10.212  0.0168  0.2007  0.0436
  327loPI   C1A 5223   7.271  18.920   9.715  0.1017 -0.2604  0.0264
  327loPI   C2A 5224   7.180  19.012   9.376  0.1227  0.3382  0.1396
  327loPI   C3A 5225   7.219  18.985   8.986 -0.1432 -0.1222  0.0440
  327loPI   C4A 5226   7.149  19.036   8.507 -0.0747 -0.3402 -0.0196
  327loPI   C5A 5227   6.968  19.044   8.119  0.1680  0.0464 -0.3775
  327loPI   C6A 5228   6.896  19.300   7.710 -0.0163  0.0985 -0.0694
  327loPI   C1B 5229   7.754  18.685   9.892 -0.1650 -0.0490 -0.1615
  327loPI   C2B 5230   7.688  18.725   9.394  0.1026 -0.0423 -0.2547
  327loPI   C3B 5231   7.641  18.742   8.982 -0.0481 -0.0716 -0.0088
  327loPI   C4B 5232   7.617  18.727   8.557  0.1858 -0.2657 -0.2724
  328loPI    C1 5233   4.511  14.680  10.434  0.0259  0.1790 -0.3125
  328loPI    C2 5234   4.550  14.943  10.733 -0.0786  0.2043 -0.3210
  328loPI    C3 5235   4.186  14.827  10.614 -0.0315 -0.0102 -0.2595
  328loPI   PO4 5236   4.677  14.725  10.304  0.1189 -0.1706  0.0905
  328loPI   GL1 5237   4.935  14.773   9.907 -0.0987  0.0301 -0.0705
  328loPI   GL2 5238   4.877  15.137   9.969  0.0362  0.3287 -0.1849
  328loPI   C1A 5239   5.026  14.871   9.544 -0.0560 -0.3541  0.1462
  328loPI   C2A 5240   5.194  14.896   9.058  0.1357  0.0702  0.1427
  328loPI   C3A 5241   5.111  14.884   8.676 -0.4192  0.2156  0.2439
  328loPI   C4A 5242   5.180  14.946   8.236  0.2273 -0.0805 -0.1730
  328loPI   C5A 5243   5.219  14.946   7.765 -0.1412  0.3872 -0.2809
  328loPI   C6A 5244   4.949  15.111   7.488  0.0364 -0.0273 -0.4784
  328loPI   C1B 5245   4.963  15.475   9.665  0.0706  0.0453  0.2883
  328loPI   C2B 5246   5.025  15.441   9.203 -0.2729  0.1972  0.0555
  328loPI   C3B 5247   5.094  15.364   8.815 -0.3980  0.1930 -0.0764
  328loPI   C4B 5248   5.153  15.505   8.397 -0.0669 -0.3743 -0.0608
  329loPI    C1 5249   5.722   2.074  10.549 -0.0092 -0.3245 -0.0061
  329loPI    C2 5250   5.609   1.891  10.887  0.3248 -0.2103  0.1723
  329loPI    C3 5251   5.523   2.278  10.831 -0.0319 -0.3135 -0.0299
  329loPI   PO4 5252   5.622   1.956  10.356 -0.2449 -0.1665 -0.2264
  329loPI   GL1 5253   5.517   1.888   9.918 -0.2669  0.0529 -0.0310
  329loPI   GL2 5254   5.556   1.626   9.975 -0.1055 -0.2848  0.1109
  329loPI   C1A 5255   5.389   1.946   9.459 -0.2310  0.0032  0.2498
  329loPI   C2A 5256   5.426   1.848   9.002 -0.2288  0.1002 -0.2638
  329loPI   C3A 5257   5.452   1.835   8.536 -0.1417  0.3274 -0.1221
  329loPI   C4A 5258   5.470   1.810   8.148 -0.2616  0.0153  0.4589
  329loPI   C5A 5259   5.710   2.086   7.827 -0.0246 -0.2587  0.0939
  329loPI   C6A 5260   5.922   2.449   7.708  0.0235  0.0115 -0.2916
  329loPI   C1B 5261   5.462   1.389   9.544  0.4350  0.1049  0.0340
  329loPI   C2B 5262   5.393   1.354   9.097 -0.2083 -0.4919 -0.1090
  329loPI   C3B 5263   5.457   1.291   8.635  0.1230 -0.2482 -0.0417
  329loPI   C4B 5264   5.427   1.323   8.194 -0.0997 -0.1650  0.1289
  330loPI    C1 5265   5.292  18.056  10.718  0.0579  0.1147  0.0049
  330loPI    C2 5266   4.921  18.194  10.778  0.0297  0.1453 -0.2316
  330loPI    C3 5267   5.020  17.828  10.903 -0.1323  0.0694 -0.3214
  330loPI   PO4 5268   5.310  17.982  10.374  0.2884  0.1997  0.1697
  330loPI   GL1 5269   5.108  17.904   9.962  0.0969  0.2429  0.0889
  330loPI   GL2 5270   4.817  17.750   9.793 -0.4588 -0.0413 -0.0640
  330loPI   C1A 5271   5.189  18.123   9.575  0.2117 -0.0549 -0.1788
  330loPI   C2A 5272   5.240  18.084   9.148  0.1051  0.0886  0.2474
  330loPI   C3A 5273   5.315  18.037   8.736  0.0562  0.1966  0.0516
  330loPI   C4A 5274   5.389  18.115   8.306  0.1396 -0.0102  0.0609
  330loPI   C5A 5275   5.367  18.249   7.996 -0.1589  0.1438  0.0825
  330loPI   C6A 5276   5.215  18.500   7.669  0.2454 -0.2132 -0.1369
  330loPI   C1B 5277   4.875  17.811   9.345  0.3099  0.2647 -0.1773
  330loPI   C2B 5278   4.789  17.700   8.939  0.0178  0.2166 -0.0731
  330loPI   C3B 5279   4.840  17.824   8.582 -0.4290  0.0399 -0.0848
  330loPI   C4B 5280   4.990  17.797   8.128 -0.2825 -0.2830 -0.1146
  331loPI    C1 5281   2.099   8.435  10.331 -0.1004 -0.2113 -0.1358
  331loPI    C2 5282   2.264   8.798  10.303 -0.1880 -0.1712 -0.1317
  331loPI    C3 5283   1.998   8.720  10.592 -0.4578 -0.1236 -0.3624
  331loPI   PO4 5284   2.139   8.353  10.117 -0.0988 -0.3241  0.2106
  331loPI   GL1 5285   2.205   8.463   9.761  0.0403  0.2915 -0.0913
  331loPI   GL2 5286   2.160   8.046   9.670 -0.1088 -0.0289  0.0723
  331loPI   C1A 5287   2.007   8.808   9.567  0.4062  0.2056  0.1489
  331loPI   C2A 5288   1.662   8.962   9.481 -0.2587  0.1489 -0.1035
  331loPI   C3A 5289   1.526   9.034   9.036  0.3118  0.2037  0.2210
  331loPI   C4A 5290   1.514   8.994   8.580  0.1408  0.3599 -0.0746
  331loPI   C5A 5291   1.438   8.915   8.156 -0.3116 -0.2033  0.0672
  331loPI   C6A 5292   1.449   8.792   7.748 -0.1422  0.2838  0.3330
  331loPI   C1B 5293   2.350   8.075   9.292  0.0128  0.0168  0.1061
  331loPI   C2B 5294   2.402   7.967   8.771 -0.1412 -0.0877 -0.0899
  331loPI   C3B 5295   2.319   7.810   8.381 -0.0010  0.0195 -0.2033
  331loPI   C4B 5296   2.451   7.641   8.007  0.0294  0.1062 -0.0297
  332loPI    C1 5297   0.336   5.246  10.093 -0.0417  0.1223  0.1956
  332loPI    C2 5298   0.098   5.105  10.382  0.2122 -0.0180  0.3395
  332loPI    C3 5299   0.433   5.302  10.477  0.0683  0.3327  0.1383
  332loPI   PO4 5300   0.101   5.361   9.990  0.4631  0.0242  0.2269
  332loPI   GL1 5301   0.013   5.517   9.643 -0.0896  0.0493 -0.1118
  332loPI   GL2 5302  -0.206   5.714   9.525  0.2630  0.1069 -0.0854
  332loPI   C1A 5303   0.017   5.164   9.299 -0.1512  0.3363  0.0637
  332loPI   C2A 5304   0.075   5.164   8.807  0.0271  0.2265  0.2294
  332loPI   C3A 5305  -0.045   5.280   8.371 -0.2838  0.1155  0.0432
  332loPI   C4A 5306  -0.020   5.270   7.915 -0.0103  0.0248  0.1640
  332loPI   C5A 5307  -0.248   5.638   7.736 -0.0519 -0.1993 -0.2577
  332loPI   C6A 5308   0.048   5.733   7.351  0.4170 -0.1522 -0.2318
  332loPI   C1B 5309  -0.410   5.482   9.264 -0.0140  0.1197  0.2165
  332loPI   C2B 5310  -0.454   5.463   8.789  0.3246  0.1988 -0.1252
  332loPI   C3B 5311  -0.669   5.359   8.403  0.0217 -0.2816  0.1875
  332loPI   C4B 5312  -0.624   5.297   8.028 -0.1800 -0.1926  0.2224
  333loPI    C1 5313  15.368   6.703  10.114 -0.1678  0.0169  0.0170
  333loPI    C2 5314  15.030   6.492  10.159 -0.0832 -0.0745  0.2428
  333loPI    C3 5315  15.240   6.604  10.481  0.0175  0.1213  0.1112
  333loPI   PO4 5316  15.392   6.682   9.843 -0.0926  0.4085 -0.1521
  333loPI   GL1 5317  15.535   6.766   9.465 -0.0289 -0.2370  0.3072
  333loPI   GL2 5318  15.809   7.009   9.371 -0.1081 -0.1324  0.1166
  333loPI   C1A 5319  15.410   6.840   9.034 -0.2136  0.0928  0.0004
  333loPI   C2A 5320  15.269   7.262   8.874  0.2913  0.1612  0.1251
  333loPI   C3A 5321  15.253   7.481   8.497  0.0705 -0.3898 -0.0640
  333loPI   C4A 5322  15.063   7.677   8.068 -0.0925 -0.3421  0.0810
  333loPI   C5A 5323  14.918   7.918   7.714  0.4079  0.0282 -0.0984
  333loPI   C6A 5324  15.070   8.056   7.193  0.1807 -0.1053 -0.3125
  333loPI   C1B 5325  15.745   7.166   8.988 -0.0052 -0.0287  0.1503
  333loPI   C2B 5326  15.700   7.259   8.524 -0.1819  0.1148  0.3692
  333loPI   C3B 5327  15.891   7.138   8.161  0.1830 -0.0944  0.0859
  333loPI   C4B 5328  15.693   6.976   7.761  0.0121 -0.2885 -0.1253
  334loPI    C1 5329  17.435   6.634  10.296  0.0980  0.2541  0.1154
  334loPI    C2 5330  17.657   6.557  10.619  0.0780 -0.2090  0.0269
  334loPI    C3 5331  17.261   6.604  10.655  0.0650 -0.3408  0.0612
  334loPI   PO4 5332  17.533   6.477  10.107 -0.2603  0.2363 -0.4036
  334loPI   GL1 5333  17.692   6.513   9.674 -0.1998 -0.1103 -0.0430
  334loPI   GL2 5334  18.014   6.411   9.586  0.1345  0.1007 -0.0533
  334loPI   C1A 5335  17.476   6.345   9.346  0.2314 -0.0258  0.1790
  334loPI   C2A 5336  17.478   6.184   8.964 -0.3097 -0.2263 -0.0997
  334loPI   C3A 5337  17.505   6.077   8.556 -0.1292 -0.1579 -0.1279
  334loPI   C4A 5338  17.526   6.301   8.030  0.4073 -0.3050 -0.1231
  334loPI   C5A 5339  17.132   6.292   7.621  0.0437 -0.1962 -0.0654
  334loPI   C6A 5340  16.816   6.261   7.369 -0.0312  0.2004  0.0674
  334loPI   C1B 5341  17.933   6.404   9.171  0.0916 -0.0977 -0.0306
  334loPI   C2B 5342  18.040   6.267   8.730 -0.1263  0.2122  0.0317
  334loPI   C3B 5343  17.981   6.338   8.286 -0.0730  0.1965 -0.0576
  334loPI   C4B 5344  18.151   6.548   7.867  0.1145 -0.2195  0.1913
  335loPI    C1 5345   0.239   4.408   9.928 -0.0198  0.1307 -0.0708
  335loPI    C2 5346   0.056   4.303   9.588  0.0135  0.0919 -0.0769
  335loPI    C3 5347  -0.161   4.411   9.906 -0.0228 -0.0381 -0.0570
  335loPI   PO4 5348   0.415   4.584   9.855  0.1159 -0.0247  0.1749
  335loPI   GL1 5349   0.281   4.701   9.446 -0.2376 -0.0477 -0.2121
  335loPI   GL2 5350   0.666   4.621   9.474 -0.1135  0.3388  0.1482
  335loPI   C1A 5351   0.411   4.877   9.008 -0.0563  0.0821 -0.1838
  335loPI   C2A 5352   0.571   4.983   8.571  0.3116  0.1301 -0.1246
  335loPI   C3A 5353   0.416   4.965   8.260  0.1341 -0.2723  0.0593
  335loPI   C4A 5354   0.544   4.921   7.805 -0.1495 -0.2442 -0.0802
  335loPI   C5A 5355   0.735   4.767   7.470  0.0234 -0.0984  0.0422
  335loPI   C6A 5356   0.967   4.735   7.134  0.2910 -0.1550  0.0662
  335loPI   C1B 5357   0.937   4.681   9.130  0.2044 -0.1035 -0.0176
  335loPI   C2B 5358   1.024   4.653   8.687  0.0684 -0.1293  0.0974
  335loPI   C3B 5359   0.897   4.591   8.282  0.0825 -0.3266 -0.2125
  335loPI   C4B 5360   1.019   4.601   7.856 -0.0151  0.2587 -0.0333
  336loPI    C1 5361  12.146   4.170  10.854  0.1995 -0.1794  0.1310
  336loPI    C2 5362  11.836   4.015  11.053  0.0710 -0.0251  0.0534
  336loPI    C3 5363  12.093   4.256  11.242  0.1798 -0.2013  0.1332
  336loPI   PO4 5364  12.066   4.215  10.521 -0.0494 -0.0848 -0.2345
  336loPI   GL1 5365  12.120   4.293  10.035 -0.2757 -0.1796  0.1191
  336loPI   GL2 5366  11.898   4.032  10.084 -0.4691  0.1601 -0.0572
  336loPI   C1A 5367  12.177   4.346   9.625 -0.1783 -0.0431 -0.2738
  336loPI   C2A 5368  12.212   4.364   9.118  0.0463  0.2934  0.0118
  336loPI   C3A 5369  12.169   4.374   8.708  0.2073  0.0179 -0.1221
  336loPI   C4A 5370  11.986   4.465   8.293 -0.1336  0.4361  0.2507
  336loPI   C5A 5371  12.045   4.313   7.925  0.2964  0.5856  0.2224
  336loPI   C6A 5372  11.903   4.138   7.550  0.0719  0.0264  0.1318
  336loPI   C1B 5373  11.791   4.088   9.662 -0.0670  0.1691  0.2101
  336loPI   C2B 5374  11.812   4.073   9.172  0.2998  0.0944  0.0750
  336loPI   C3B 5375  11.704   3.997   8.757  0.0267  0.2906  0.2929
  336loPI   C4B 5376  11.648   4.089   8.356  0.1973  0.2329 -0.3544
  337loPI    C1 5377   5.432   7.351  10.761  0.1045  0.0823  0.0220
  337loPI    C2 5378   5.344   7.681  10.969  0.0196  0.2034 -0.2023
  337loPI    C3 5379   5.721   7.549  10.953  0.0524  0.2844 -0.1048
  337loPI   PO4 5380   5.370   7.397  10.560  0.0921 -0.2046 -0.1806
  337loPI   GL1 5381   5.304   7.538  10.130 -0.1358 -0.2524  0.1075
  337loPI   GL2 5382   5.466   7.713   9.994 -0.1450  0.0071  0.1216
  337loPI   C1A 5383   5.167   7.210   9.854  0.0493 -0.1294 -0.1291
  337loPI   C2A 5384   5.025   6.889   9.635  0.0047  0.0556 -0.0337
  337loPI   C3A 5385   5.152   6.860   9.139  0.2753  0.0683 -0.4363
  337loPI   C4A 5386   4.955   7.061   8.779  0.0394  0.1364 -0.1608
  337loPI   C5A 5387   4.836   7.135   8.426 -0.3656 -0.2206 -0.0887
  337loPI   C6A 5388   4.917   7.461   8.084 -0.0973  0.0927  0.1007
  337loPI   C1B 5389   5.553   7.450   9.710  0.3740  0.1243 -0.2949
  337loPI   C2B 5390   5.355   7.292   9.414  0.1149 -0.4452 -0.1654
  337loPI   C3B 5391   5.261   7.391   8.997 -0.2377  0.1075  0.2074
  337loPI   C4B 5392   5.271   7.392   8.529  0.1519  0.2221 -0.0231
  338loPI    C1 5393  16.224  18.126   9.881  0.2496 -0.0549 -0.0769
  338loPI    C2 5394  16.212  17.779  10.079  0.0452 -0.0412 -0.0631
  338loPI    C3 5395  16.117  18.120  10.266  0.1112  0.0053 -0.1137
  338loPI   PO4 5396  16.031  18.076   9.567 -0.0253  0.5581 -0.3863
  338loPI   GL1 5397  15.967  18.273   9.130  0.1374  0.4850  0.2799
  338loPI   GL2 5398  16.163  18.519   9.130 -0.0427  0.0894  0.1701
  338loPI   C1A 5399  16.031  18.219   8.663  0.1083  0.1552 -0.3547
  338loPI   C2A 5400  16.095  18.080   8.197 -0.2219 -0.0693 -0.0486
  338loPI   C3A 5401  16.344  18.178   7.826 -0.0939  0.0611  0.0212
  338loPI   C4A 5402  16.298  18.371   7.417 -0.1499  0.1982  0.0285
  338loPI   C5A 5403  16.345  18.509   7.076  0.0797  0.0578  0.2749
  338loPI   C6A 5404  16.132  18.667   6.694  0.2135  0.1852  0.0396
  338loPI   C1B 5405  16.522  18.550   8.788 -0.0571  0.0558 -0.1305
  338loPI   C2B 5406  16.809  18.738   8.428 -0.1506 -0.0538 -0.0456
  338loPI   C3B 5407  16.938  18.953   8.047  0.2513  0.4236 -0.1724
  338loPI   C4B 5408  16.931  19.243   7.670  0.0585  0.1365  0.2389
  339loPI    C1 5409   2.297   0.080   9.965  0.0233 -0.4653 -0.2382
  339loPI    C2 5410   2.063   0.108  10.288  0.0968 -0.4666 -0.1846
  339loPI    C3 5411   2.395  -0.116  10.300  0.2707 -0.2114 -0.1579
  339loPI   PO4 5412   2.280   0.374   9.845  0.0739  0.0866 -0.1090
  339loPI   GL1 5413   2.339   0.500   9.445 -0.1123 -0.4473 -0.0437
  339loPI   GL2 5414   2.362   0.787   9.563 -0.3301 -0.1874 -0.2903
  339loPI   C1A 5415   2.262   0.695   9.050  0.0553 -0.0118  0.1519
  339loPI   C2A 5416   2.246   0.691   8.685 -0.0470  0.1485 -0.0986
  339loPI   C3A 5417   2.084   0.603   8.313  0.1746  0.0680  0.0945
  339loPI   C4A 5418   2.086   0.648   7.895  0.0080 -0.2855  0.1506
  339loPI   C5A 5419   2.247   0.654   7.472  0.3610  0.1561  0.0846
  339loPI   C6A 5420   2.507   0.684   7.164 -0.2919  0.1113  0.2952
  339loPI   C1B 5421   2.585   1.044   9.240  0.4168 -0.3548  0.3779
  339loPI   C2B 5422   2.694   0.910   8.833 -0.0356 -0.0969 -0.2590
  339loPI   C3B 5423   2.651   0.979   8.466 -0.0274  0.2121 -0.1554
  339loPI   C4B 5424   2.505   0.828   8.060  0.0328  0.1739  0.0994
  340loPI    C1 5425   8.115  14.962  10.618  0.4394 -0.1089 -0.1525
  340loPI    C2 5426   8.351  14.773  10.880 -0.0025 -0.1710  0.2131
  340loPI    C3 5427   8.156  15.105  10.989  0.0195 -0.0422 -0.1272
  340loPI   PO4 5428   8.255  14.868  10.355 -0.1643 -0.2402 -0.1116
  340loPI   GL1 5429   8.238  14.901   9.861 -0.0040  0.4422  0.0568
  340loPI   GL2 5430   8.332  15.193   9.883  0.2081 -0.3173  0.2551
  340loPI   C1A 5431   8.112  14.745   9.466 -0.0669 -0.1848 -0.0084
  340loPI   C2A 5432   7.938  14.828   9.024 -0.0580 -0.3007 -0.1098
  340loPI   C3A 5433   7.759  14.864   8.713  0.1899 -0.2256 -0.1356
  340loPI   C4A 5434   7.849  15.161   8.337 -0.0034  0.2514  0.1321
  340loPI   C5A 5435   8.053  15.316   8.000  0.0758  0.0144 -0.1876
  340loPI   C6A 5436   8.177  15.654   7.942  0.0283  0.0732 -0.2154
  340loPI   C1B 5437   8.320  15.197   9.392  0.1770  0.0255  0.5158
  340loPI   C2B 5438   8.305  15.261   9.052  0.0896 -0.0571 -0.2950
  340loPI   C3B 5439   8.262  15.162   8.692  0.4468  0.1954  0.0756
  340loPI   C4B 5440   8.340  15.030   8.273  0.2109 -0.1685  0.2075
  341loPI    C1 5441  15.767  13.302  10.215 -0.0987 -0.1303  0.0283
  341loPI    C2 5442  15.928  13.587  10.446 -0.0995 -0.1545  0.0588
  341loPI    C3 5443  15.610  13.381  10.575 -0.2400 -0.0129 -0.0583
  341loPI   PO4 5444  15.712  13.346   9.998 -0.0249 -0.0770  0.0936
  341loPI   GL1 5445  15.587  13.108   9.591  0.1616  0.0373 -0.1300
  341loPI   GL2 5446  15.579  12.796   9.568 -0.4334  0.1582  0.0253
  341loPI   C1A 5447  15.682  13.360   9.192 -0.3484 -0.0334 -0.0701
  341loPI   C2A 5448  15.833  13.267   8.729 -0.1084  0.2526 -0.3358
  341loPI   C3A 5449  15.993  13.030   8.392 -0.0802 -0.1707  0.0089
  341loPI   C4A 5450  16.302  13.043   8.093 -0.0024 -0.0591 -0.2180
  341loPI   C5A 5451  16.374  13.216   7.702  0.0984  0.3237 -0.4688
  341loPI   C6A 5452  16.242  13.657   7.406  0.0623 -0.1847 -0.1269
  341loPI   C1B 5453  15.926  12.595   9.373  0.1828  0.0189 -0.1604
  341loPI   C2B 5454  16.267  12.663   9.127 -0.2392  0.2156  0.1657
  341loPI   C3B 5455  16.218  12.952   8.841  0.1303 -0.0105  0.5431
  341loPI   C4B 5456  16.376  13.237   8.574  0.2109  0.0751 -0.0315
  342loPI    C1 5457   8.982   4.868  10.895  0.0833  0.1644  0.2759
  342loPI    C2 5458   8.975   4.566  11.157 -0.0166 -0.0311  0.0526
  342loPI    C3 5459   8.638   4.679  10.974  0.0305  0.1825  0.0955
  342loPI   PO4 5460   9.263   4.817  10.731  0.2846  0.0219  0.0155
  342loPI   GL1 5461   9.324   5.041  10.344  0.2620 -0.4519 -0.0964
  342loPI   GL2 5462   8.968   4.993  10.385  0.0810 -0.0076  0.1712
  342loPI   C1A 5463   9.332   5.102   9.912  0.0341 -0.2539  0.2458
  342loPI   C2A 5464   9.381   5.072   9.481  0.0841 -0.0442 -0.0794
  342loPI   C3A 5465   9.373   5.102   9.036 -0.2085  0.1821  0.0856
  342loPI   C4A 5466   9.294   4.946   8.588  0.3551 -0.1712 -0.1762
  342loPI   C5A 5467   9.124   5.137   8.348 -0.3921  0.0656 -0.0443
  342loPI   C6A 5468   9.231   5.559   8.197  0.3331 -0.0547  0.1420
  342loPI   C1B 5469   8.831   4.827  10.049  0.1834 -0.3223  0.1795
  342loPI   C2B 5470   8.875   4.767   9.651 -0.1866 -0.0481  0.1043
  342loPI   C3B 5471   9.037   4.712   9.362  0.1204  0.0045  0.1669
  342loPI   C4B 5472   8.989   4.731   9.020 -0.0685  0.0813  0.2271
  343loPI    C1 5473   6.873   9.572  10.555  0.0520  0.3387 -0.0357
  343loPI    C2 5474   6.879   9.884  10.805 -0.0673  0.1591  0.1953
  343loPI    C3 5475   6.704   9.542  10.916 -0.0998  0.0676 -0.1263
  343loPI   PO4 5476   6.878   9.729  10.341  0.2024  0.1217  0.0047
  343loPI   GL1 5477   6.661   9.584   9.959 -0.1362  0.1758  0.0189
  343loPI   GL2 5478   6.486   9.841   9.852  0.0369 -0.2626 -0.0607
  343loPI   C1A 5479   6.719   9.204   9.633  0.1896  0.0948  0.0859
  343loPI   C2A 5480   6.496   8.786   9.410 -0.1322 -0.0411 -0.0265
  343loPI   C3A 5481   6.542   8.726   8.989 -0.1896 -0.0397  0.2091
  343loPI   C4A 5482   6.794   8.560   8.635 -0.0782  0.0287  0.1033
  343loPI   C5A 5483   7.088   8.350   8.257 -0.1436 -0.1314 -0.0946
  343loPI   C6A 5484   6.835   8.147   7.917 -0.0756  0.1739  0.1987
  343loPI   C1B 5485   6.657   9.775   9.511  0.1303 -0.0409 -0.1803
  343loPI   C2B 5486   6.843   9.462   9.293  0.2706 -0.0436  0.1443
  343loPI   C3B 5487   6.893   9.238   8.856 -0.1418 -0.2488  0.0351
  343loPI   C4B 5488   7.097   9.229   8.371 -0.0405  0.1115 -0.0848
  344loPI    C1 5489  10.183  12.971  10.302  0.0750 -0.1490  0.1194
  344loPI    C2 5490  10.531  12.902  10.487  0.0915  0.1188  0.1922
  344loPI    C3 5491  10.308  13.217  10.591  0.1262  0.3072 -0.2781
  344loPI   PO4 5492  10.229  13.027  10.018  0.0582 -0.0861 -0.1732
  344loPI   GL1 5493  10.189  12.969   9.640 -0.0830  0.2346 -0.3714
  344loPI   GL2 5494   9.908  12.968   9.501 -0.1459  0.2704  0.1242
  344loPI   C1A 5495  10.359  12.901   9.321  0.3175 -0.2315 -0.1967
  344loPI   C2A 5496  10.308  13.001   8.903  0.0071  0.0628  0.0300
  344loPI   C3A 5497  10.210  13.025   8.530  0.1977  0.0026  0.0623
  344loPI   C4A 5498  10.202  13.126   8.076  0.0692 -0.1272  0.0130
  344loPI   C5A 5499  10.170  13.150   7.658 -0.0845  0.0511 -0.2029
  344loPI   C6A 5500  10.119  13.371   7.261  0.3385  0.3447 -0.2593
  344loPI   C1B 5501   9.854  12.925   9.093  0.0662  0.1246 -0.0408
  344loPI   C2B 5502   9.772  12.770   8.670  0.2885  0.4329 -0.1576
  344loPI   C3B 5503   9.804  12.807   8.181 -0.3437  0.3681  0.1190
  344loPI   C4B 5504   9.739  12.962   7.768 -0.1705  0.0156  0.0995
  345loPI    C1 5505  17.220  13.119  10.261 -0.1042 -0.1745 -0.1518
  345loPI    C2 5506  17.485  13.087  10.559  0.0643  0.2864 -0.2437
  345loPI    C3 5507  17.150  12.869  10.565  0.2422  0.0126  0.0891
  345loPI   PO4 5508  17.290  13.054   9.991 -0.5017 -0.2535 -0.1541
  345loPI   GL1 5509  17.386  13.033   9.625 -0.0875 -0.0888  0.0056
  345loPI   GL2 5510  17.072  13.105   9.520  0.0302 -0.1478 -0.1062
  345loPI   C1A 5511  17.492  12.848   9.266 -0.1609 -0.1054  0.1751
  345loPI   C2A 5512  17.523  12.862   8.935 -0.0564 -0.0698  0.0304
  345loPI   C3A 5513  17.615  12.945   8.469 -0.2063  0.0329 -0.1568
  345loPI   C4A 5514  17.876  12.941   8.150  0.0894 -0.2102 -0.0279
  345loPI   C5A 5515  18.166  12.919   7.930  0.2269  0.1832  0.0155
  345loPI   C6A 5516  18.125  12.593   7.579 -0.2459  0.0558 -0.0385
  345loPI   C1B 5517  17.127  13.153   9.190 -0.0335  0.1143 -0.0992
  345loPI   C2B 5518  17.248  13.312   8.864 -0.0089  0.0178  0.0381
  345loPI   C3B 5519  17.173  13.593   8.498 -0.2021  0.0486 -0.2975
  345loPI   C4B 5520  17.208  13.715   8.059  0.2231 -0.1147  0.1228
  346loPI    C1 5521  16.740   5.914  10.192  0.0883 -0.0569 -0.0416
  346loPI    C2 5522  16.391   5.722  10.157  0.1362 -0.2146  0.3076
  346loPI    C3 5523  16.508   5.862  10.513  0.2908  0.1080  0.1345
  346loPI   PO4 5524  16.734   5.987   9.898  0.0921  0.1523 -0.0733
  346loPI   GL1 5525  16.883   5.826   9.478  0.0148  0.1567 -0.2140
  346loPI   GL2 5526  16.896   5.429   9.373  0.1369  0.2928  0.0450
  346loPI   C1A 5527  17.106   5.890   9.131  0.1748  0.2822  0.0424
  346loPI   C2A 5528  17.068   5.923   8.635 -0.2548  0.0380 -0.2008
  346loPI   C3A 5529  16.857   5.527   8.370  0.0630 -0.0647 -0.0147
  346loPI   C4A 5530  16.630   5.438   8.026 -0.3218 -0.2057  0.0421
  346loPI   C5A 5531  16.309   5.353   7.731  0.0045  0.0734 -0.0637
  346loPI   C6A 5532  16.215   5.282   7.411  0.1577 -0.0842 -0.1037
  346loPI   C1B 5533  17.133   5.357   8.909 -0.0154 -0.0371 -0.1428
  346loPI   C2B 5534  17.414   5.357   8.605 -0.1738  0.0296  0.1125
  346loPI   C3B 5535  17.654   5.302   8.229 -0.1575 -0.3468  0.0029
  346loPI   C4B 5536  17.823   5.532   7.826 -0.0991  0.1185  0.0357
  347loPI    C1 5537  10.839   3.883  10.811  0.1392  0.1392 -0.0895
  347loPI    C2 5538  11.032   4.126  11.063 -0.0403  0.3377 -0.1410
  347loPI    C3 5539  10.685   3.960  11.172  0.2247 -0.1359  0.0081
  347loPI   PO4 5540  10.853   4.018  10.578 -0.2069 -0.2087 -0.1118
  347loPI   GL1 5541  10.799   3.891  10.129 -0.3329  0.0206  0.0068
  347loPI   GL2 5542  10.956   4.162  10.129  0.1395  0.2792 -0.0920
  347loPI   C1A 5543  10.810   4.013   9.576 -0.0610  0.0202  0.1025
  347loPI   C2A 5544  10.800   3.894   9.150  0.2426 -0.0243  0.0096
  347loPI   C3A 5545  10.855   3.911   8.864  0.1197  0.0315  0.0147
  347loPI   C4A 5546  10.717   3.908   8.433 -0.0281  0.1972  0.2023
  347loPI   C5A 5547  10.459   4.197   8.083 -0.2340  0.1894 -0.4054
  347loPI   C6A 5548  10.133   4.504   8.141 -0.0178 -0.0139 -0.0453
  347loPI   C1B 5549  10.824   4.449   9.882  0.0254  0.1272  0.0833
  347loPI   C2B 5550  10.754   4.516   9.452 -0.0326  0.2111 -0.0647
  347loPI   C3B 5551  10.728   4.400   8.982  0.2249  0.0213 -0.0437
  347loPI   C4B 5552  10.633   4.448   8.521 -0.1734  0.0281  0.1201
  348loPI    C1 5553   9.275  12.781   9.906  0.0987 -0.2172 -0.2295
  348loPI    C2 5554   8.905  12.853   9.772  0.0404  0.0737  0.0735
  348loPI    C3 5555   8.970  12.553  10.029 -0.0069  0.0984  0.1145
  348loPI   PO4 5556   9.413  12.827   9.727  0.2703 -0.0950  0.2924
  348loPI   GL1 5557   9.499  12.704   9.334 -0.1002  0.3047 -0.4164
  348loPI   GL2 5558   9.212  12.828   9.233  0.4120 -0.2210  0.1551
  348loPI   C1A 5559   9.615  12.417   9.075 -0.1133 -0.0882  0.0750
  348loPI   C2A 5560   9.672  12.293   8.696  0.1600 -0.0945 -0.0845
  348loPI   C3A 5561   9.800  12.276   8.301  0.1086  0.2821  0.2263
  348loPI   C4A 5562   9.775  12.276   7.873 -0.0759  0.0518  0.1853
  348loPI   C5A 5563   9.718  11.965   7.507  0.1524  0.0953  0.1034
  348loPI   C6A 5564   9.785  11.597   7.309 -0.1271  0.1877  0.1300
  348loPI   C1B 5565   9.277  12.937   8.770  0.0719 -0.0645 -0.0665
  348loPI   C2B 5566   9.376  12.712   8.376 -0.0115  0.0497  0.0619
  348loPI   C3B 5567   9.372  12.414   8.084 -0.0987 -0.1686  0.1880
  348loPI   C4B 5568   9.385  12.384   7.657  0.1779  0.0840  0.0690
  349loPI    C1 5569  17.561   9.959  10.087  0.0006 -0.2544 -0.0924
  349loPI    C2 5570  17.956   9.941  10.149  0.0302 -0.0201 -0.2003
  349loPI    C3 5571  17.703   9.936  10.460  0.1203 -0.1119 -0.1280
  349loPI   PO4 5572  17.493   9.769   9.849 -0.1235 -0.0566  0.0212
  349loPI   GL1 5573  17.240   9.989   9.536  0.2112  0.0093 -0.0073
  349loPI   GL2 5574  17.160   9.721   9.381  0.1446  0.1558  0.0068
  349loPI   C1A 5575  17.300  10.193   9.195 -0.0932  0.0438  0.3035
  349loPI   C2A 5576  17.353  10.313   8.709  0.0347 -0.1438  0.3997
  349loPI   C3A 5577  17.463  10.277   8.307 -0.0618  0.1130  0.1324
  349loPI   C4A 5578  17.674   9.981   8.014 -0.1967  0.2395 -0.0854
  349loPI   C5A 5579  17.843   9.772   7.638  0.0237 -0.1931 -0.1482
  349loPI   C6A 5580  18.056   9.775   7.152 -0.1362  0.3478 -0.0950
  349loPI   C1B 5581  17.324   9.736   8.902  0.4445 -0.2578 -0.1102
  349loPI   C2B 5582  17.078   9.740   8.549  0.0236 -0.0653  0.1086
  349loPI   C3B 5583  17.104   9.801   8.088 -0.0631  0.3779 -0.0832
  349loPI   C4B 5584  17.329   9.654   7.708  0.2348 -0.1932 -0.0585
  350loPI    C1 5585   5.183   9.443  10.210  0.4179 -0.0807  0.0217
  350loPI    C2 5586   5.093   9.762  10.434 -0.2546  0.0350 -0.3840
  350loPI    C3 5587   4.929   9.407  10.517  0.3238 -0.1720 -0.0660
  350loPI   PO4 5588   5.433   9.458  10.253  0.1291  0.1278 -0.2083
  350loPI   GL1 5589   5.768   9.211   9.937 -0.0019 -0.0852 -0.0199
  350loPI   GL2 5590   5.682   9.473   9.720 -0.1718 -0.3904 -0.1141
  350loPI   C1A 5591   5.948   8.966   9.670  0.0800  0.1903 -0.1901
  350loPI   C2A 5592   5.990   8.950   9.173 -0.0345  0.1932  0.1361
  350loPI   C3A 5593   6.047   8.838   8.731 -0.1300  0.1602  0.1241
  350loPI   C4A 5594   6.327   8.687   8.439 -0.1617  0.0298  0.0364
  350loPI   C5A 5595   6.424   8.362   8.306  0.2220  0.2834  0.3173
  350loPI   C6A 5596   6.368   7.994   8.148 -0.3429 -0.0550  0.1686
  350loPI   C1B 5597   5.752   9.419   9.182  0.3047 -0.3793  0.0244
  350loPI   C2B 5598   5.916   9.398   8.767  0.3406 -0.2482 -0.1262
  350loPI   C3B 5599   6.102   9.310   8.441 -0.3932  0.1560  0.3090
  350loPI   C4B 5600   6.079   9.219   8.036  0.3123  0.1351  0.0280
  351loPI    C1 5601  14.472   1.989   9.837  0.2543 -0.1151 -0.2032
  351loPI    C2 5602  14.440   1.630  10.009 -0.1513  0.0443  0.0682
  351loPI    C3 5603  14.657   1.917  10.184  0.1577 -0.0576 -0.1393
  351loPI   PO4 5604  14.438   1.942   9.584  0.1472  0.1064 -0.1717
  351loPI   GL1 5605  14.316   2.113   9.325  0.0125 -0.0347 -0.0629
  351loPI   GL2 5606  14.019   2.142   9.362  0.0146  0.0005 -0.2271
  351loPI   C1A 5607  14.204   1.916   8.985 -0.1922 -0.1592 -0.0436
  351loPI   C2A 5608  14.195   1.980   8.697  0.1423 -0.0401  0.3363
  351loPI   C3A 5609  14.072   2.005   8.271 -0.3746  0.2683 -0.2009
  351loPI   C4A 5610  14.131   1.795   7.870 -0.1454  0.0295 -0.2246
  351loPI   C5A 5611  14.406   1.704   7.544  0.0372  0.0971 -0.1236
  351loPI   C6A 5612  14.822   1.644   7.367 -0.2837  0.3653 -0.2782
  351loPI   C1B 5613  13.718   2.146   8.930 -0.1194  0.0396  0.0568
  351loPI   C2B 5614  13.663   2.235   8.452 -0.1323  0.0517 -0.1111
  351loPI   C3B 5615  13.720   2.167   7.966  0.0380  0.3379  0.0473
  351loPI   C4B 5616  13.456   1.939   7.673 -0.2476 -0.0324  0.0055
  352loPI    C1 5617   7.100   4.336  11.301  0.0081 -0.0101  0.2124
  352loPI    C2 5618   6.920   4.635  11.497  0.2278  0.0335  0.3515
  352loPI    C3 5619   6.718   4.300  11.415 -0.0882  0.3009  0.0007
  352loPI   PO4 5620   7.214   4.474  11.083  0.2611 -0.0600 -0.0234
  352loPI   GL1 5621   7.067   4.588  10.738  0.0482 -0.2726 -0.0340
  352loPI   GL2 5622   7.168   4.856  10.421  0.1069 -0.0257  0.0683
  352loPI   C1A 5623   6.930   4.238  10.436 -0.0097  0.0323 -0.0727
  352loPI   C2A 5624   6.728   4.195  10.044 -0.1763 -0.2638  0.0435
  352loPI   C3A 5625   6.351   4.092   9.859  0.0807  0.3286  0.1115
  352loPI   C4A 5626   6.291   4.059   9.400 -0.1659 -0.0043 -0.1031
  352loPI   C5A 5627   6.383   3.974   9.015  0.1282 -0.3205 -0.0723
  352loPI   C6A 5628   6.511   4.106   8.496  0.1741  0.0839 -0.3227
  352loPI   C1B 5629   7.384   4.977  10.034 -0.1043  0.2839 -0.1232
  352loPI   C2B 5630   7.566   4.940   9.692 -0.1091  0.2047 -0.0494
  352loPI   C3B 5631   7.584   4.884   9.165 -0.3432 -0.2758  0.0481
  352loPI   C4B 5632   7.861   4.799   8.807 -0.3015 -0.2813  0.1932
  353loPI    C1 5633   8.084   0.384  10.733 -0.1016 -0.0801  0.0405
  353loPI    C2 5634   8.415   0.607  10.712 -0.1041 -0.0800  0.0016
  353loPI    C3 5635   8.278   0.486  11.068 -0.0469 -0.1028  0.0158
  353loPI   PO4 5636   8.221   0.233  10.494 -0.0111  0.3677  0.0742
  353loPI   GL1 5637   8.263   0.393  10.142 -0.1311  0.4685  0.0302
  353loPI   GL2 5638   8.361   0.736  10.251 -0.2598  0.0603 -0.2041
  353loPI   C1A 5639   8.501   0.530   9.807 -0.0302  0.3344  0.1090
  353loPI   C2A 5640   8.527   0.556   9.296  0.2091  0.1322  0.0157
  353loPI   C3A 5641   8.527   0.409   8.811  0.0526  0.1529 -0.2020
  353loPI   C4A 5642   8.503   0.506   8.273  0.0452  0.3477  0.6030
  353loPI   C5A 5643   8.184   0.625   7.991 -0.2277 -0.1123  0.3440
  353loPI   C6A 5644   7.969   0.712   7.628  0.0254  0.0200 -0.0864
  353loPI   C1B 5645   8.075   0.826   9.932 -0.0717  0.2093  0.0107
  353loPI   C2B 5646   8.086   0.725   9.505  0.0553  0.0140  0.1509
  353loPI   C3B 5647   8.092   0.709   9.042  0.0930  0.3524 -0.6037
  353loPI   C4B 5648   8.147   0.642   8.592  0.1267 -0.1258  0.0316
  354loPI    C1 5649  11.163   8.576  10.240  0.2573  0.0388 -0.1072
  354loPI    C2 5650  11.374   8.754  10.530 -0.1386 -0.0147  0.2230
  354loPI    C3 5651  11.221   8.389  10.589 -0.1368 -0.0703 -0.0957
  354loPI   PO4 5652  10.971   8.711  10.136  0.0165 -0.0425  0.1223
  354loPI   GL1 5653  10.994   8.812   9.657 -0.2509  0.1735  0.1638
  354loPI   GL2 5654  11.191   9.089   9.822 -0.2099 -0.0316  0.0135
  354loPI   C1A 5655  10.911   8.758   9.222  0.1041  0.0863 -0.0395
  354loPI   C2A 5656  10.957   8.628   8.799 -0.0846 -0.1620 -0.1534
  354loPI   C3A 5657  10.811   8.722   8.410 -0.1560  0.3474 -0.1205
  354loPI   C4A 5658  10.929   8.571   8.089 -0.0701 -0.1071 -0.0709
  354loPI   C5A 5659  11.245   8.360   7.916  0.1718 -0.3079 -0.2498
  354loPI   C6A 5660  11.290   8.468   7.501  0.0852 -0.0071  0.1922
  354loPI   C1B 5661  11.458   8.998   9.450 -0.5482  0.1809 -0.0635
  354loPI   C2B 5662  11.345   8.943   9.002 -0.0447  0.1263 -0.0907
  354loPI   C3B 5663  11.142   9.067   8.643  0.0449  0.2641  0.0472
  354loPI   C4B 5664  11.037   9.108   8.253  0.0731  0.0755 -0.0823
  355loPI    C1 5665   6.256   1.013  10.460  0.0940  0.0795 -0.4026
  355loPI    C2 5666   6.630   1.098  10.571  0.1028 -0.0461 -0.3347
  355loPI    C3 5667   6.418   0.824  10.773 -0.0684  0.1120 -0.2974
  355loPI   PO4 5668   6.229   1.227  10.319 -0.1864 -0.3765  0.1229
  355loPI   GL1 5669   6.494   1.162  10.010  0.1072 -0.0091 -0.1207
  355loPI   GL2 5670   6.413   1.496   9.931  0.1786  0.0744 -0.1691
  355loPI   C1A 5671   6.360   1.284   9.514  0.0011 -0.0706 -0.0134
  355loPI   C2A 5672   6.189   1.276   9.135 -0.3893 -0.1614  0.0592
  355loPI   C3A 5673   6.232   1.239   8.723 -0.3179 -0.0436 -0.1927
  355loPI   C4A 5674   6.148   1.331   8.209 -0.4709  0.1599 -0.0081
  355loPI   C5A 5675   5.937   1.619   8.003  0.1351 -0.2468 -0.1532
  355loPI   C6A 5676   6.135   1.985   7.673  0.0034 -0.1154  0.1760
  355loPI   C1B 5677   6.787   1.491   9.645 -0.2160 -0.1888 -0.3144
  355loPI   C2B 5678   6.815   1.484   9.364 -0.0126  0.1257 -0.1099
  355loPI   C3B 5679   6.822   1.642   9.027 -0.2424  0.3709  0.0654
  355loPI   C4B 5680   6.639   1.549   8.603  0.0278  0.0064 -0.1672
  356loPI    C1 5681   5.385   3.025  10.459 -0.2347 -0.3228  0.0522
  356loPI    C2 5682   5.124   3.220  10.691 -0.1464 -0.1509  0.0094
  356loPI    C3 5683   5.296   2.883  10.822 -0.1765 -0.1120  0.1504
  356loPI   PO4 5684   5.555   3.194  10.411  0.0434 -0.2895 -0.0152
  356loPI   GL1 5685   5.820   3.124  10.183  0.1485  0.0017  0.0888
  356loPI   GL2 5686   5.854   2.875  10.111  0.0056  0.3183 -0.4907
  356loPI   C1A 5687   5.877   3.372   9.744 -0.7751 -0.1388 -0.2729
  356loPI   C2A 5688   5.907   3.233   9.280 -0.2212  0.3502  0.3180
  356loPI   C3A 5689   5.867   3.171   8.785  0.0118 -0.2619  0.1322
  356loPI   C4A 5690   5.895   3.159   8.364 -0.0303 -0.0718  0.0791
  356loPI   C5A 5691   5.848   2.964   8.008  0.1163  0.2482 -0.0387
  356loPI   C6A 5692   5.479   2.711   7.788 -0.0046  0.0785 -0.0585
  356loPI   C1B 5693   5.883   2.846   9.654 -0.0013 -0.2230 -0.1065
  356loPI   C2B 5694   5.974   2.663   9.204 -0.0509 -0.3505  0.0897
  356loPI   C3B 5695   5.970   2.611   8.800 -0.4537  0.2783 -0.1090
  356loPI   C4B 5696   5.890   2.587   8.377  0.2222 -0.0295  0.1839
  357loPI    C1 5697   9.680   9.767  10.418 -0.0086  0.0588  0.0818
  357loPI    C2 5698   9.434   9.885  10.711  0.1120  0.0153  0.2019
  357loPI    C3 5699   9.668   9.566  10.764  0.0670 -0.0485  0.0225
  357loPI   PO4 5700   9.601   9.667  10.171  0.0743 -0.2302  0.0775
  357loPI   GL1 5701   9.665   9.712   9.720  0.1749  0.0825 -0.0630
  357loPI   GL2 5702  10.018   9.778   9.609  0.1598  0.4402  0.0988
  357loPI   C1A 5703   9.467   9.487   9.386  0.2424  0.2255  0.3071
  357loPI   C2A 5704   9.339   9.694   9.041 -0.0686 -0.1832 -0.1841
  357loPI   C3A 5705   9.387   9.911   8.672 -0.1648 -0.0110  0.1392
  357loPI   C4A 5706   9.394   9.892   8.322  0.0265 -0.1011 -0.0372
  357loPI   C5A 5707   9.326  10.093   7.952  0.2973  0.0423 -0.1187
  357loPI   C6A 5708   8.988   9.871   7.721  0.2001  0.0590  0.0335
  357loPI   C1B 5709   9.960   9.699   9.225 -0.1390 -0.2880 -0.0874
  357loPI   C2B 5710   9.740   9.469   8.869  0.2988  0.0430 -0.0835
  357loPI   C3B 5711   9.694   9.478   8.500 -0.0785  0.2160  0.6465
  357loPI   C4B 5712   9.569   9.338   8.193  0.0685 -0.1518  0.0022
  358loPI    C1 5713   6.761  11.833  10.524  0.3167  0.2129  0.0414
  358loPI    C2 5714   7.046  11.570  10.621  0.1276 -0.0994 -0.2269
  358loPI    C3 5715   6.724  11.612  10.855  0.2970  0.1152 -0.0258
  358loPI   PO4 5716   6.728  11.820  10.267  0.0454 -0.3235  0.0980
  358loPI   GL1 5717   6.545  11.594   9.996  0.1900 -0.0500 -0.0563
  358loPI   GL2 5718   6.827  11.805   9.782 -0.0223  0.3546  0.1027
  358loPI   C1A 5719   6.300  11.797   9.628  0.1559 -0.0587 -0.1379
  358loPI   C2A 5720   6.212  11.705   9.103  0.4451 -0.0952 -0.0492
  358loPI   C3A 5721   6.160  11.701   8.640  0.2082  0.0770  0.0349
  358loPI   C4A 5722   6.191  11.660   8.245  0.0817 -0.0326  0.3078
  358loPI   C5A 5723   5.949  11.819   7.953  0.1238 -0.2534 -0.1748
  358loPI   C6A 5724   5.930  11.809   7.502 -0.2702 -0.0858  0.0505
  358loPI   C1B 5725   6.792  11.493   9.409  0.0804 -0.0253  0.0364
  358loPI   C2B 5726   6.669  11.537   8.936 -0.0465 -0.1745 -0.2519
  358loPI   C3B 5727   6.638  11.721   8.491  0.1243  0.2595 -0.3569
  358loPI   C4B 5728   6.878  11.984   8.112 -0.2201 -0.2797 -0.1144
  359loPI    C1 5729   2.467   2.858  10.210  0.1646  0.0879  0.0570
  359loPI    C2 5730   2.376   2.554  10.455  0.1270 -0.0089 -0.0761
  359loPI    C3 5731   2.641   2.831  10.570 -0.1263  0.1224  0.2037
  359loPI   PO4 5732   2.148   3.060  10.049 -0.2412 -0.3045 -0.1190
  359loPI   GL1 5733   2.111   3.145   9.567  0.0763 -0.0103 -0.2796
  359loPI   GL2 5734   2.175   2.790   9.517  0.0683  0.0107  0.2728
  359loPI   C1A 5735   2.227   3.184   9.154 -0.2291  0.1433 -0.1960
  359loPI   C2A 5736   2.243   3.329   8.616 -0.0652  0.5129 -0.4200
  359loPI   C3A 5737   2.367   3.156   8.222  0.1124  0.2919  0.4697
  359loPI   C4A 5738   2.602   3.203   7.837  0.1515  0.1452  0.1836
  359loPI   C5A 5739   2.915   3.138   7.759  0.1177  0.0483  0.0557
  359loPI   C6A 5740   3.095   3.202   7.260 -0.2338 -0.1694  0.0149
  359loPI   C1B 5741   2.260   2.713   9.053  0.1159 -0.0520  0.2057
  359loPI   C2B 5742   2.273   2.841   8.632  0.0965  0.2108 -0.0240
  359loPI   C3B 5743   2.319   2.658   8.185  0.2280  0.0467 -0.0028
  359loPI   C4B 5744   2.354   2.666   7.831  0.1916 -0.2442 -0.0217
  360loPI    C1 5745  11.442  13.400  10.002  0.0269  0.1273  0.0805
  360loPI    C2 5746  11.180  13.573  10.250 -0.2705 -0.0224 -0.1229
  360loPI    C3 5747  11.067  13.262  10.026  0.1014 -0.1270 -0.1710
  360loPI   PO4 5748  11.571  13.547   9.765 -0.0435 -0.1202 -0.1574
  360loPI   GL1 5749  11.667  13.709   9.388  0.1480  0.0811 -0.2687
  360loPI   GL2 5750  11.870  14.025   9.416  0.0031 -0.1238 -0.0158
  360loPI   C1A 5751  11.632  13.541   8.846  0.0464  0.2440 -0.1646
  360loPI   C2A 5752  11.593  13.534   8.439 -0.0225  0.0785  0.0958
  360loPI   C3A 5753  11.477  13.603   8.016 -0.0415 -0.0291  0.4535
  360loPI   C4A 5754  11.122  13.605   7.609 -0.0329  0.1432  0.3391
  360loPI   C5A 5755  10.905  13.572   7.262  0.1593 -0.0519  0.0185
  360loPI   C6A 5756  10.946  13.918   6.988  0.3920 -0.1040  0.1566
  360loPI   C1B 5757  11.947  14.085   8.946  0.2927  0.0821 -0.2341
  360loPI   C2B 5758  11.876  13.968   8.585 -0.0913  0.1607 -0.1029
  360loPI   C3B 5759  11.693  14.071   8.183 -0.3096 -0.0441 -0.0718
  360loPI   C4B 5760  11.643  14.198   7.772 -0.0190  0.0324  0.2271
  361loPI    C1 5761  16.635   7.914   9.989 -0.1291 -0.0757 -0.1230
  361loPI    C2 5762  16.476   7.591   9.813 -0.4101 -0.0468  0.0705
  361loPI    C3 5763  16.535   7.595  10.209  0.1471 -0.0825 -0.0035
  361loPI   PO4 5764  16.482   8.101   9.873 -0.3775 -0.0902  0.1281
  361loPI   GL1 5765  16.382   8.183   9.517 -0.0611  0.1377 -0.0937
  361loPI   GL2 5766  16.448   7.865   9.387 -0.0381  0.1721 -0.0272
  361loPI   C1A 5767  16.329   8.454   9.230 -0.2930 -0.0261 -0.1264
  361loPI   C2A 5768  15.918   8.670   9.111 -0.6035  0.1650 -0.1070
  361loPI   C3A 5769  15.740   8.850   8.719  0.1292 -0.3732 -0.3098
  361loPI   C4A 5770  15.560   8.755   8.343  0.0711 -0.0032 -0.2257
  361loPI   C5A 5771  15.869   8.686   8.086  0.1352 -0.2507  0.3779
  361loPI   C6A 5772  16.275   8.480   7.984 -0.1578 -0.0074 -0.2599
  361loPI   C1B 5773  16.391   7.884   8.963  0.2266  0.1595 -0.0923
  361loPI   C2B 5774  16.516   7.712   8.563 -0.3697 -0.2947  0.0570
  361loPI   C3B 5775  16.637   7.619   8.210 -0.3576 -0.2400 -0.3053
  361loPI   C4B 5776  16.878   7.808   7.792  0.2878  0.0497 -0.1803
  362loPI    C1 5777   0.324   3.017   9.980 -0.2123 -0.2482 -0.3084
  362loPI    C2 5778  -0.036   2.994  10.151 -0.1604  0.2173 -0.1218
  362loPI    C3 5779   0.281   2.830  10.331 -0.1967  0.2377 -0.0385
  362loPI   PO4 5780   0.294   3.213   9.791 -0.0031  0.2238  0.0335
  362loPI   GL1 5781   0.378   3.160   9.325 -0.1348 -0.3882 -0.2817
  362loPI   GL2 5782   0.117   3.306   9.189  0.1977 -0.1568  0.0310
  362loPI   C1A 5783   0.797   3.097   9.110  0.2115  0.0845  0.0484
  362loPI   C2A 5784   0.939   3.075   8.779  0.1139  0.0020  0.0675
  362loPI   C3A 5785   0.986   3.008   8.258 -0.2957 -0.4845 -0.1895
  362loPI   C4A 5786   1.165   3.033   7.916 -0.0172 -0.4769  0.0085
  362loPI   C5A 5787   1.158   3.356   7.470  0.1969 -0.0938  0.2579
  362loPI   C6A 5788   0.914   3.448   7.154 -0.1351  0.1621 -0.0800
  362loPI   C1B 5789   0.000   3.248   8.804 -0.3069  0.0777 -0.0093
  362loPI   C2B 5790   0.004   3.164   8.337  0.0813 -0.1487  0.1573
  362loPI   C3B 5791   0.146   3.108   7.856  0.3079 -0.3102 -0.0139
  362loPI   C4B 5792   0.212   2.701   7.755  0.0199 -0.1305  0.1876
  363loPI    C1 5793  17.709  18.791  10.138  0.0841 -0.2227 -0.2117
  363loPI    C2 5794  17.676  18.553  10.458 -0.2342 -0.1872 -0.2147
  363loPI    C3 5795  17.970  18.823  10.440 -0.2394 -0.1589  0.0686
  363loPI   PO4 5796  17.679  18.644   9.908  0.0319  0.1825 -0.1110
  363loPI   GL1 5797  17.571  18.604   9.501 -0.0427 -0.2329 -0.0989
  363loPI   GL2 5798  17.238  18.811   9.397 -0.2405 -0.1841 -0.1478
  363loPI   C1A 5799  17.813  18.448   9.150 -0.0103 -0.1342  0.1899
  363loPI   C2A 5800  18.072  18.392   8.730 -0.0330 -0.1265  0.1386
  363loPI   C3A 5801  18.216  18.460   8.363  0.2841 -0.1488  0.1865
  363loPI   C4A 5802  18.477  18.628   8.021 -0.0333 -0.3627  0.3364
  363loPI   C5A 5803  18.416  19.019   7.585  0.0730 -0.0661  0.0086
  363loPI   C6A 5804  18.553  19.489   7.440 -0.0626  0.3233 -0.1028
  363loPI   C1B 5805  17.104  18.667   8.944 -0.0144  0.1204 -0.0039
  363loPI   C2B 5806  17.251  18.644   8.499 -0.1299 -0.1700 -0.3398
  363loPI   C3B 5807  17.333  18.528   8.088 -0.0524  0.3074 -0.0093
  363loPI   C4B 5808  17.089  18.558   7.654 -0.4618  0.0916  0.5252
  364loPI    C1 5809  15.818   3.460   9.499  0.1126  0.0568 -0.0056
  364loPI    C2 5810  15.768   3.193   9.206 -0.1045  0.1689 -0.0726
  364loPI    C3 5811  15.868   3.070   9.574  0.5137  0.0520 -0.2686
  364loPI   PO4 5812  15.578   3.562   9.486 -0.2840  0.0712  0.0099
  364loPI   GL1 5813  15.281   3.510   9.194  0.1265 -0.1283 -0.4198
  364loPI   GL2 5814  15.560   3.746   9.025  0.0594 -0.1550  0.1922
  364loPI   C1A 5815  15.575   3.229   8.780 -0.2281  0.0765  0.0130
  364loPI   C2A 5816  15.498   3.044   8.584 -0.3260 -0.4977  0.1310
  364loPI   C3A 5817  15.338   2.951   8.183 -0.0673  0.3049  0.0660
  364loPI   C4A 5818  15.290   2.902   7.694  0.0484  0.2163 -0.0403
  364loPI   C5A 5819  15.484   3.079   7.406  0.0534  0.0207  0.2816
  364loPI   C6A 5820  15.862   3.167   7.093 -0.3614  0.0121  0.0372
  364loPI   C1B 5821  15.319   3.731   8.556  0.0171 -0.1553 -0.2769
  364loPI   C2B 5822  15.231   3.787   8.218  0.2418 -0.1238 -0.2462
  364loPI   C3B 5823  15.349   3.794   7.952 -0.2040 -0.1784  0.0205
  364loPI   C4B 5824  15.548   3.876   7.660  0.1118 -0.3187 -0.0499
  365loPI    C1 5825   1.378  14.589  10.454 -0.0720  0.1821 -0.0523
  365loPI    C2 5826   1.484  14.900  10.683 -0.2266  0.1485  0.0660
  365loPI    C3 5827   1.424  14.541  10.849  0.0385  0.0328 -0.0823
  365loPI   PO4 5828   1.161  14.676  10.256  0.1954  0.3157  0.0027
  365loPI   GL1 5829   1.051  14.539   9.747 -0.0297 -0.1217 -0.0764
  365loPI   GL2 5830   1.104  14.277   9.600 -0.1228 -0.3038  0.3639
  365loPI   C1A 5831   1.027  14.827   9.387  0.0730 -0.1768 -0.2607
  365loPI   C2A 5832   1.092  15.167   9.030 -0.1377  0.1574 -0.1477
  365loPI   C3A 5833   1.179  15.211   8.632 -0.1024 -0.2953 -0.1867
  365loPI   C4A 5834   1.350  15.432   8.259 -0.2156 -0.4095  0.0480
  365loPI   C5A 5835   1.357  15.669   7.871  0.0638  0.2656  0.0611
  365loPI   C6A 5836   1.338  15.953   7.469 -0.2584  0.2018  0.3632
  365loPI   C1B 5837   1.062  14.345   9.210 -0.0833  0.1235 -0.0981
  365loPI   C2B 5838   1.281  14.225   8.811 -0.1749 -0.0405 -0.0889
  365loPI   C3B 5839   1.252  14.116   8.374 -0.1347  0.1195  0.1654
  365loPI   C4B 5840   1.360  14.107   7.978 -0.0992  0.2485 -0.0959
  366loPI    C1 5841   8.120  14.048  10.355  0.2419 -0.0164 -0.2061
  366loPI    C2 5842   8.354  14.334  10.203  0.2267  0.0677 -0.0728
  366loPI    C3 5843   8.390  14.231  10.588  0.1565 -0.0330 -0.0931
  366loPI   PO4 5844   7.961  14.034  10.146  0.2932  0.5525 -0.0884
  366loPI   GL1 5845   7.664  13.947   9.784 -0.0622  0.0600  0.0156
  366loPI   GL2 5846   7.374  13.863   9.750  0.0815  0.0018 -0.3860
  366loPI   C1A 5847   7.631  13.719   9.432  0.1713  0.1870  0.0089
  366loPI   C2A 5848   7.718  13.710   8.969  0.0686 -0.0502  0.2821
  366loPI   C3A 5849   7.891  13.827   8.607  0.1337  0.0967 -0.1146
  366loPI   C4A 5850   7.845  13.817   8.187 -0.3620  0.1980 -0.1575
  366loPI   C5A 5851   7.867  13.783   7.840  0.2412  0.0519 -0.3169
  366loPI   C6A 5852   7.795  14.032   7.563 -0.1445  0.1503 -0.1054
  366loPI   C1B 5853   6.966  13.766   9.495 -0.0352 -0.2854  0.0395
  366loPI   C2B 5854   6.769  13.670   9.263  0.0187 -0.0609  0.1699
  366loPI   C3B 5855   6.846  13.766   8.891  0.0796  0.2350  0.1884
  366loPI   C4B 5856   6.935  13.784   8.368 -0.0806 -0.0251  0.0403
  367loPI    C1 5857  13.132  14.520   9.742 -0.0258  0.1002 -0.1201
  367loPI    C2 5858  13.435  14.456   9.995 -0.0530 -0.0714 -0.1293
  367loPI    C3 5859  13.066  14.516  10.136 -0.0761 -0.2118 -0.1290
  367loPI   PO4 5860  13.241  14.346   9.564  0.2617  0.0644 -0.0117
  367loPI   GL1 5861  13.070  14.294   9.214 -0.3230 -0.1156 -0.2387
  367loPI   GL2 5862  12.948  13.955   9.088 -0.1167  0.0130  0.2664
  367loPI   C1A 5863  13.179  14.302   8.842 -0.0212  0.2498 -0.0250
  367loPI   C2A 5864  13.317  14.290   8.418 -0.2351 -0.4538  0.1660
  367loPI   C3A 5865  13.522  14.514   8.097  0.0094 -0.1276  0.5770
  367loPI   C4A 5866  13.630  14.562   7.696 -0.1714 -0.0927 -0.1877
  367loPI   C5A 5867  14.022  14.505   7.466  0.3493  0.2215  0.1317
  367loPI   C6A 5868  14.323  14.754   7.370  0.0077 -0.0460  0.0223
  367loPI   C1B 5869  12.931  13.863   8.666  0.0110 -0.1902  0.0222
  367loPI   C2B 5870  12.781  14.092   8.306 -0.1598 -0.2463 -0.0150
  367loPI   C3B 5871  12.983  14.217   7.991 -0.0708  0.0904  0.1023
  367loPI   C4B 5872  13.102  14.224   7.591  0.0829  0.1034  0.1353
  368loPI    C1 5873  13.365  10.105  10.389  0.0503 -0.1080  0.1105
  368loPI    C2 5874  13.165   9.761  10.427 -0.0769 -0.0346  0.1127
  368loPI    C3 5875  13.320   9.939  10.750 -0.0236 -0.0819  0.1135
  368loPI   PO4 5876  13.437  10.157  10.113 -0.1436 -0.0797 -0.2552
  368loPI   GL1 5877  13.614  10.010   9.770 -0.1954  0.0690  0.4375
  368loPI   GL2 5878  13.802   9.759   9.654  0.3546 -0.0184 -0.3457
  368loPI   C1A 5879  13.666  10.148   9.343  0.2775  0.5250  0.0303
  368loPI   C2A 5880  13.506  10.088   8.966 -0.0742 -0.0928 -0.2220
  368loPI   C3A 5881  13.407  10.051   8.575 -0.1466 -0.0581 -0.1640
  368loPI   C4A 5882  13.591  10.192   8.190 -0.2284  0.0923  0.6339
  368loPI   C5A 5883  13.659   9.944   7.807 -0.2132  0.1746 -0.0643
  368loPI   C6A 5884  13.604   9.684   7.501 -0.5845  0.2426  0.2023
  368loPI   C1B 5885  13.667   9.656   9.139  0.0048  0.2866 -0.1838
  368loPI   C2B 5886  13.622   9.569   8.720  0.0154 -0.2470 -0.0586
  368loPI   C3B 5887  13.613   9.678   8.257  0.1308  0.1533  0.0500
  368loPI   C4B 5888  13.740   9.513   7.928 -0.1517 -0.0337 -0.2336
  369loPI    C1 5889   4.341   1.805  10.287  0.0350 -0.1727 -0.0762
  369loPI    C2 5890   4.647   1.693  10.519  0.0173 -0.1670 -0.0501
  369loPI    C3 5891   4.359   1.928  10.668  0.0804 -0.0448 -0.1189
  369loPI   PO4 5892   4.563   1.782  10.045  0.0828 -0.0661  0.1732
  369loPI   GL1 5893   4.690   1.943   9.737 -0.3693 -0.2485  0.0040
  369loPI   GL2 5894   4.940   1.731   9.599  0.0816  0.0266  0.1165
  369loPI   C1A 5895   4.498   2.008   9.349 -0.1950 -0.0758 -0.2254
  369loPI   C2A 5896   4.589   1.846   8.854 -0.3923 -0.3080 -0.1869
  369loPI   C3A 5897   4.484   1.822   8.407 -0.0968 -0.0793  0.0399
  369loPI   C4A 5898   4.596   1.818   7.975 -0.0039  0.1392 -0.1726
  369loPI   C5A 5899   4.668   2.002   7.646 -0.1017  0.1658 -0.0444
  369loPI   C6A 5900   4.820   2.028   7.342  0.0380 -0.0886  0.0480
  369loPI   C1B 5901   4.958   1.706   9.229 -0.0913  0.1344  0.0868
  369loPI   C2B 5902   5.021   1.578   8.827 -0.1958 -0.0299  0.0028
  369loPI   C3B 5903   4.972   1.600   8.339  0.0006 -0.2758  0.1440
  369loPI   C4B 5904   5.067   1.566   7.955  0.1396 -0.0484  0.0359
  370loPI    C1 5905   4.706   6.902  10.741  0.1043 -0.0467 -0.2402
  370loPI    C2 5906   4.612   6.630  11.019  0.2065 -0.1360 -0.2919
  370loPI    C3 5907   4.474   7.005  11.050  0.1778 -0.1581 -0.1473
  370loPI   PO4 5908   4.669   6.763  10.500  0.0201 -0.1560  0.2095
  370loPI   GL1 5909   4.770   6.824  10.129 -0.0509  0.2329 -0.0453
  370loPI   GL2 5910   5.092   6.725  10.098 -0.1679  0.0425 -0.2057
  370loPI   C1A 5911   4.597   6.725   9.767 -0.0530  0.1510 -0.0267
  370loPI   C2A 5912   4.698   6.719   9.358 -0.1622  0.0701  0.0039
  370loPI   C3A 5913   4.551   6.696   8.960 -0.0552  0.0165 -0.0552
  370loPI   C4A 5914   4.623   6.622   8.456 -0.2383 -0.1085  0.0165
  370loPI   C5A 5915   4.817   6.542   8.033  0.0875  0.3483 -0.1935
  370loPI   C6A 5916   4.735   6.253   7.725  0.0914 -0.0613  0.2678
  370loPI   C1B 5917   5.444   6.721   9.895  0.3120  0.0919 -0.0674
  370loPI   C2B 5918   5.458   6.666   9.521 -0.1874  0.0867  0.3051
  370loPI   C3B 5919   5.696   6.448   9.246 -0.0083  0.1303 -0.1369
  370loPI   C4B 5920   5.999   6.116   9.028 -0.3351  0.4738 -0.0276
  371loPI    C1 5921   7.246  10.872  10.477 -0.1534  0.0295 -0.1321
  371loPI    C2 5922   7.565  10.764  10.692 -0.0262 -0.0047 -0.3353
  371loPI    C3 5923   7.278  10.988  10.858  0.1351  0.0821 -0.1705
  371loPI   PO4 5924   7.326  11.074  10.232 -0.3491  0.0427  0.0401
  371loPI   GL1 5925   7.358  11.035   9.751  0.0603  0.2163 -0.2132
  371loPI   GL2 5926   7.252  11.378   9.646  0.0542 -0.1290 -0.0134
  371loPI   C1A 5927   7.493  10.861   9.298 -0.4351 -0.2230  0.2285
  371loPI   C2A 5928   7.360  10.780   8.916 -0.3733 -0.2369  0.0840
  371loPI   C3A 5929   7.201  10.840   8.516  0.6246 -0.1739  0.0812
  371loPI   C4A 5930   7.293  11.079   8.105 -0.2009  0.0725 -0.1088
  371loPI   C5A 5931   7.486  11.203   7.845  0.0193  0.2155 -0.1497
  371loPI   C6A 5932   7.915  11.088   7.631 -0.0074  0.1140  0.3007
  371loPI   C1B 5933   7.218  11.263   9.194 -0.0998 -0.0515 -0.0420
  371loPI   C2B 5934   7.174  11.301   8.729  0.1222 -0.1155 -0.0054
  371loPI   C3B 5935   7.030  11.439   8.345 -0.0535  0.1928  0.0268
  371loPI   C4B 5936   7.125  11.632   7.971 -0.0832  0.2006  0.0665
  372loPI    C1 5937  11.484  10.927  10.023 -0.0007  0.2346 -0.1802
  372loPI    C2 5938  11.722  10.825  10.328  0.0702  0.2411 -0.2331
  372loPI    C3 5939  11.326  10.840  10.380  0.0726  0.1134 -0.1766
  372loPI   PO4 5940  11.648  11.087   9.902 -0.0937  0.2163 -0.0499
  372loPI   GL1 5941  11.740  11.005   9.501  0.0176 -0.0294  0.0945
  372loPI   GL2 5942  11.768  10.917   9.231 -0.2878  0.0697 -0.0524
  372loPI   C1A 5943  11.553  11.395   9.255  0.1588  0.0482  0.0101
  372loPI   C2A 5944  11.548  11.522   8.809 -0.0974 -0.0844 -0.1191
  372loPI   C3A 5945  11.324  11.793   8.542  0.0926 -0.0724 -0.1361
  372loPI   C4A 5946  11.250  11.718   8.057  0.3806 -0.2913  0.1542
  372loPI   C5A 5947  11.067  12.072   7.926 -0.0667 -0.0221 -0.2645
  372loPI   C6A 5948  11.076  12.385   7.598 -0.1824 -0.0665 -0.1483
  372loPI   C1B 5949  11.818  11.104   8.854  0.1158 -0.1058 -0.4568
  372loPI   C2B 5950  11.978  11.197   8.444 -0.1911  0.2721  0.3598
  372loPI   C3B 5951  12.263  11.457   8.027  0.0475  0.0802  0.2363
  372loPI   C4B 5952  12.182  11.250   7.517  0.1020  0.0988 -0.1430
  373loPI    C1 5953   2.799   1.706  10.063 -0.0237 -0.0682  0.0625
  373loPI    C2 5954   2.432   1.624  10.199  0.0196 -0.1690  0.1198
  373loPI    C3 5955   2.487   1.707   9.812 -0.1368  0.3304  0.1966
  373loPI   PO4 5956   2.916   1.853  10.094  0.0240  0.0538 -0.5361
  373loPI   GL1 5957   3.031   2.193   9.854 -0.0323  0.2549  0.0202
  373loPI   GL2 5958   2.866   1.967   9.581 -0.0512 -0.0839 -0.0741
  373loPI   C1A 5959   3.198   2.253   9.479  0.0543 -0.0417 -0.3103
  373loPI   C2A 5960   3.106   2.261   9.105  0.0385  0.1903 -0.1158
  373loPI   C3A 5961   3.228   2.187   8.657  0.1202 -0.0449 -0.0112
  373loPI   C4A 5962   3.157   2.148   8.201  0.5891 -0.0338  0.0370
  373loPI   C5A 5963   3.155   2.174   7.784 -0.4148 -0.3732 -0.2394
  373loPI   C6A 5964   3.232   1.766   7.435 -0.1383 -0.0413  0.3312
  373loPI   C1B 5965   2.715   1.898   9.170  0.3148  0.1509 -0.1123
  373loPI   C2B 5966   2.719   1.981   8.809  0.1178  0.0076  0.1046
  373loPI   C3B 5967   2.703   1.954   8.393  0.1725 -0.1951  0.2276
  373loPI   C4B 5968   2.701   1.891   7.891 -0.1177  0.0178  0.0422
  374loPI    C1 5969   9.938  15.345  10.448 -0.0807  0.1119 -0.0071
  374loPI    C2 5970   9.682  15.440  10.741 -0.2158  0.0546 -0.1057
  374loPI    C3 5971   9.864  15.083  10.742 -0.0041  0.1608  0.0562
  374loPI   PO4 5972   9.919  15.510  10.282  0.2059  0.1201  0.0214
  374loPI   GL1 5973   9.936  15.568   9.854  0.2052 -0.1075 -0.0526
  374loPI   GL2 5974   9.696  15.880   9.789  0.0393 -0.0948  0.1572
  374loPI   C1A 5975   9.747  15.453   9.525  0.0660  0.3052 -0.4314
  374loPI   C2A 5976   9.668  15.470   9.087  0.2527 -0.1090 -0.0688
  374loPI   C3A 5977   9.654  15.281   8.709 -0.0223  0.1759 -0.0167
  374loPI   C4A 5978   9.740  15.264   8.271  0.1937 -0.2174 -0.0676
  374loPI   C5A 5979   9.847  15.069   7.898 -0.0888  0.4199 -0.2187
  374loPI   C6A 5980   9.816  14.853   7.502  0.0376  0.0783 -0.0955
  374loPI   C1B 5981   9.524  15.896   9.365  0.0918  0.1537  0.0454
  374loPI   C2B 5982   9.360  15.989   8.920  0.2500 -0.1100  0.0111
  374loPI   C3B 5983   9.051  15.888   8.641 -0.0104 -0.1496 -0.0540
  374loPI   C4B 5984   9.043  15.844   8.120  0.1870  0.3842  0.0495
  375loPI    C1 5985   1.547   1.208   9.989  0.0726  0.1357  0.1453
  375loPI    C2 5986   1.179   1.157  10.136  0.0466 -0.2500 -0.0402
  375loPI    C3 5987   1.477   0.918  10.255  0.2466  0.0744  0.1260
  375loPI   PO4 5988   1.507   1.260   9.744  0.1192  0.0894 -0.0192
  375loPI   GL1 5989   1.482   1.160   9.371  0.1141 -0.1271 -0.1187
  375loPI   GL2 5990   1.182   1.045   9.149  0.1474  0.0521  0.1431
  375loPI   C1A 5991   1.630   1.077   8.922  0.3822  0.3731  0.2359
  375loPI   C2A 5992   1.830   0.999   8.592 -0.3086  0.0129 -0.2136
  375loPI   C3A 5993   1.752   0.957   8.075 -0.0570 -0.2698  0.1169
  375loPI   C4A 5994   1.631   0.708   7.778 -0.1025 -0.1911 -0.0848
  375loPI   C5A 5995   1.695   0.553   7.402 -0.0729 -0.1622  0.0449
  375loPI   C6A 5996   1.891   0.196   7.157  0.4080 -0.3758 -0.0048
  375loPI   C1B 5997   1.073   1.079   8.660 -0.4054 -0.0096 -0.1626
  375loPI   C2B 5998   1.240   1.310   8.272 -0.3998  0.0696 -0.2397
  375loPI   C3B 5999   1.234   1.212   7.850  0.2908  0.0114  0.1928
  375loPI   C4B 6000   1.264   1.366   7.442  0.1433  0.1542  0.0788
  376loPI    C1 6001  11.701   1.415  10.560  0.1001 -0.1538  0.0559
  376loPI    C2 6002  11.649   1.171  10.873  0.0214 -0.2175 -0.0063
  376loPI    C3 6003  12.013   1.216  10.712  0.0964 -0.0457  0.2070
  376loPI   PO4 6004  11.444   1.335  10.419  0.1939 -0.2542  0.0566
  376loPI   GL1 6005  11.124   1.132  10.111 -0.3786  0.0228 -0.0447
  376loPI   GL2 6006  11.246   0.834  10.047 -0.2983 -0.2469  0.3398
  376loPI   C1A 6007  11.133   1.374   9.701 -0.0169  0.1497 -0.0949
  376loPI   C2A 6008  11.077   1.396   9.275 -0.1877  0.1808  0.1469
  376loPI   C3A 6009  11.098   1.382   8.851 -0.2515 -0.1105  0.1068
  376loPI   C4A 6010  11.108   1.351   8.405 -0.0469 -0.0609  0.1655
  376loPI   C5A 6011  10.953   1.458   7.974  0.0484  0.2267  0.3118
  376loPI   C6A 6012  10.800   1.816   7.843 -0.0445 -0.0065  0.1782
  376loPI   C1B 6013  11.165   0.849   9.605  0.1427  0.0342  0.1209
  376loPI   C2B 6014  11.065   0.912   9.276  0.3893  0.3689 -0.1323
  376loPI   C3B 6015  11.212   0.889   8.826  0.2433  0.2505  0.2920
  376loPI   C4B 6016  11.062   0.768   8.483 -0.0764  0.3859 -0.0040
  377loPI    C1 6017  14.974   8.890  10.085 -0.0235  0.0349  0.1392
  377loPI    C2 6018  15.009   8.861  10.483 -0.1051  0.2095  0.1601
  377loPI    C3 6019  14.965   9.220  10.311 -0.3086  0.1168  0.0132
  377loPI   PO4 6020  14.853   8.710   9.973 -0.1192 -0.3570 -0.4166
  377loPI   GL1 6021  14.768   8.515   9.490  0.0191 -0.1297 -0.2343
  377loPI   GL2 6022  14.400   8.316   9.435 -0.3204 -0.1729 -0.0835
  377loPI   C1A 6023  14.727   8.613   9.117  0.2829  0.2861 -0.0048
  377loPI   C2A 6024  14.729   8.590   8.743 -0.0207  0.1158  0.1472
  377loPI   C3A 6025  14.731   8.707   8.291  0.0444  0.0969 -0.1281
  377loPI   C4A 6026  14.706   8.746   7.784 -0.0209  0.2636  0.0984
  377loPI   C5A 6027  14.762   9.114   7.513 -0.1703  0.2869  0.2501
  377loPI   C6A 6028  14.652   9.530   7.575 -0.2703  0.1284 -0.1028
  377loPI   C1B 6029  14.135   8.267   9.117 -0.1974 -0.2477 -0.5583
  377loPI   C2B 6030  14.219   8.409   8.616 -0.1721  0.0227  0.2780
  377loPI   C3B 6031  14.302   8.335   8.209  0.1041 -0.0089  0.0058
  377loPI   C4B 6032  14.255   8.510   7.841  0.4369  0.0825  0.0609
  378loPI    C1 6033  10.604   3.283  11.056 -0.0040  0.0618 -0.0566
  378loPI    C2 6034  10.742   3.287  11.432 -0.1189 -0.1960 -0.0092
  378loPI    C3 6035  10.925   3.066  11.153 -0.0509 -0.0277 -0.0995
  378loPI   PO4 6036  10.475   3.581  10.963  0.2416  0.1434  0.4177
  378loPI   GL1 6037  10.244   3.602  10.576  0.3858 -0.1429 -0.0554
  378loPI   GL2 6038   9.992   3.766  10.554 -0.0096 -0.0801 -0.0110
  378loPI   C1A 6039  10.348   3.665  10.169 -0.0051 -0.1191  0.0505
  378loPI   C2A 6040  10.480   3.648   9.767 -0.1200  0.2901  0.2158
  378loPI   C3A 6041  10.366   3.603   9.372 -0.2571 -0.3132 -0.1993
  378loPI   C4A 6042  10.426   3.564   8.912  0.0902  0.0641  0.0557
  378loPI   C5A 6043  10.314   3.643   8.493 -0.1997 -0.0877 -0.0569
  378loPI   C6A 6044  10.403   3.672   8.066  0.0244  0.1179 -0.0535
  378loPI   C1B 6045   9.880   3.783  10.145  0.2551  0.3941 -0.0892
  378loPI   C2B 6046  10.010   3.832   9.667  0.1086  0.0887  0.3055
  378loPI   C3B 6047   9.925   3.876   9.240 -0.4238  0.1610 -0.6236
  378loPI   C4B 6048   9.919   3.835   8.851 -0.0560 -0.0954  0.3103
  379loPI    C1 6049   1.354  13.231  10.145 -0.1013 -0.0605 -0.2830
  379loPI    C2 6050   1.006  13.406  10.054 -0.1785 -0.1293 -0.1230
  379loPI    C3 6051   1.223  13.541  10.362 -0.2352 -0.3078 -0.0031
  379loPI   PO4 6052   1.450  13.176   9.940  0.0804 -0.2609  0.0837
  379loPI   GL1 6053   1.284  13.278   9.542  0.0455  0.0804 -0.2006
  379loPI   GL2 6054   1.529  13.168   9.402 -0.1444  0.3341  0.1840
  379loPI   C1A 6055   1.131  13.207   9.128 -0.3707 -0.0995  0.1738
  379loPI   C2A 6056   1.244  13.294   8.755 -0.1837 -0.1843  0.1183
  379loPI   C3A 6057   1.605  13.361   8.447  0.0830 -0.1399 -0.0408
  379loPI   C4A 6058   1.832  13.341   8.157  0.0561 -0.0623  0.2238
  379loPI   C5A 6059   2.181  13.129   7.916 -0.0105 -0.0865  0.1572
  379loPI   C6A 6060   2.372  13.360   7.570  0.2685  0.3308 -0.1316
  379loPI   C1B 6061   1.610  13.497   9.128 -0.0680  0.2854 -0.2684
  379loPI   C2B 6062   1.527  13.757   8.832  0.2375  0.1807 -0.1443
  379loPI   C3B 6063   1.639  13.857   8.443 -0.1106  0.0432  0.1456
  379loPI   C4B 6064   1.777  13.796   8.031  0.3484 -0.3501 -0.1424
  380loPI    C1 6065   4.549  13.768  10.331 -0.1979  0.1138 -0.1645
  380loPI    C2 6066   4.926  13.665  10.248 -0.1585  0.1754 -0.0627
  380loPI    C3 6067   4.849  13.924  10.543 -0.2762  0.2131 -0.1262
  380loPI   PO4 6068   4.410  13.842  10.197 -0.0864 -0.2127 -0.0784
  380loPI   GL1 6069   4.396  13.988   9.817 -0.1767  0.3248 -0.0861
  380loPI   GL2 6070   4.662  13.937   9.712  0.0176  0.2783 -0.0294
  380loPI   C1A 6071   4.214  14.051   9.390 -0.1145  0.1824 -0.2889
  380loPI   C2A 6072   4.220  14.435   9.136  0.0732 -0.1469 -0.2186
  380loPI   C3A 6073   4.199  14.345   8.699 -0.0518 -0.1560  0.0953
  380loPI   C4A 6074   4.245  14.323   8.272  0.3597 -0.0030  0.0202
  380loPI   C5A 6075   4.378  14.622   7.945  0.0538  0.1327  0.1679
  380loPI   C6A 6076   4.811  14.658   7.727 -0.0050  0.1189  0.1189
  380loPI   C1B 6077   4.953  13.844   9.308 -0.3279  0.5105 -0.0224
  380loPI   C2B 6078   5.043  13.881   8.840  0.1961 -0.2444  0.0113
  380loPI   C3B 6079   5.111  13.961   8.436 -0.1839  0.1976 -0.3115
  380loPI   C4B 6080   5.235  13.865   7.968 -0.1014 -0.0522 -0.1845
  381loPI    C1 6081  13.760   3.925  10.277  0.1941  0.2930 -0.0756
  381loPI    C2 6082  13.621   4.120  10.597  0.0067 -0.0032  0.0280
  381loPI    C3 6083  13.933   3.874  10.634 -0.0371 -0.0645 -0.0088
  381loPI   PO4 6084  13.570   3.886  10.070  0.2686 -0.2421  0.2439
  381loPI   GL1 6085  13.523   4.163   9.619 -0.2134 -0.4031 -0.0954
  381loPI   GL2 6086  13.739   4.102   9.353  0.2360  0.2182  0.0700
  381loPI   C1A 6087  13.195   4.024   9.354  0.2641 -0.1088  0.1248
  381loPI   C2A 6088  13.116   4.023   8.921  0.0133 -0.0626  0.0556
  381loPI   C3A 6089  13.006   3.905   8.575  0.3923 -0.0109 -0.1454
  381loPI   C4A 6090  13.031   4.102   8.159 -0.0526  0.2435 -0.2695
  381loPI   C5A 6091  12.945   3.998   7.786 -0.0946  0.2435 -0.1395
  381loPI   C6A 6092  13.127   4.249   7.398  0.0475 -0.0744 -0.1322
  381loPI   C1B 6093  13.707   3.821   8.983  0.0570 -0.1621  0.1927
  381loPI   C2B 6094  13.525   3.739   8.607  0.1179 -0.1498  0.5408
  381loPI   C3B 6095  13.429   3.722   8.258 -0.4687 -0.2555 -0.3348
  381loPI   C4B 6096  13.516   3.902   7.850  0.0989 -0.2340 -0.3607
  382loPI    C1 6097   4.716   3.472  10.527 -0.0049  0.2043 -0.0717
  382loPI    C2 6098   4.417   3.650  10.724  0.0175  0.2715 -0.0981
  382loPI    C3 6099   4.451   3.251  10.729 -0.0962  0.2610 -0.1291
  382loPI   PO4 6100   4.656   3.614  10.227 -0.1208 -0.1458 -0.2491
  382loPI   GL1 6101   4.677   3.552   9.906  0.1428 -0.0450 -0.0977
  382loPI   GL2 6102   4.406   3.496   9.764 -0.1470 -0.1744 -0.2625
  382loPI   C1A 6103   4.847   3.452   9.494  0.0080 -0.1448  0.1253
  382loPI   C2A 6104   5.038   3.321   9.134 -0.2393 -0.1294  0.2235
  382loPI   C3A 6105   5.084   3.135   8.824  0.3468 -0.0841  0.2749
  382loPI   C4A 6106   4.972   3.049   8.469  0.2104 -0.1036 -0.0944
  382loPI   C5A 6107   5.060   2.897   7.999  0.0810  0.2602  0.0533
  382loPI   C6A 6108   5.100   2.845   7.469 -0.2485 -0.3545  0.1252
  382loPI   C1B 6109   4.342   3.544   9.409  0.1101  0.2826  0.4459
  382loPI   C2B 6110   4.556   3.527   9.027  0.3626  0.0914  0.3083
  382loPI   C3B 6111   4.541   3.406   8.593 -0.2412  0.1252  0.0208
  382loPI   C4B 6112   4.663   3.299   8.135 -0.0750  0.1514 -0.0962
  383loPI    C1 6113   4.535   9.697  10.403  0.0317  0.2002  0.0857
  383loPI    C2 6114   4.658   9.857  10.748  0.1672 -0.2855  0.2704
  383loPI    C3 6115   4.306   9.667  10.730 -0.0287  0.0891  0.0342
  383loPI   PO4 6116   4.677   9.653  10.156  0.2278  0.0136  0.0466
  383loPI   GL1 6117   4.549   9.643   9.714  0.0509  0.4088 -0.3030
  383loPI   GL2 6118   4.465   9.378   9.699  0.3507 -0.1132 -0.0092
  383loPI   C1A 6119   4.597   9.697   9.357  0.0635  0.1051 -0.1900
  383loPI   C2A 6120   4.373   9.701   8.993 -0.1235  0.1054  0.2196
  383loPI   C3A 6121   4.454   9.672   8.592 -0.0614  0.0822  0.0415
  383loPI   C4A 6122   4.467   9.858   8.207  0.2065 -0.0916  0.2645
  383loPI   C5A 6123   4.146   9.943   8.004 -0.0299  0.0444  0.0575
  383loPI   C6A 6124   3.890   9.699   7.771 -0.0253 -0.2831  0.1003
  383loPI   C1B 6125   4.342   9.293   9.284  0.0004  0.1755 -0.0336
  383loPI   C2B 6126   4.268   9.271   8.845  0.0748  0.1546 -0.3739
  383loPI   C3B 6127   4.283   8.905   8.569  0.0180 -0.0646  0.1688
  383loPI   C4B 6128   4.683   8.762   8.408  0.0386  0.1226  0.3825
  384loPI    C1 6129  15.818   3.949   9.753  0.1674 -0.0305  0.0901
  384loPI    C2 6130  16.153   3.892   9.963  0.3216  0.0162 -0.1401
  384loPI    C3 6131  15.836   4.064  10.136  0.3731 -0.1388  0.1140
  384loPI   PO4 6132  15.884   4.080   9.562  0.3028  0.2387 -0.0844
  384loPI   GL1 6133  15.938   4.187   9.260 -0.0718  0.1755 -0.0459
  384loPI   GL2 6134  15.877   4.401   9.210 -0.2649  0.0856  0.1180
  384loPI   C1A 6135  16.158   3.909   9.015  0.0176  0.2230 -0.2852
  384loPI   C2A 6136  16.226   3.873   8.662 -0.1641 -0.2519 -0.4799
  384loPI   C3A 6137  16.408   3.818   8.201 -0.0017 -0.1238 -0.0335
  384loPI   C4A 6138  16.343   4.007   7.833 -0.1935  0.1543  0.0218
  384loPI   C5A 6139  16.205   4.353   7.534  0.1471 -0.1205 -0.1123
  384loPI   C6A 6140  16.180   4.682   7.713  0.1266  0.1254 -0.2816
  384loPI   C1B 6141  15.774   4.100   8.751 -0.0026  0.0173  0.1918
  384loPI   C2B 6142  15.628   4.102   8.325 -0.0021  0.1167  0.0551
  384loPI   C3B 6143  15.443   4.272   7.992  0.1639 -0.4412 -0.0962
  384loPI   C4B 6144  15.031   4.310   7.832 -0.2097  0.2210 -0.1572
  385loPI    C1 6145   2.825  12.540  10.353 -0.0123  0.0985 -0.0173
  385loPI    C2 6146   2.816  12.230  10.606  0.0931  0.0482 -0.0742
  385loPI    C3 6147   2.829  12.604  10.748 -0.1102  0.0304 -0.0051
  385loPI   PO4 6148   2.737  12.285  10.037  0.3670 -0.2814 -0.0401
  385loPI   GL1 6149   2.663  12.161   9.621  0.2378 -0.0035  0.0734
  385loPI   GL2 6150   2.934  12.242   9.416 -0.2176 -0.1470 -0.1039
  385loPI   C1A 6151   2.447  12.127   9.170 -0.1925  0.1872 -0.2630
  385loPI   C2A 6152   2.557  12.067   8.832  0.2387 -0.4185 -0.1041
  385loPI   C3A 6153   2.805  11.809   8.587 -0.1417 -0.0280 -0.1879
  385loPI   C4A 6154   2.924  11.883   8.149 -0.0795 -0.2341 -0.2267
  385loPI   C5A 6155   2.986  11.633   7.809 -0.0651  0.1507  0.5439
  385loPI   C6A 6156   2.687  11.614   7.434  0.0478  0.1509  0.0478
  385loPI   C1B 6157   3.133  12.109   8.969 -0.1712  0.4949 -0.4313
  385loPI   C2B 6158   3.329  11.851   8.578 -0.0588 -0.0734 -0.0138
  385loPI   C3B 6159   3.433  11.689   8.177  0.0714  0.0939  0.2460
  385loPI   C4B 6160   3.510  11.395   7.844 -0.3618 -0.5191  0.3256
  386loPI    C1 6161   8.380   5.806  10.969  0.0984  0.0174 -0.0877
  386loPI    C2 6162   8.215   5.449  11.041 -0.0654  0.1175  0.0395
  386loPI    C3 6163   7.984   5.759  10.939  0.0715  0.1984 -0.0273
  386loPI   PO4 6164   8.631   5.669  10.855  0.0570 -0.0836  0.1226
  386loPI   GL1 6165   8.800   5.561  10.415 -0.0715  0.2124 -0.2721
  386loPI   GL2 6166   8.889   5.879  10.182 -0.0959  0.2124  0.2860
  386loPI   C1A 6167   8.909   5.381  10.048  0.0043  0.0458  0.2416
  386loPI   C2A 6168   8.934   5.311   9.655 -0.0225 -0.1523  0.1243
  386loPI   C3A 6169   8.975   5.224   9.239  0.0124 -0.2184  0.1745
  386loPI   C4A 6170   8.626   5.271   8.950  0.0352  0.2067  0.1112
  386loPI   C5A 6171   8.539   5.318   8.534  0.1872  0.0330 -0.2759
  386loPI   C6A 6172   8.472   5.573   8.214  0.3564  0.1821 -0.1163
  386loPI   C1B 6173   8.770   5.842   9.800  0.1181  0.0830  0.2575
  386loPI   C2B 6174   8.789   5.741   9.440  0.3359 -0.0956  0.0744
  386loPI   C3B 6175   8.739   5.846   8.983 -0.1159 -0.2750 -0.1609
  386loPI   C4B 6176   8.833   5.727   8.507 -0.0354 -0.0254 -0.0440
  387loPI    C1 6177   0.518   2.292   9.980  0.0217 -0.3121 -0.0654
  387loPI    C2 6178   0.288   2.089  10.237 -0.0861 -0.1092  0.0007
  387loPI    C3 6179   0.524   2.384  10.369 -0.0461 -0.0882 -0.1159
  387loPI   PO4 6180   0.324   2.330   9.740 -0.2736 -0.0928  0.1189
  387loPI   GL1 6181   0.400   2.392   9.290  0.2131  0.0140  0.2146
  387loPI   GL2 6182   0.395   2.684   9.256  0.0262 -0.0222  0.0176
  387loPI   C1A 6183   0.442   2.410   8.829  0.0315  0.0171 -0.1382
  387loPI   C2A 6184   0.511   2.355   8.433 -0.0827 -0.1019  0.1984
  387loPI   C3A 6185   0.251   2.378   8.089 -0.0222 -0.0863 -0.2215
  387loPI   C4A 6186   0.120   2.132   7.763  0.1119 -0.4380  0.1210
  387loPI   C5A 6187  -0.201   2.282   7.483  0.0244  0.0401 -0.1722
  387loPI   C6A 6188  -0.204   2.246   7.069 -0.1970 -0.0456 -0.0112
  387loPI   C1B 6189   0.471   2.922   8.825  0.1096 -0.0297  0.0013
  387loPI   C2B 6190   0.529   2.805   8.358 -0.2287 -0.3666  0.1634
  387loPI   C3B 6191   0.688   2.728   7.932  0.0223 -0.3004 -0.0557
  387loPI   C4B 6192   0.636   2.618   7.420 -0.1334  0.1408 -0.0352
  388loPI    C1 6193   0.145  11.844  10.279 -0.0213  0.1276 -0.0789
  388loPI    C2 6194   0.041  11.488  10.429  0.0167  0.1351 -0.0347
  388loPI    C3 6195   0.136  11.790  10.675  0.2707  0.0906 -0.0747
  388loPI   PO4 6196   0.083  11.824  10.015 -0.1731  0.1189 -0.0965
  388loPI   GL1 6197   0.186  11.798   9.565 -0.1779 -0.3564  0.0665
  388loPI   GL2 6198   0.402  12.042   9.590 -0.0363  0.1648  0.0723
  388loPI   C1A 6199  -0.026  11.833   9.150 -0.0524  0.1387 -0.1577
  388loPI   C2A 6200  -0.023  11.789   8.755  0.2348  0.0284 -0.0553
  388loPI   C3A 6201  -0.149  11.808   8.288 -0.1327 -0.1289  0.1031
  388loPI   C4A 6202  -0.077  11.824   7.881 -0.3292  0.2514 -0.0402
  388loPI   C5A 6203   0.179  11.754   7.458  0.0362 -0.0073  0.1150
  388loPI   C6A 6204   0.195  11.956   7.108  0.0468 -0.2643  0.0652
  388loPI   C1B 6205   0.409  12.026   9.150  0.1886 -0.0907  0.0520
  388loPI   C2B 6206   0.421  12.109   8.768 -0.0312  0.2487 -0.1516
  388loPI   C3B 6207   0.516  12.367   8.421  0.1041  0.0901 -0.0403
  388loPI   C4B 6208   0.639  12.186   8.053  0.2410  0.1010  0.1587
  389loPI    C1 6209   3.472   3.383  10.675 -0.2762 -0.0622 -0.1764
  389loPI    C2 6210   3.170   3.306  10.925 -0.0925 -0.2792 -0.0162
  389loPI    C3 6211   3.514   3.453  11.067 -0.0411 -0.2544 -0.1644
  389loPI   PO4 6212   3.467   3.270  10.435 -0.0275 -0.0192  0.0412
  389loPI   GL1 6213   3.467   3.430  10.033  0.2034 -0.1097 -0.1008
  389loPI   GL2 6214   3.408   3.230   9.821  0.0089 -0.2275  0.0923
  389loPI   C1A 6215   3.476   3.673   9.665 -0.0716  0.1552  0.2690
  389loPI   C2A 6216   3.535   3.534   9.299 -0.0154 -0.0642 -0.2176
  389loPI   C3A 6217   3.639   3.564   8.875 -0.0645 -0.0270  0.0699
  389loPI   C4A 6218   3.579   3.370   8.485  0.1462 -0.1371  0.0079
  389loPI   C5A 6219   3.646   3.278   8.111  0.0399  0.0633  0.1448
  389loPI   C6A 6220   3.330   3.444   7.787  0.0094  0.0025  0.1943
  389loPI   C1B 6221   3.052   3.180   9.562  0.0886 -0.0779  0.1322
  389loPI   C2B 6222   3.154   3.273   9.100  0.1296  0.0072  0.0572
  389loPI   C3B 6223   3.196   3.178   8.781 -0.1918  0.0515  0.0311
  389loPI   C4B 6224   3.196   3.169   8.242 -0.0214 -0.1531 -0.1391
  390loPI    C1 6225  13.835   9.442  10.144 -0.0350 -0.1100 -0.0405
  390loPI    C2 6226  13.641   9.542  10.479  0.0483 -0.1585  0.0229
  390loPI    C3 6227  13.794   9.827  10.243 -0.0266 -0.1235  0.0160
  390loPI   PO4 6228  13.658   9.272  10.032  0.2547 -0.3425 -0.4875
  390loPI   GL1 6229  13.490   9.279   9.661  0.2388  0.6215  0.0348
  390loPI   GL2 6230  13.503   8.915   9.546  0.0458 -0.1112 -0.1027
  390loPI   C1A 6231  13.232   9.435   9.353 -0.0200 -0.0786  0.1113
  390loPI   C2A 6232  13.168   9.657   8.845 -0.0652  0.2431  0.0455
  390loPI   C3A 6233  13.149   9.629   8.442  0.0284  0.0612 -0.0815
  390loPI   C4A 6234  12.796   9.576   8.055 -0.4066 -0.0517  0.0829
  390loPI   C5A 6235  12.581   9.744   7.744  0.3827  0.2017  0.0142
  390loPI   C6A 6236  12.389   9.560   7.497  0.0602 -0.0612  0.2031
  390loPI   C1B 6237  13.374   8.963   9.063  0.2428 -0.4558 -0.0078
  390loPI   C2B 6238  13.273   9.014   8.654  0.4267 -0.1184  0.0445
  390loPI   C3B 6239  13.356   9.181   8.240  0.0663  0.2435 -0.1938
  390loPI   C4B 6240  13.255   9.397   7.789 -0.0723  0.0661 -0.2434
  391loPI    C1 6241  13.674   1.017  10.168 -0.1087 -0.0199 -0.1051
  391loPI    C2 6242  13.567   1.090  10.547 -0.0434  0.0521 -0.1001
  391loPI    C3 6243  13.953   1.036  10.454 -0.0662 -0.0367 -0.1452
  391loPI   PO4 6244  13.420   0.905  10.074  0.0499 -0.1260  0.0757
  391loPI   GL1 6245  13.112   1.012   9.835  0.2143 -0.2327 -0.1332
  391loPI   GL2 6246  12.838   1.212   9.835 -0.2781 -0.1632  0.1614
  391loPI   C1A 6247  13.034   0.977   9.434  0.1306  0.1150  0.0609
  391loPI   C2A 6248  13.016   1.008   9.024 -0.0937  0.0435 -0.2024
  391loPI   C3A 6249  12.970   0.963   8.580  0.0569  0.0921 -0.0046
  391loPI   C4A 6250  12.903   1.021   8.125  0.0664  0.1612  0.0091
  391loPI   C5A 6251  12.850   1.306   7.745  0.2352 -0.2208  0.0525
  391loPI   C6A 6252  12.410   1.400   7.596 -0.1595  0.1727 -0.0580
  391loPI   C1B 6253  12.507   1.204   9.409  0.2634  0.0645  0.0415
  391loPI   C2B 6254  12.507   1.160   8.962  0.0023 -0.1230  0.0625
  391loPI   C3B 6255  12.477   1.096   8.586  0.0381 -0.1322  0.0189
  391loPI   C4B 6256  12.412   1.144   8.076  0.0105  0.1161  0.0374
  392loPI    C1 6257   5.032   3.808  10.742 -0.1115 -0.0407  0.1203
  392loPI    C2 6258   4.707   3.972  10.906 -0.0540 -0.1337  0.3310
  392loPI    C3 6259   5.027   3.895  11.133  0.0494 -0.2081  0.1613
  392loPI   PO4 6260   5.075   3.977  10.552  0.0383 -0.0438  0.1727
  392loPI   GL1 6261   4.998   3.949  10.079 -0.1792 -0.0991 -0.1589
  392loPI   GL2 6262   5.180   4.199  10.155 -0.4154 -0.1914  0.0942
  392loPI   C1A 6263   5.053   3.826   9.707  0.1848 -0.1929 -0.0460
  392loPI   C2A 6264   5.148   3.776   9.267 -0.1574 -0.0729 -0.0484
  392loPI   C3A 6265   5.019   3.676   8.824  0.1574  0.0973 -0.1237
  392loPI   C4A 6266   4.985   3.556   8.457  0.2253 -0.3449  0.1302
  392loPI   C5A 6267   4.973   3.822   8.088  0.2663 -0.0735 -0.0358
  392loPI   C6A 6268   4.539   3.770   8.022  0.1442  0.0177  0.1926
  392loPI   C1B 6269   5.500   4.129   9.828 -0.0586  0.2200  0.0382
  392loPI   C2B 6270   5.563   4.049   9.330  0.2587 -0.2082  0.1933
  392loPI   C3B 6271   5.523   3.944   8.807 -0.0087  0.0716 -0.2376
  392loPI   C4B 6272   5.439   3.918   8.361  0.2471  0.1836 -0.1183
  393loPI    C1 6273   7.688   7.154  11.056  0.0819 -0.0277  0.1619
  393loPI    C2 6274   7.851   6.808  11.175 -0.1498 -0.1854  0.0298
  393loPI    C3 6275   7.983   7.154  11.326  0.1312 -0.3255  0.1124
  393loPI   PO4 6276   7.602   7.132  10.808  0.1022 -0.3421  0.0817
  393loPI   GL1 6277   7.756   7.093  10.435  0.0727  0.0551  0.0835
  393loPI   GL2 6278   8.109   6.948  10.315 -0.2452  0.0569 -0.0633
  393loPI   C1A 6279   7.567   6.872  10.006  0.0976 -0.0881 -0.0453
  393loPI   C2A 6280   7.637   6.698   9.568  0.1393 -0.1913 -0.0156
  393loPI   C3A 6281   7.594   6.707   9.166 -0.2800  0.0946  0.1362
  393loPI   C4A 6282   7.599   6.790   8.719 -0.0826 -0.2168 -0.0904
  393loPI   C5A 6283   7.446   6.952   8.392  0.3934 -0.0274  0.2622
  393loPI   C6A 6284   7.462   7.427   8.094 -0.1384 -0.0605 -0.4707
  393loPI   C1B 6285   8.181   7.015   9.918 -0.0633 -0.2446 -0.0727
  393loPI   C2B 6286   8.025   7.113   9.605 -0.1793  0.1677  0.0257
  393loPI   C3B 6287   8.105   7.035   9.281  0.2075 -0.0085 -0.4397
  393loPI   C4B 6288   7.990   7.038   8.883 -0.2076  0.2177 -0.3726
  394loPI    C1 6289   2.571   3.332  10.292  0.0181  0.0279  0.1020
  394loPI    C2 6290   2.803   3.301  10.616  0.0921  0.0639  0.0526
  394loPI    C3 6291   2.406   3.271  10.651  0.0947  0.1498  0.1586
  394loPI   PO4 6292   2.660   3.541  10.184 -0.2131 -0.2233  0.2417
  394loPI   GL1 6293   2.534   3.681   9.828  0.1666 -0.2794 -0.0219
  394loPI   GL2 6294   2.588   3.926   9.689 -0.1214  0.2959  0.5354
  394loPI   C1A 6295   2.661   3.478   9.464 -0.2905 -0.0622 -0.1242
  394loPI   C2A 6296   2.658   3.454   9.068  0.3153 -0.0227 -0.1181
  394loPI   C3A 6297   2.668   3.629   8.657  0.0322  0.1778 -0.1790
  394loPI   C4A 6298   2.770   3.472   8.235 -0.1754  0.1302  0.1776
  394loPI   C5A 6299   2.855   3.704   7.834  0.3135  0.1413 -0.1215
  394loPI   C6A 6300   2.818   4.151   7.650 -0.0871 -0.0287  0.3979
  394loPI   C1B 6301   2.667   4.036   9.213 -0.2715 -0.1338  0.0339
  394loPI   C2B 6302   2.815   4.192   8.908 -0.0130  0.4520 -0.2436
  394loPI   C3B 6303   2.641   4.127   8.594 -0.1855 -0.0187 -0.5313
  394loPI   C4B 6304   2.752   3.964   8.324  0.0511 -0.0728 -0.0450
  395loPI    C1 6305  13.556   6.668  10.193 -0.0008  0.1331  0.0661
  395loPI    C2 6306  13.175   6.751  10.282 -0.0558 -0.0608  0.0169
  395loPI    C3 6307  13.379   6.486  10.502  0.0782  0.1051  0.0951
  395loPI   PO4 6308  13.581   6.651   9.997 -0.0538 -0.1483  0.2265
  395loPI   GL1 6309  13.578   6.909   9.604  0.3252  0.1539  0.0482
  395loPI   GL2 6310  13.538   7.205   9.575 -0.0931 -0.1424  0.0370
  395loPI   C1A 6311  13.696   6.840   9.107 -0.0432 -0.2056  0.2603
  395loPI   C2A 6312  13.732   6.899   8.740 -0.0220  0.2059  0.0844
  395loPI   C3A 6313  13.826   7.269   8.411 -0.1847 -0.0260  0.3744
  395loPI   C4A 6314  14.000   7.458   8.064 -0.0851  0.0317 -0.0340
  395loPI   C5A 6315  14.186   7.521   7.702  0.1910 -0.0387 -0.2589
  395loPI   C6A 6316  14.419   7.229   7.513  0.0529 -0.1660  0.0298
  395loPI   C1B 6317  13.270   7.063   9.254  0.0745  0.2368  0.1025
  395loPI   C2B 6318  13.189   7.159   8.775 -0.0382  0.1585 -0.0671
  395loPI   C3B 6319  13.241   7.179   8.299  0.0796 -0.0602  0.0440
  395loPI   C4B 6320  13.463   7.375   7.953 -0.0292 -0.1501 -0.1995
  396loPI    C1 6321  10.394  15.080  10.242  0.0429 -0.0516  0.1557
  396loPI    C2 6322  10.491  15.387  10.480  0.2030  0.0837 -0.0799
  396loPI    C3 6323  10.424  15.025  10.638  0.0632  0.2261  0.1943
  396loPI   PO4 6324  10.245  15.176  10.008  0.0052 -0.1524  0.1840
  396loPI   GL1 6325  10.309  15.313   9.595 -0.1148 -0.1784 -0.2087
  396loPI   GL2 6326  10.380  14.957   9.511 -0.2645 -0.0411  0.2949
  396loPI   C1A 6327  10.200  15.339   9.167  0.3687 -0.1240 -0.2120
  396loPI   C2A 6328  10.135  15.467   8.768 -0.0904 -0.2840 -0.2041
  396loPI   C3A 6329  10.051  15.691   8.366 -0.1409  0.0773  0.2179
  396loPI   C4A 6330   9.943  16.131   8.163 -0.0118  0.2197 -0.0239
  396loPI   C5A 6331   9.632  16.210   7.775  0.1977 -0.0696 -0.3664
  396loPI   C6A 6332   9.214  16.233   7.786 -0.0204 -0.0530  0.2411
  396loPI   C1B 6333  10.491  14.953   8.996  0.3482 -0.0223  0.2902
  396loPI   C2B 6334  10.462  15.069   8.594 -0.0704  0.0579  0.3200
  396loPI   C3B 6335  10.344  15.255   8.193 -0.1893  0.1609 -0.2021
  396loPI   C4B 6336  10.494  15.439   7.758 -0.4036 -0.3578 -0.1720
  397loPI    C1 6337   7.829  14.533  10.643 -0.0155 -0.1484 -0.1586
  397loPI    C2 6338   7.830  14.153  10.767  0.2916 -0.1210 -0.0700
  397loPI    C3 6339   8.050  14.427  10.959 -0.0503  0.1359 -0.0346
  397loPI   PO4 6340   7.884  14.486  10.381  0.0262 -0.0491  0.0715
  397loPI   GL1 6341   7.675  14.433  10.053  0.1244 -0.2283  0.1255
  397loPI   GL2 6342   7.715  14.696   9.741 -0.1184  0.0603 -0.0562
  397loPI   C1A 6343   7.360  14.345   9.623 -0.0984  0.0750  0.1657
  397loPI   C2A 6344   7.313  14.096   9.231  0.3049 -0.1536  0.1646
  397loPI   C3A 6345   7.359  14.013   8.773  0.0673 -0.0937  0.3060
  397loPI   C4A 6346   7.483  14.053   8.435 -0.4883  0.0618  0.1473
  397loPI   C5A 6347   7.607  14.210   7.976 -0.0532 -0.2436 -0.0042
  397loPI   C6A 6348   7.777  14.735   7.873  0.3245  0.0623  0.1797
  397loPI   C1B 6349   7.592  14.776   9.364  0.0513  0.1767  0.2257
  397loPI   C2B 6350   7.327  14.602   9.116  0.1057  0.0808  0.0311
  397loPI   C3B 6351   7.316  14.580   8.735  0.0495 -0.2300 -0.4381
  397loPI   C4B 6352   7.480  14.639   8.278  0.2797  0.3127 -0.2100
  398loPI    C1 6353   1.441  12.597  10.434 -0.2508 -0.1473  0.1434
  398loPI    C2 6354   1.236  12.922  10.543 -0.0857  0.0686 -0.1713
  398loPI    C3 6355   1.516  12.772  10.786 -0.2922  0.0465  0.0573
  398loPI   PO4 6356   1.431  12.608  10.097  0.4208 -0.2055  0.0104
  398loPI   GL1 6357   1.326  12.778   9.708 -0.1396  0.0844  0.0692
  398loPI   GL2 6358   1.093  12.478   9.763  0.0229  0.1641 -0.0452
  398loPI   C1A 6359   1.190  12.745   9.303  0.1099  0.0182 -0.4168
  398loPI   C2A 6360   1.329  12.603   9.027 -0.0932  0.2219 -0.1552
  398loPI   C3A 6361   1.457  12.556   8.656 -0.1634  0.1791  0.0272
  398loPI   C4A 6362   1.523  12.418   8.218  0.2217 -0.0667  0.0482
  398loPI   C5A 6363   1.617  12.218   7.893 -0.4166  0.1312  0.3802
  398loPI   C6A 6364   1.910  12.345   7.547 -0.0110 -0.1675 -0.1536
  398loPI   C1B 6365   1.140  12.254   9.351 -0.1782  0.1167  0.0206
  398loPI   C2B 6366   1.427  12.122   9.058  0.1241 -0.0714 -0.0660
  398loPI   C3B 6367   1.419  12.086   8.579 -0.1448  0.1606  0.0955
  398loPI   C4B 6368   1.276  11.970   8.207 -0.2574 -0.0820  0.1143
  399loPI    C1 6369   0.115  13.357  10.045  0.2976  0.1650  0.1314
  399loPI    C2 6370  -0.087  13.555  10.328  0.0690  0.0513  0.0498
  399loPI    C3 6371   0.070  13.196  10.409 -0.1788 -0.0769 -0.0259
  399loPI   PO4 6372  -0.073  13.290   9.863 -0.2685  0.0346  0.1791
  399loPI   GL1 6373  -0.136  13.082   9.467 -0.0922  0.2497 -0.2623
  399loPI   GL2 6374  -0.373  12.949   9.220  0.1007  0.0073 -0.2554
  399loPI   C1A 6375   0.082  13.343   9.149  0.3959  0.2002 -0.0249
  399loPI   C2A 6376   0.284  13.249   8.833 -0.2832 -0.1026  0.1763
  399loPI   C3A 6377   0.151  13.310   8.420 -0.2413  0.1922  0.1774
  399loPI   C4A 6378   0.268  13.228   7.957  0.1556  0.2430 -0.0698
  399loPI   C5A 6379   0.460  13.047   7.700 -0.0361  0.1216 -0.0107
  399loPI   C6A 6380   0.515  12.767   7.349 -0.0415 -0.2124 -0.1993
  399loPI   C1B 6381   0.005  12.809   9.071 -0.1736  0.0740  0.1388
  399loPI   C2B 6382   0.395  12.719   8.747 -0.1718 -0.0990 -0.2099
  399loPI   C3B 6383   0.627  12.944   8.427 -0.0712 -0.0692  0.0310
  399loPI   C4B 6384   0.821  12.849   8.100 -0.3350  0.0007  0.3379
  400loPI    C1 6385  17.053  10.875   9.967 -0.0416  0.1414  0.1071
  400loPI    C2 6386  17.084  10.579  10.235  0.1686 -0.1895 -0.2715
  400loPI    C3 6387  16.778  10.585   9.977 -0.1554  0.2482  0.1047
  400loPI   PO4 6388  17.353  10.784   9.896  0.3954 -0.0217 -0.1474
  400loPI   GL1 6389  17.372  10.595   9.554 -0.0428  0.0572  0.3096
  400loPI   GL2 6390  17.020  10.607   9.504  0.0060 -0.2099  0.0920
  400loPI   C1A 6391  17.534  10.646   9.176  0.2145  0.0994 -0.2657
  400loPI   C2A 6392  17.485  10.814   8.726  0.1082  0.0556  0.2712
  400loPI   C3A 6393  17.552  11.194   8.580 -0.1955  0.0277  0.0356
  400loPI   C4A 6394  17.587  11.553   8.260 -0.1604  0.3243 -0.1071
  400loPI   C5A 6395  17.533  11.525   7.794 -0.2863 -0.1251 -0.0907
  400loPI   C6A 6396  17.317  11.734   7.370  0.1527 -0.0809 -0.0216
  400loPI   C1B 6397  16.976  10.646   9.047 -0.0197  0.0412 -0.0334
  400loPI   C2B 6398  16.925  10.726   8.597  0.2410  0.3783 -0.0120
  400loPI   C3B 6399  17.280  10.783   8.227 -0.1223  0.1644 -0.1466
  400loPI   C4B 6400  17.583  11.019   8.061 -0.1383  0.1014  0.0631
  401loPI    C1 6401  10.365   8.021  10.873  0.2921  0.0626  0.3700
  401loPI    C2 6402  10.546   7.738  11.092  0.1139  0.0503  0.5035
  401loPI    C3 6403  10.149   7.787  11.116  0.0772 -0.0170  0.1072
  401loPI   PO4 6404  10.456   7.958  10.649  0.3063  0.2480  0.1319
  401loPI   GL1 6405  10.490   7.881  10.285  0.0893  0.0958 -0.0287
  401loPI   GL2 6406  10.286   7.772  10.138 -0.1117 -0.1983  0.2536
  401loPI   C1A 6407  10.741   7.909   9.889 -0.1059  0.1252 -0.2437
  401loPI   C2A 6408  10.803   7.953   9.394 -0.1197 -0.0162  0.0946
  401loPI   C3A 6409  10.755   7.878   8.983 -0.0419  0.2578 -0.3224
  401loPI   C4A 6410  10.837   7.788   8.643  0.0434 -0.1024 -0.3248
  401loPI   C5A 6411  10.843   7.818   8.188  0.2497 -0.0491 -0.2549
  401loPI   C6A 6412  10.781   8.030   7.846 -0.1524  0.2467  0.2171
  401loPI   C1B 6413  10.368   7.457   9.836 -0.1920 -0.2022  0.0520
  401loPI   C2B 6414  10.359   7.547   9.415 -0.1082  0.3476 -0.2283
  401loPI   C3B 6415  10.237   7.682   8.907  0.1784 -0.1535 -0.1561
  401loPI   C4B 6416  10.415   7.590   8.498  0.0482 -0.1550  0.4280
  402loPI    C1 6417  14.479   3.673   9.775  0.0538  0.4174 -0.0061
  402loPI    C2 6418  14.642   3.756  10.130  0.2056 -0.0272  0.0344
  402loPI    C3 6419  14.246   3.711  10.097  0.1549  0.3533  0.0750
  402loPI   PO4 6420  14.606   3.498   9.609  0.0128 -0.0644 -0.0549
  402loPI   GL1 6421  14.704   3.425   9.190  0.0802  0.4993 -0.3816
  402loPI   GL2 6422  14.548   3.296   8.993 -0.3138 -0.2782 -0.0078
  402loPI   C1A 6423  14.876   3.683   8.864 -0.0998 -0.1472 -0.0401
  402loPI   C2A 6424  14.750   3.853   8.463  0.4080  0.3918 -0.4109
  402loPI   C3A 6425  14.730   3.804   8.022 -0.0454  0.1165 -0.1356
  402loPI   C4A 6426  14.908   3.726   7.666 -0.0571 -0.3362  0.1188
  402loPI   C5A 6427  15.186   3.525   7.469  0.1693  0.5153  0.1280
  402loPI   C6A 6428  15.669   3.580   7.207  0.2023  0.1034  0.3387
  402loPI   C1B 6429  14.471   3.421   8.612 -0.2141  0.1416 -0.1107
  402loPI   C2B 6430  14.355   3.476   8.189  0.1692  0.1889 -0.1889
  402loPI   C3B 6431  14.352   3.460   7.799 -0.2826 -0.1965 -0.1152
  402loPI   C4B 6432  14.343   3.757   7.358 -0.2637 -0.1260 -0.1141
  403loPI    C1 6433  16.123   0.058   9.854 -0.0504  0.2073 -0.0013
  403loPI    C2 6434  16.196  -0.264   9.628 -0.3824  0.1416 -0.0201
  403loPI    C3 6435  16.500  -0.043   9.766 -0.1316 -0.3647  0.2654
  403loPI   PO4 6436  15.878   0.162   9.779 -0.1733 -0.0544 -0.2893
  403loPI   GL1 6437  15.810   0.171   9.308 -0.0240 -0.1882  0.0195
  403loPI   GL2 6438  15.674   0.024   9.125  0.1344 -0.0228 -0.3521
  403loPI   C1A 6439  16.002   0.396   8.954  0.1607  0.2066 -0.1498
  403loPI   C2A 6440  15.865   0.365   8.503 -0.3242 -0.3753 -0.2346
  403loPI   C3A 6441  15.908   0.375   8.029  0.0081 -0.0829  0.0389
  403loPI   C4A 6442  15.988   0.331   7.586 -0.0661  0.3729 -0.1877
  403loPI   C5A 6443  16.320   0.095   7.418  0.0662 -0.0562 -0.3998
  403loPI   C6A 6444  16.728  -0.041   7.294  0.1797 -0.0278  0.0497
  403loPI   C1B 6445  15.932  -0.058   8.751 -0.1398 -0.0446 -0.2393
  403loPI   C2B 6446  16.000  -0.129   8.326  0.0180  0.3654 -0.0587
  403loPI   C3B 6447  16.405  -0.288   8.194  0.4951 -0.0644  0.2883
  403loPI   C4B 6448  16.671  -0.172   7.804  0.0312  0.2516  0.2182
  404loPI    C1 6449   7.104  10.150  10.341  0.2737 -0.0887  0.2947
  404loPI    C2 6450   7.284  10.381  10.613 -0.1770  0.1517  0.4001
  404loPI    C3 6451   6.909  10.462  10.500 -0.0573 -0.0469 -0.1712
  404loPI   PO4 6452   7.379  10.117  10.165 -0.3677 -0.1637 -0.1711
  404loPI   GL1 6453   7.432  10.007   9.693 -0.1696  0.2302  0.3057
  404loPI   GL2 6454   7.107   9.911   9.830 -0.0170 -0.5158 -0.2282
  404loPI   C1A 6455   7.463  10.252   9.343  0.0100 -0.2210 -0.0949
  404loPI   C2A 6456   7.472  10.306   8.910  0.1674  0.0745  0.2342
  404loPI   C3A 6457   7.345  10.334   8.513  0.1575 -0.1936 -0.2279
  404loPI   C4A 6458   7.194  10.491   8.101 -0.3392 -0.2328  0.0471
  404loPI   C5A 6459   7.112  10.765   7.707  0.1163  0.0043  0.1001
  404loPI   C6A 6460   7.051  11.192   7.667  0.0588 -0.0796 -0.1277
  404loPI   C1B 6461   7.133   9.894   9.392 -0.0271 -0.1221 -0.0773
  404loPI   C2B 6462   7.255   9.870   9.033 -0.0916 -0.2709  0.4003
  404loPI   C3B 6463   7.205   9.735   8.654 -0.1113 -0.1964  0.5203
  404loPI   C4B 6464   7.295   9.710   8.201 -0.0968  0.0510 -0.3581
  405loPI    C1 6465   7.101   1.739  10.417  0.1119 -0.0287  0.0476
  405loPI    C2 6466   7.276   1.670  10.770 -0.1244 -0.1827  0.1372
  405loPI    C3 6467   6.890   1.776  10.755 -0.1294 -0.2256 -0.0773
  405loPI   PO4 6468   7.297   1.840  10.267 -0.0971 -0.0089 -0.0990
  405loPI   GL1 6469   7.300   1.596   9.898  0.0516 -0.3291  0.2923
  405loPI   GL2 6470   7.266   1.858   9.753 -0.1728  0.1666  0.0649
  405loPI   C1A 6471   7.532   1.412   9.563  0.0167 -0.1159  0.1266
  405loPI   C2A 6472   7.651   1.433   9.083  0.0355  0.0171  0.0365
  405loPI   C3A 6473   7.581   1.379   8.558  0.0466 -0.1661 -0.0731
  405loPI   C4A 6474   7.636   1.367   8.198  0.0014 -0.0797  0.0655
  405loPI   C5A 6475   7.282   1.243   7.910  0.0726  0.0366 -0.2049
  405loPI   C6A 6476   7.021   0.988   7.775 -0.1912  0.1902  0.0084
  405loPI   C1B 6477   7.303   1.778   9.341 -0.1025  0.2758 -0.2949
  405loPI   C2B 6478   7.315   1.789   8.907  0.5196 -0.0003 -0.1853
  405loPI   C3B 6479   7.119   1.604   8.530 -0.3294 -0.0041 -0.0144
  405loPI   C4B 6480   7.101   1.648   8.129 -0.0832  0.0407  0.0922
  406loPI    C1 6481  16.556  13.675  10.299  0.0604  0.0235 -0.0399
  406loPI    C2 6482  16.418  13.792  10.656  0.1951 -0.0370  0.0326
  406loPI    C3 6483  16.684  13.494  10.632  0.0126 -0.1886 -0.1356
  406loPI   PO4 6484  16.284  13.724  10.151 -0.4965 -0.2587 -0.0051
  406loPI   GL1 6485  16.207  13.654   9.727 -0.3242 -0.1124  0.3670
  406loPI   GL2 6486  16.442  13.367   9.644 -0.2645 -0.2485  0.0570
  406loPI   C1A 6487  16.414  13.904   9.442 -0.0741 -0.1043 -0.1868
  406loPI   C2A 6488  16.299  14.064   9.085 -0.1434 -0.0578  0.1670
  406loPI   C3A 6489  16.136  14.148   8.625  0.2793 -0.1133 -0.1089
  406loPI   C4A 6490  16.347  14.235   8.291 -0.0223  0.0428 -0.1781
  406loPI   C5A 6491  16.374  14.518   7.890 -0.0798  0.2475 -0.1105
  406loPI   C6A 6492  16.107  14.803   7.770 -0.0387  0.1963 -0.1387
  406loPI   C1B 6493  16.643  13.396   9.311 -0.0439  0.1524 -0.0740
  406loPI   C2B 6494  16.841  13.697   9.104 -0.2623  0.0566 -0.1772
  406loPI   C3B 6495  17.018  14.067   8.809  0.3233  0.0388 -0.1341
  406loPI   C4B 6496  17.236  14.066   8.410  0.0471 -0.0095 -0.3503
  407loPI    C1 6497   6.974   5.045  10.906 -0.0971 -0.0549  0.0294
  407loPI    C2 6498   6.851   5.127  11.278  0.1885  0.1021  0.0923
  407loPI    C3 6499   6.618   5.218  10.965 -0.0072  0.0660  0.2257
  407loPI   PO4 6500   7.240   5.255  10.842  0.1407  0.2911  0.0352
  407loPI   GL1 6501   7.302   5.658  10.543 -0.0890 -0.0791 -0.0616
  407loPI   GL2 6502   7.536   5.957  10.570  0.3350  0.1078 -0.1495
  407loPI   C1A 6503   7.378   5.602  10.107 -0.3072 -0.0078 -0.0050
  407loPI   C2A 6504   7.555   5.429   9.631  0.0790 -0.1631 -0.1327
  407loPI   C3A 6505   7.451   5.462   9.203 -0.0168 -0.0676 -0.1128
  407loPI   C4A 6506   7.516   5.358   8.780  0.1864  0.2324 -0.1400
  407loPI   C5A 6507   7.447   4.836   8.532 -0.2058  0.0606  0.0379
  407loPI   C6A 6508   7.196   4.440   8.749 -0.0340  0.1026  0.0204
  407loPI   C1B 6509   7.658   5.995  10.215  0.1058  0.1245  0.1271
  407loPI   C2B 6510   7.779   5.793   9.845  0.1176 -0.0569  0.0634
  407loPI   C3B 6511   7.919   5.764   9.367 -0.1903 -0.0816  0.1432
  407loPI   C4B 6512   7.814   5.766   8.914 -0.2684 -0.3775  0.2447
  408loPI    C1 6513  18.701   6.397  10.351 -0.1695 -0.0547  0.2121
  408loPI    C2 6514  18.861   6.118  10.588 -0.0355 -0.2112 -0.0577
  408loPI    C3 6515  18.687   6.440  10.748  0.1321 -0.2694  0.2496
  408loPI   PO4 6516  18.868   6.449  10.133  0.3834  0.3455  0.1086
  408loPI   GL1 6517  18.862   6.215   9.618 -0.1615  0.0530  0.0779
  408loPI   GL2 6518  19.121   5.994   9.581 -0.1702  0.2626 -0.1621
  408loPI   C1A 6519  18.867   6.455   9.181  0.1645 -0.1980 -0.1969
  408loPI   C2A 6520  19.103   6.338   9.015  0.0526 -0.2023  0.0650
  408loPI   C3A 6521  19.360   6.407   8.710 -0.1711  0.1818 -0.0887
  408loPI   C4A 6522  19.541   6.605   8.394  0.2727  0.0573  0.2586
  408loPI   C5A 6523  19.756   6.630   7.992  0.1997  0.0604  0.4021
  408loPI   C6A 6524  19.717   6.393   7.633 -0.1340 -0.1586  0.0091
  408loPI   C1B 6525  18.936   5.889   9.132 -0.0429  0.1109 -0.1753
  408loPI   C2B 6526  18.827   5.770   8.722  0.0897 -0.0312  0.1970
  408loPI   C3B 6527  18.914   5.815   8.350 -0.0509 -0.0273  0.2035
  408loPI   C4B 6528  18.995   5.803   7.927 -0.0631 -0.1815  0.0990
  409loPI    C1 6529   4.142  12.348  10.467 -0.2100  0.3411 -0.2579
  409loPI    C2 6530   3.796  12.479  10.620 -0.1098  0.0298  0.2599
  409loPI    C3 6531   3.961  12.141  10.757  0.4324  0.2038  0.0636
  409loPI   PO4 6532   4.036  12.453  10.146  0.1465  0.1313 -0.1358
  409loPI   GL1 6533   4.115  12.326   9.674  0.1818  0.1084 -0.0428
  409loPI   GL2 6534   3.989  12.237   9.379  0.0855  0.1753 -0.1395
  409loPI   C1A 6535   4.424  12.603   9.385  0.2274  0.1655  0.0101
  409loPI   C2A 6536   4.457  12.678   8.983  0.2492  0.0218  0.2431
  409loPI   C3A 6537   4.567  12.610   8.536  0.2199 -0.2154 -0.3150
  409loPI   C4A 6538   4.703  12.564   8.007  0.4391  0.1335  0.2688
  409loPI   C5A 6539   4.650  12.550   7.525  0.0344 -0.1590 -0.0371
  409loPI   C6A 6540   4.788  12.142   7.423  0.2253 -0.2609  0.3114
  409loPI   C1B 6541   4.111  12.394   8.878 -0.0466 -0.1441  0.0084
  409loPI   C2B 6542   4.162  12.386   8.411  0.2516  0.3352 -0.0816
  409loPI   C3B 6543   4.307  12.276   7.999  0.2010  0.0891  0.2742
  409loPI   C4B 6544   4.218  12.140   7.612 -0.2096  0.1098  0.0206
  410loPI    C1 6545  14.917  17.474   9.937 -0.0462 -0.1502 -0.0477
  410loPI    C2 6546  15.042  17.789  10.149 -0.0617 -0.2909  0.1736
  410loPI    C3 6547  14.687  17.622  10.228 -0.0896 -0.3146  0.0026
  410loPI   PO4 6548  14.887  17.532   9.685  0.2803 -0.2124  0.2100
  410loPI   GL1 6549  15.125  17.506   9.330  0.2622 -0.0256 -0.0203
  410loPI   GL2 6550  14.965  17.488   9.209  0.0714 -0.0396  0.0189
  410loPI   C1A 6551  15.428  17.388   8.999 -0.5091 -0.2511  0.2039
  410loPI   C2A 6552  15.577  17.188   8.605 -0.3052 -0.0279  0.1939
  410loPI   C3A 6553  15.775  16.969   8.321  0.2124 -0.2812 -0.1869
  410loPI   C4A 6554  15.928  16.911   8.018  0.0669 -0.2082  0.1581
  410loPI   C5A 6555  16.038  16.981   7.677  0.2647  0.1370  0.0958
  410loPI   C6A 6556  16.380  17.204   7.479  0.1450  0.3729 -0.0159
  410loPI   C1B 6557  14.799  17.358   8.851 -0.1179 -0.1070  0.2431
  410loPI   C2B 6558  14.614  17.056   8.513 -0.4179 -0.0136 -0.1535
  410loPI   C3B 6559  14.494  16.901   8.074  0.1428  0.1988 -0.1165
  410loPI   C4B 6560  14.412  16.654   7.748 -0.0359  0.0425 -0.0437
  411loPI    C1 6561   2.529   9.797  10.205 -0.0281 -0.0736 -0.2090
  411loPI    C2 6562   2.321   9.912  10.527  0.0767  0.0802 -0.1954
  411loPI    C3 6563   2.581   9.609  10.555  0.2429  0.2311 -0.0808
  411loPI   PO4 6564   2.410   9.826  10.012 -0.2857  0.1527  0.4249
  411loPI   GL1 6565   2.431   9.641   9.647  0.0337  0.0251 -0.0333
  411loPI   GL2 6566   2.479   9.454   9.316  0.2906  0.2599  0.0255
  411loPI   C1A 6567   2.657  10.066   9.460 -0.0480  0.0076  0.0638
  411loPI   C2A 6568   2.827  10.240   9.098 -0.0220 -0.0192 -0.0238
  411loPI   C3A 6569   2.863  10.090   8.667  0.0188 -0.0759 -0.1214
  411loPI   C4A 6570   2.889  10.095   8.228  0.1657  0.2468  0.0330
  411loPI   C5A 6571   2.814  10.397   7.840  0.2980  0.1830  0.3819
  411loPI   C6A 6572   2.993  10.639   7.595  0.1607  0.4371 -0.1182
  411loPI   C1B 6573   2.450   9.238   8.944  0.1511 -0.1880  0.1246
  411loPI   C2B 6574   2.451   9.214   8.528  0.1533  0.1265  0.0147
  411loPI   C3B 6575   2.728   9.089   8.250  0.2108 -0.1222  0.1909
  411loPI   C4B 6576   2.888   9.052   7.829 -0.3725 -0.1226 -0.1787
  412loPI    C1 6577   1.955   0.874   9.972 -0.0098  0.1621 -0.1014
  412loPI    C2 6578   1.779   0.530  10.075  0.1459  0.1092 -0.0079
  412loPI    C3 6579   2.102   0.656  10.274  0.2607  0.1658 -0.2279
  412loPI   PO4 6580   1.901   0.881   9.762  0.1049 -0.2921  0.0352
  412loPI   GL1 6581   2.018   1.078   9.413  0.0025 -0.0373  0.0463
  412loPI   GL2 6582   1.914   0.839   9.283  0.2133 -0.1887  0.1817
  412loPI   C1A 6583   2.183   1.190   9.020  0.0624 -0.0258  0.0214
  412loPI   C2A 6584   2.276   1.209   8.681  0.3353  0.0915  0.0399
  412loPI   C3A 6585   2.197   1.190   8.250  0.3021  0.0319 -0.2609
  412loPI   C4A 6586   2.225   1.110   7.769  0.1935 -0.0400  0.0047
  412loPI   C5A 6587   1.998   1.091   7.392 -0.1616  0.0110 -0.1931
  412loPI   C6A 6588   1.725   1.168   7.170  0.1084  0.0258 -0.1192
  412loPI   C1B 6589   1.791   0.525   8.998  0.0501 -0.2346  0.0751
  412loPI   C2B 6590   1.688   0.514   8.586 -0.2794  0.1830  0.0651
  412loPI   C3B 6591   1.757   0.349   8.087 -0.0580  0.0200  0.2666
  412loPI   C4B 6592   1.477   0.262   7.789 -0.1794 -0.1117 -0.3368
  413loPI    C1 6593  18.035   5.356  10.081 -0.1589  0.1088  0.1608
  413loPI    C2 6594  18.385   5.253  10.243 -0.1308 -0.3103 -0.1494
  413loPI    C3 6595  18.350   5.601  10.050 -0.0407 -0.0173  0.3441
  413loPI   PO4 6596  17.918   5.202   9.910  0.0689 -0.1425  0.1489
  413loPI   GL1 6597  17.819   5.103   9.504  0.1574  0.3697  0.0248
  413loPI   GL2 6598  18.199   4.933   9.411  0.1589  0.5540 -0.3215
  413loPI   C1A 6599  17.992   5.259   9.016 -0.4540 -0.0470 -0.0313
  413loPI   C2A 6600  17.908   4.960   8.674 -0.2938  0.0682  0.5217
  413loPI   C3A 6601  17.957   4.910   8.220 -0.4817  0.0352  0.1062
  413loPI   C4A 6602  18.002   4.774   7.831  0.0739  0.0963 -0.2453
  413loPI   C5A 6603  18.062   4.478   7.610 -0.0859 -0.0022 -0.0669
  413loPI   C6A 6604  17.694   4.293   7.287 -0.2137  0.3063  0.0165
  413loPI   C1B 6605  18.466   5.044   9.048 -0.2391 -0.1286 -0.0354
  413loPI   C2B 6606  18.465   4.990   8.678 -0.2758 -0.1470  0.0645
  413loPI   C3B 6607  18.514   4.934   8.210  0.0645 -0.0519  0.3849
  413loPI   C4B 6608  18.473   4.975   7.703  0.0077 -0.2741  0.2334
  414loPI    C1 6609   4.183  13.414  10.503  0.0829 -0.1026  0.0103
  414loPI    C2 6610   4.514  13.470  10.720  0.1251  0.3873 -0.1679
  414loPI    C3 6611   4.210  13.728  10.750 -0.2732 -0.0915  0.0396
  414loPI   PO4 6612   4.334  13.273  10.255  0.1861 -0.0767  0.1421
  414loPI   GL1 6613   4.551  13.419   9.941 -0.0722  0.2792  0.1170
  414loPI   GL2 6614   4.534  13.181   9.759  0.0409 -0.0725  0.2351
  414loPI   C1A 6615   4.482  13.580   9.460  0.0951 -0.3168  0.0158
  414loPI   C2A 6616   4.468  13.685   9.008 -0.2691  0.5416  0.1203
  414loPI   C3A 6617   4.611  13.715   8.654 -0.2896 -0.5075 -0.3792
  414loPI   C4A 6618   4.668  13.651   8.182  0.0658  0.0289  0.2320
  414loPI   C5A 6619   4.862  13.529   7.875 -0.2761 -0.1906  0.0676
  414loPI   C6A 6620   5.205  13.184   7.820  0.0151  0.5484  0.2997
  414loPI   C1B 6621   4.430  13.078   9.326  0.0514  0.0859  0.0759
  414loPI   C2B 6622   4.512  13.238   8.851  0.2413  0.1334  0.1711
  414loPI   C3B 6623   4.655  13.121   8.479 -0.0773 -0.2398  0.0560
  414loPI   C4B 6624   4.792  13.081   8.062  0.1516  0.0842 -0.0058
  415loPI    C1 6625   0.549  13.040  10.370 -0.1190 -0.1390  0.1948
  415loPI    C2 6626   0.867  13.209  10.545 -0.0448 -0.2660  0.1834
  415loPI    C3 6627   0.599  13.012  10.766 -0.1006 -0.1838  0.1893
  415loPI   PO4 6628   0.576  13.213  10.059  0.1048 -0.1582 -0.0209
  415loPI   GL1 6629   0.685  13.326   9.660  0.2793  0.0244  0.2548
  415loPI   GL2 6630   0.389  13.239   9.609 -0.0527 -0.0535  0.1632
  415loPI   C1A 6631   0.663  13.465   9.211  0.0187  0.0473 -0.1454
  415loPI   C2A 6632   0.779  13.412   8.757  0.1001  0.0888  0.3429
  415loPI   C3A 6633   0.627  13.447   8.395  0.1916  0.2920  0.0068
  415loPI   C4A 6634   0.777  13.414   7.993 -0.3840 -0.0433  0.1473
  415loPI   C5A 6635   0.954  13.220   7.720  0.1713 -0.0304  0.1342
  415loPI   C6A 6636   0.950  12.808   7.589 -0.1466  0.2970  0.2120
  415loPI   C1B 6637   0.462  12.996   9.307 -0.2996 -0.2187  0.1540
  415loPI   C2B 6638   0.761  12.946   8.950 -0.3771 -0.2446  0.1037
  415loPI   C3B 6639   1.076  12.871   8.612 -0.3085  0.2274 -0.0442
  415loPI   C4B 6640   1.344  12.896   8.204 -0.3516 -0.1591  0.0565
  416loPI    C1 6641   3.229  12.469   9.890 -0.2694  0.0162 -0.1606
  416loPI    C2 6642   3.535  12.468  10.148 -0.0721 -0.2738 -0.3900
  416loPI    C3 6643   3.251  12.749  10.175  0.0495 -0.1845  0.0170
  416loPI   PO4 6644   3.365  12.392   9.646 -0.0449  0.2435  0.3138
  416loPI   GL1 6645   3.487  12.434   9.273 -0.4742  0.2972  0.0445
  416loPI   GL2 6646   3.247  12.670   9.205  0.0450 -0.0334  0.1472
  416loPI   C1A 6647   3.639  12.443   8.900  0.2030  0.1434  0.1787
  416loPI   C2A 6648   3.628  12.306   8.499  0.0691 -0.1557 -0.1757
  416loPI   C3A 6649   3.819  12.085   8.163 -0.2558  0.0173 -0.0108
  416loPI   C4A 6650   3.919  11.791   7.871  0.1526  0.0547 -0.0487
  416loPI   C5A 6651   4.129  11.623   7.538 -0.1733  0.2122 -0.0059
  416loPI   C6A 6652   4.307  11.790   7.218  0.0124  0.2058 -0.3527
  416loPI   C1B 6653   3.222  12.702   8.725  0.0656 -0.0379 -0.0178
  416loPI   C2B 6654   3.485  12.776   8.386 -0.2516 -0.0262 -0.0158
  416loPI   C3B 6655   3.694  12.578   8.112 -0.0405  0.1532  0.2076
  416loPI   C4B 6656   3.833  12.370   7.765 -0.2721 -0.1225 -0.0336
  417loPI    C1 6657  10.051   8.741  10.698  0.0128 -0.0420 -0.1613
  417loPI    C2 6658   9.874   8.783  11.054 -0.0603  0.1074 -0.2145
  417loPI    C3 6659  10.177   8.525  11.010 -0.2227 -0.1045 -0.1078
  417loPI   PO4 6660   9.906   8.758  10.539 -0.0718 -0.4015 -0.0298
  417loPI   GL1 6661   9.766   8.593  10.119 -0.1218 -0.3050 -0.0728
  417loPI   GL2 6662  10.047   8.747  10.084  0.0920 -0.2024  0.1061
  417loPI   C1A 6663   9.430   8.460   9.878  0.1622  0.2632 -0.1679
  417loPI   C2A 6664   8.987   8.282   9.855 -0.1491 -0.1029 -0.0071
  417loPI   C3A 6665   8.840   8.149   9.396 -0.2229 -0.0360 -0.1695
  417loPI   C4A 6666   8.842   8.305   8.970 -0.2070 -0.1579 -0.3640
  417loPI   C5A 6667   8.954   8.361   8.526  0.2292 -0.0310  0.3134
  417loPI   C6A 6668   9.143   8.435   8.157 -0.4157  0.1895  0.0323
  417loPI   C1B 6669  10.046   8.756   9.701  0.0140  0.3910  0.1554
  417loPI   C2B 6670  10.102   8.586   9.288  0.0120 -0.0369  0.1109
  417loPI   C3B 6671   9.979   8.611   8.825  0.0322 -0.2789  0.0010
  417loPI   C4B 6672   9.718   8.391   8.599  0.0039  0.2475 -0.5685
  418loPI    C1 6673  14.537  16.001   9.789 -0.0672  0.1309  0.0992
  418loPI    C2 6674  14.480  15.790   9.455  0.2325 -0.0014  0.1287
  418loPI    C3 6675  14.197  16.042   9.582  0.1330  0.0836 -0.2468
  418loPI   PO4 6676  14.779  16.100   9.763 -0.1199  0.3203 -0.3617
  418loPI   GL1 6677  14.917  15.984   9.417 -0.1896 -0.1413 -0.2037
  418loPI   GL2 6678  15.260  15.975   9.405  0.0086  0.5039  0.1413
  418loPI   C1A 6679  14.788  16.009   9.020  0.0154  0.2899 -0.2863
  418loPI   C2A 6680  14.769  16.387   8.766 -0.3385 -0.0488  0.1843
  418loPI   C3A 6681  14.875  16.474   8.328  0.0253  0.0076  0.0529
  418loPI   C4A 6682  14.955  16.497   7.950 -0.2228 -0.1039 -0.0346
  418loPI   C5A 6683  14.816  16.931   7.664 -0.4109 -0.1141  0.1046
  418loPI   C6A 6684  15.177  17.111   7.410  0.2609  0.1486  0.0762
  418loPI   C1B 6685  15.250  15.932   8.891 -0.0394  0.0338 -0.1319
  418loPI   C2B 6686  15.006  16.015   8.512  0.2050  0.0017  0.1623
  418loPI   C3B 6687  15.124  16.020   8.032 -0.2687  0.3662  0.2846
  418loPI   C4B 6688  15.061  16.151   7.635 -0.0392 -0.2018  0.0048
  419loPI    C1 6689  18.660   2.365   9.723  0.3620  0.0715 -0.0115
  419loPI    C2 6690  18.455   2.495  10.040  0.1663 -0.1154 -0.0588
  419loPI    C3 6691  18.854   2.519  10.037  0.1647 -0.0294  0.1628
  419loPI   PO4 6692  18.580   2.468   9.526 -0.3068 -0.0865  0.0525
  419loPI   GL1 6693  18.718   2.580   9.197 -0.0583 -0.1142 -0.3074
  419loPI   GL2 6694  18.578   2.845   9.202 -0.3627 -0.1741 -0.0791
  419loPI   C1A 6695  18.863   2.696   8.848  0.0170 -0.2786  0.2141
  419loPI   C2A 6696  18.868   2.704   8.437  0.2044  0.1292  0.1642
  419loPI   C3A 6697  18.630   2.566   8.036  0.2163  0.0081  0.0444
  419loPI   C4A 6698  18.318   2.724   7.743 -0.2410  0.0866  0.1084
  419loPI   C5A 6699  18.064   2.587   7.432 -0.0704 -0.2862 -0.0841
  419loPI   C6A 6700  18.131   2.312   7.042  0.2175  0.0843 -0.0106
  419loPI   C1B 6701  18.330   3.019   8.927 -0.0110  0.1963  0.1432
  419loPI   C2B 6702  18.254   3.215   8.483  0.0142 -0.2581 -0.1499
  419loPI   C3B 6703  18.435   3.457   8.182 -0.3229 -0.1607 -0.0209
  419loPI   C4B 6704  18.468   3.220   7.760  0.3370  0.2704  0.0506
  420loPI    C1 6705  12.929   4.477  10.589  0.1388 -0.0425 -0.0893
  420loPI    C2 6706  12.895   4.840  10.755 -0.0112 -0.0274 -0.1519
  420loPI    C3 6707  13.106   4.555  10.939  0.1254  0.0980 -0.1130
  420loPI   PO4 6708  12.942   4.506  10.363  0.2245 -0.4871  0.1289
  420loPI   GL1 6709  12.760   4.608  10.002 -0.1680 -0.0453  0.1893
  420loPI   GL2 6710  12.716   4.355   9.758  0.0512  0.2153  0.2480
  420loPI   C1A 6711  12.595   4.852   9.726 -0.2311 -0.1247  0.2480
  420loPI   C2A 6712  12.588   4.686   9.306 -0.4433  0.1579  0.1163
  420loPI   C3A 6713  12.552   4.650   8.859  0.0811 -0.3045 -0.2097
  420loPI   C4A 6714  12.454   4.681   8.370  0.2738 -0.0148  0.2473
  420loPI   C5A 6715  12.519   4.687   7.948  0.0315 -0.2484  0.0632
  420loPI   C6A 6716  12.326   4.839   7.517 -0.1369  0.0463 -0.0136
  420loPI   C1B 6717  12.747   4.231   9.262 -0.1343 -0.4678  0.1435
  420loPI   C2B 6718  12.619   4.150   8.799 -0.0933  0.1314 -0.1437
  420loPI   C3B 6719  12.568   4.197   8.461 -0.2662 -0.0294  0.2407
  420loPI   C4B 6720  12.507   4.188   8.061 -0.0980 -0.0394 -0.0697
  421loPI    C1 6721  14.613   0.167  10.168 -0.2826 -0.1163 -0.2698
  421loPI    C2 6722  14.741   0.029  10.521 -0.0056 -0.0829 -0.3548
  421loPI    C3 6723  14.408   0.249  10.501 -0.2121 -0.3707 -0.1615
  421loPI   PO4 6724  14.601  -0.004   9.985  0.0277 -0.2630 -0.2023
  421loPI   GL1 6725  14.429  -0.087   9.586  0.1368 -0.0047  0.1898
  421loPI   GL2 6726  14.509  -0.072   9.351  0.2103 -0.0052  0.4544
  421loPI   C1A 6727  14.065  -0.311   9.216 -0.2414  0.2762 -0.6486
  421loPI   C2A 6728  13.969  -0.389   8.742  0.0982  0.1319  0.1341
  421loPI   C3A 6729  13.962  -0.468   8.318  0.2152 -0.0819 -0.0669
  421loPI   C4A 6730  14.160  -0.364   7.925  0.1130 -0.0327 -0.1864
  421loPI   C5A 6731  14.154  -0.268   7.521  0.2015 -0.5574 -0.0270
  421loPI   C6A 6732  14.280   0.030   7.273 -0.0994 -0.1926  0.0544
  421loPI   C1B 6733  14.672   0.044   8.906  0.2174  0.2694  0.0985
  421loPI   C2B 6734  14.818   0.095   8.485 -0.3879  0.0882  0.0970
  421loPI   C3B 6735  15.144  -0.149   8.226 -0.0586  0.2150  0.1623
  421loPI   C4B 6736  15.353  -0.445   7.943  0.3229 -0.3155  0.1458
  422loPI    C1 6737   3.702   0.437  10.155  0.0138  0.0661 -0.3303
  422loPI    C2 6738   3.505   0.776  10.233  0.1567  0.0692  0.0393
  422loPI    C3 6739   3.338   0.423  10.319  0.1493  0.0575 -0.0223
  422loPI   PO4 6740   3.790   0.491   9.844  0.0023  0.0580 -0.2558
  422loPI   GL1 6741   3.613   0.402   9.433 -0.1150  0.0927 -0.4443
  422loPI   GL2 6742   3.934   0.156   9.527  0.1127  0.1534 -0.0062
  422loPI   C1A 6743   3.604   0.343   8.949 -0.2568 -0.1282  0.2201
  422loPI   C2A 6744   3.555   0.299   8.565 -0.0402 -0.0003 -0.1575
  422loPI   C3A 6745   3.431   0.343   8.127 -0.3441  0.0995 -0.2220
  422loPI   C4A 6746   3.503   0.515   7.675  0.4678 -0.0975  0.1958
  422loPI   C5A 6747   3.799   0.536   7.269  0.1402  0.0246  0.0964
  422loPI   C6A 6748   4.053   0.790   7.073  0.4390  0.0717  0.1845
  422loPI   C1B 6749   4.002   0.104   9.089  0.2745 -0.0092 -0.1017
  422loPI   C2B 6750   3.922   0.050   8.662 -0.2975  0.1515 -0.1234
  422loPI   C3B 6751   3.973   0.097   8.318  0.1251 -0.2010  0.1020
  422loPI   C4B 6752   3.826   0.138   7.914 -0.2165 -0.1508  0.0364
  423loPI    C1 6753   6.323  16.580  10.683  0.1775  0.0559 -0.3010
  423loPI    C2 6754   6.063  16.280  10.723 -0.1292  0.3483 -0.0362
  423loPI    C3 6755   6.346  16.337  11.000  0.0077  0.2321 -0.1506
  423loPI   PO4 6756   6.435  16.600  10.408 -0.2223  0.1089 -0.0420
  423loPI   GL1 6757   6.778  16.770  10.193 -0.0972 -0.1739  0.3017
  423loPI   GL2 6758   7.070  16.758  10.023  0.2298  0.0949 -0.0414
  423loPI   C1A 6759   6.607  16.695   9.786  0.3246  0.1421  0.1680
  423loPI   C2A 6760   6.521  16.754   9.353 -0.0044 -0.0104 -0.5448
  423loPI   C3A 6761   6.558  16.741   8.935  0.0192  0.0075  0.1449
  423loPI   C4A 6762   6.740  16.711   8.553 -0.0564  0.0834 -0.2113
  423loPI   C5A 6763   6.734  16.854   8.142 -0.2140 -0.0875 -0.1512
  423loPI   C6A 6764   6.835  17.265   7.959  0.0185 -0.0769 -0.1725
  423loPI   C1B 6765   7.346  16.780   9.705 -0.2015 -0.2340  0.0899
  423loPI   C2B 6766   7.745  17.045   9.408 -0.2340 -0.4098  0.0144
  423loPI   C3B 6767   7.988  16.814   9.186  0.1147  0.1913  0.0564
  423loPI   C4B 6768   8.088  16.808   8.747 -0.2866  0.3165  0.0421
  424loPI    C1 6769   9.321  12.427  10.373 -0.1412 -0.0496  0.0480
  424loPI    C2 6770   9.568  12.736  10.430 -0.0113 -0.1657  0.1190
  424loPI    C3 6771   9.241  12.698  10.657 -0.0442 -0.0641  0.0893
  424loPI   PO4 6772   9.440  12.363  10.051 -0.0874  0.0414  0.1869
  424loPI   GL1 6773   9.234  12.358   9.545 -0.1234 -0.4722 -0.5495
  424loPI   GL2 6774   9.487  12.235   9.535  0.2018 -0.1464  0.2085
  424loPI   C1A 6775   9.116  12.329   9.203 -0.5012  0.2302 -0.2579
  424loPI   C2A 6776   9.207  12.410   8.822 -0.0987 -0.1646 -0.0309
  424loPI   C3A 6777   8.949  12.492   8.405  0.2205  0.3726 -0.1733
  424loPI   C4A 6778   8.818  12.626   8.058  0.1581 -0.1356  0.1552
  424loPI   C5A 6779   8.621  12.891   7.796  0.0262  0.1266  0.3064
  424loPI   C6A 6780   8.383  13.005   7.463 -0.0646  0.1504  0.3099
  424loPI   C1B 6781   9.494  11.921   9.199  0.0507 -0.0250  0.1981
  424loPI   C2B 6782   9.339  11.874   8.786 -0.0143  0.0177  0.0109
  424loPI   C3B 6783   9.229  12.025   8.412 -0.0694 -0.0580 -0.1056
  424loPI   C4B 6784   9.380  11.949   7.938 -0.0591  0.1059 -0.1959
  425loPI    C1 6785   6.630  17.782  10.630  0.2056 -0.3843  0.0646
  425loPI    C2 6786   6.358  17.634  10.884  0.1993 -0.0941  0.2308
  425loPI    C3 6787   6.635  17.892  11.015  0.2399  0.0042 -0.0434
  425loPI   PO4 6788   6.553  17.644  10.397 -0.2416  0.1254 -0.0717
  425loPI   GL1 6789   6.441  17.330  10.064 -0.4606  0.1659  0.0878
  425loPI   GL2 6790   6.307  16.999  10.096 -0.0305 -0.1920  0.0141
  425loPI   C1A 6791   6.424  17.282   9.639  0.0226 -0.3313  0.2476
  425loPI   C2A 6792   6.511  17.249   9.135  0.2245 -0.0717 -0.1400
  425loPI   C3A 6793   6.585  17.253   8.692  0.1430 -0.0407 -0.4823
  425loPI   C4A 6794   6.462  17.254   8.326  0.2084 -0.1386  0.1526
  425loPI   C5A 6795   6.405  17.457   7.883 -0.2137 -0.0139 -0.0987
  425loPI   C6A 6796   6.123  17.618   7.545  0.0718 -0.1532  0.0331
  425loPI   C1B 6797   6.175  16.850   9.682  0.1904  0.1385  0.1851
  425loPI   C2B 6798   6.082  16.946   9.217 -0.1117  0.0461 -0.5037
  425loPI   C3B 6799   6.135  17.027   8.787 -0.1010 -0.0234  0.1425
  425loPI   C4B 6800   6.177  16.924   8.432 -0.0329 -0.0370  0.0038
  426loPI    C1 6801   4.202   9.313  10.164  0.1152  0.0426 -0.0099
  426loPI    C2 6802   4.370   9.228  10.516  0.1577  0.1511 -0.0037
  426loPI    C3 6803   3.984   9.329  10.499  0.0839 -0.1247 -0.0212
  426loPI   PO4 6804   4.239   9.155  10.018  0.0764 -0.2186 -0.2738
  426loPI   GL1 6805   4.060   8.844   9.731  0.2116 -0.0016  0.1138
  426loPI   GL2 6806   3.997   9.133   9.628  0.2524 -0.0787  0.4470
  426loPI   C1A 6807   3.913   8.719   9.334  0.1718  0.3843  0.1693
  426loPI   C2A 6808   3.958   8.779   8.925 -0.3776 -0.3184 -0.4082
  426loPI   C3A 6809   3.947   8.649   8.430  0.1174  0.0709  0.0055
  426loPI   C4A 6810   3.706   8.537   8.011  0.2248 -0.0989 -0.1760
  426loPI   C5A 6811   3.341   8.642   7.677 -0.3161  0.1597 -0.1827
  426loPI   C6A 6812   3.360   8.623   7.229 -0.0280 -0.1189 -0.1097
  426loPI   C1B 6813   3.844   9.244   9.161  0.0509  0.0912 -0.1268
  426loPI   C2B 6814   3.832   9.214   8.639  0.1301  0.0096  0.2461
  426loPI   C3B 6815   3.862   9.092   8.205  0.0932  0.1278  0.2392
  426loPI   C4B 6816   4.160   8.923   7.837 -0.0932 -0.1550 -0.1554
  427loPI    C1 6817   9.953   8.071  10.724  0.0707 -0.1975  0.2810
  427loPI    C2 6818   9.701   8.374  10.788  0.1839 -0.0350 -0.0250
  427loPI    C3 6819   9.813   8.140  11.092 -0.1073  0.0682  0.1660
  427loPI   PO4 6820   9.934   8.007  10.433 -0.0275 -0.0904  0.2678
  427loPI   GL1 6821   9.758   8.082  10.058  0.2374 -0.2357 -0.2672
  427loPI   GL2 6822   9.433   7.953   9.946 -0.1416  0.2890 -0.2392
  427loPI   C1A 6823   9.770   8.235   9.579 -0.1069  0.1345  0.0911
  427loPI   C2A 6824   9.654   8.428   9.129 -0.0482 -0.0266  0.0382
  427loPI   C3A 6825   9.306   8.538   8.780 -0.0429 -0.0268 -0.1065
  427loPI   C4A 6826   9.166   8.882   8.446  0.1274  0.0058 -0.1283
  427loPI   C5A 6827   9.074   8.994   8.011 -0.3808 -0.3048  0.1384
  427loPI   C6A 6828   9.023   9.036   7.572 -0.1162 -0.1067  0.0078
  427loPI   C1B 6829   9.323   8.038   9.512 -0.2680  0.0462  0.1329
  427loPI   C2B 6830   9.295   8.056   8.978 -0.0173 -0.1008  0.0727
  427loPI   C3B 6831   9.342   8.052   8.486 -0.3766 -0.1237 -0.2589
  427loPI   C4B 6832   9.640   8.159   8.135  0.1060 -0.1988  0.3414
  428loPI    C1 6833   6.087   9.453  10.242  0.1651  0.0544 -0.0933
  428loPI    C2 6834   5.980   9.595  10.601 -0.1807  0.0058 -0.1737
  428loPI    C3 6835   6.336   9.417  10.554 -0.1829 -0.0980  0.1732
  428loPI   PO4 6836   6.048   9.674  10.095 -0.0532 -0.1546  0.3528
  428loPI   GL1 6837   5.885   9.933   9.812 -0.2498  0.2251  0.2288
  428loPI   GL2 6838   5.579  10.043   9.706  0.0902  0.2589  0.0926
  428loPI   C1A 6839   6.040   9.772   9.385 -0.3388 -0.0402 -0.0282
  428loPI   C2A 6840   5.994   9.850   8.964  0.0826  0.5085 -0.2731
  428loPI   C3A 6841   6.247   9.789   8.628 -0.1482 -0.3727  0.0180
  428loPI   C4A 6842   6.183   9.818   8.161 -0.0657 -0.2343 -0.2279
  428loPI   C5A 6843   5.986  10.070   7.900  0.1468  0.0392 -0.2363
  428loPI   C6A 6844   5.764  10.409   7.808  0.2323  0.0815  0.1708
  428loPI   C1B 6845   5.522   9.826   9.334 -0.2550 -0.0663 -0.2362
  428loPI   C2B 6846   5.419   9.767   8.922 -0.2293  0.1322 -0.2007
  428loPI   C3B 6847   5.741   9.806   8.510  0.1952 -0.0680 -0.0399
  428loPI   C4B 6848   5.767   9.611   8.137 -0.2071 -0.0121 -0.0526
  429loPI    C1 6849   9.080  11.588   9.990  0.1140  0.0640 -0.2295
  429loPI    C2 6850   9.303  11.575  10.322  0.0656 -0.0098 -0.1996
  429loPI    C3 6851   9.405  11.819  10.022  0.1166  0.0479 -0.1356
  429loPI   PO4 6852   8.880  11.562  10.067  0.1184  0.3109  0.2108
  429loPI   GL1 6853   8.618  11.599   9.709  0.0281 -0.0016  0.0797
  429loPI   GL2 6854   8.532  11.879   9.790 -0.0797  0.1638  0.2326
  429loPI   C1A 6855   8.587  11.715   9.239 -0.1528  0.1731  0.0188
  429loPI   C2A 6856   8.824  11.856   9.005 -0.1226 -0.0753  0.1261
  429loPI   C3A 6857   8.818  12.131   8.684 -0.0632  0.1474  0.0627
  429loPI   C4A 6858   8.697  12.130   8.256  0.1412  0.2446 -0.1136
  429loPI   C5A 6859   8.773  12.126   7.801 -0.3661  0.0641 -0.0487
  429loPI   C6A 6860   9.047  11.756   7.601  0.0609 -0.1554 -0.1027
  429loPI   C1B 6861   8.218  11.964   9.487  0.1394  0.1284 -0.1551
  429loPI   C2B 6862   8.102  11.934   9.144  0.3013  0.0114 -0.0188
  429loPI   C3B 6863   8.367  11.897   8.777 -0.0681 -0.3501  0.0942
  429loPI   C4B 6864   8.362  11.703   8.445 -0.0175 -0.1323 -0.0298
  430loPI    C1 6865  14.074   4.181   9.940 -0.2952  0.1393 -0.2281
  430loPI    C2 6866  14.405   4.239  10.157 -0.2690 -0.0503 -0.2163
  430loPI    C3 6867  14.046   4.319  10.315 -0.2227  0.3033 -0.2819
  430loPI   PO4 6868  14.066   4.265   9.708 -0.1361  0.0325 -0.2282
  430loPI   GL1 6869  14.204   4.264   9.352  0.0597 -0.0157  0.3240
  430loPI   GL2 6870  14.227   3.924   9.435 -0.1229 -0.0494 -0.0776
  430loPI   C1A 6871  14.065   4.220   8.918  0.3015 -0.0755 -0.0713
  430loPI   C2A 6872  13.860   4.089   8.577 -0.0537 -0.1139 -0.0494
  430loPI   C3A 6873  13.866   4.152   8.134 -0.0988 -0.3254  0.1935
  430loPI   C4A 6874  13.822   4.301   7.748 -0.2106  0.1607  0.0119
  430loPI   C5A 6875  13.686   4.700   7.717 -0.1001 -0.1121  0.3290
  430loPI   C6A 6876  13.430   5.044   7.613  0.2927  0.1855 -0.1681
  430loPI   C1B 6877  14.200   3.788   9.063 -0.2159 -0.3342  0.1517
  430loPI   C2B 6878  14.245   3.843   8.603  0.0778  0.1502 -0.0103
  430loPI   C3B 6879  14.337   4.000   8.239 -0.1616 -0.1352 -0.1141
  430loPI   C4B 6880  14.380   4.184   7.768  0.0216 -0.1506  0.0257
  431loPI    C1 6881   9.704  10.870  10.098  0.0278  0.1946 -0.1085
  431loPI    C2 6882   9.419  11.139  10.019 -0.0414  0.1419 -0.0387
  431loPI    C3 6883   9.531  11.071  10.397 -0.1584 -0.0634 -0.0394
  431loPI   PO4 6884   9.580  10.654   9.971 -0.1137 -0.5037 -0.2423
  431loPI   GL1 6885   9.670  10.591   9.519 -0.1376 -0.1613 -0.0964
  431loPI   GL2 6886   9.503  10.921   9.551  0.0601  0.1186 -0.2624
  431loPI   C1A 6887   9.597  10.656   9.120  0.2331 -0.1089  0.1655
  431loPI   C2A 6888   9.598  10.418   8.704  0.2539 -0.1446 -0.3057
  431loPI   C3A 6889   9.690  10.267   8.309 -0.3589 -0.1427 -0.0135
  431loPI   C4A 6890   9.724  10.343   7.853  0.0868  0.0910  0.0101
  431loPI   C5A 6891   9.403  10.555   7.631 -0.0389  0.0347 -0.0006
  431loPI   C6A 6892   9.211  10.565   7.232 -0.1773  0.0703 -0.0593
  431loPI   C1B 6893   9.194  10.953   9.238  0.0117  0.0005 -0.1104
  431loPI   C2B 6894   9.114  10.890   8.802  0.4533 -0.1231  0.0684
  431loPI   C3B 6895   8.714  10.970   8.640 -0.0818  0.1355  0.0415
  431loPI   C4B 6896   8.657  11.224   8.284 -0.0335 -0.1892  0.0464
  432loPI    C1 6897   5.869   2.846  10.614 -0.0023 -0.0653  0.3315
  432loPI    C2 6898   6.204   2.763  10.816  0.2534 -0.1543 -0.1146
  432loPI    C3 6899   6.225   2.881  10.434 -0.2066  0.2288 -0.0311
  432loPI   PO4 6900   5.727   2.680  10.599 -0.5847  0.0529  0.4148
  432loPI   GL1 6901   5.396   2.543  10.406  0.3191  0.1337 -0.1355
  432loPI   GL2 6902   5.319   2.326  10.183 -0.1078  0.0563  0.1908
  432loPI   C1A 6903   5.393   2.708   9.959 -0.0808 -0.1708  0.0333
  432loPI   C2A 6904   5.465   2.540   9.463 -0.0495 -0.0616  0.0453
  432loPI   C3A 6905   5.442   2.454   9.069 -0.3064 -0.1251 -0.0492
  432loPI   C4A 6906   5.491   2.321   8.697 -0.1135 -0.3472 -0.0088
  432loPI   C5A 6907   5.364   2.291   8.167  0.3008  0.0167 -0.3215
  432loPI   C6A 6908   5.079   2.158   7.971  0.3337 -0.1330  0.0150
  432loPI   C1B 6909   5.145   2.248   9.695 -0.4045 -0.0130 -0.3403
  432loPI   C2B 6910   5.037   2.289   9.304 -0.0606 -0.1424  0.0943
  432loPI   C3B 6911   4.999   2.176   8.959 -0.3160 -0.1117 -0.0265
  432loPI   C4B 6912   5.023   2.074   8.558  0.3326  0.2290 -0.1621
  433loPI    C1 6913  11.307  16.041  10.307  0.0217 -0.0370  0.0286
  433loPI    C2 6914  11.674  16.035  10.465  0.0120 -0.1490  0.0479
  433loPI    C3 6915  11.354  15.994  10.701 -0.0036 -0.2880  0.0033
  433loPI   PO4 6916  11.363  15.808  10.052 -0.1038  0.0551 -0.2131
  433loPI   GL1 6917  11.434  15.968   9.657 -0.0677 -0.1929  0.3061
  433loPI   GL2 6918  11.270  15.745   9.531  0.1032  0.1969  0.0107
  433loPI   C1A 6919  11.449  16.098   9.221  0.0169 -0.1364  0.1467
  433loPI   C2A 6920  11.468  16.501   9.046 -0.3690 -0.1061  0.0103
  433loPI   C3A 6921  11.512  16.744   8.686 -0.2137 -0.0647  0.1913
  433loPI   C4A 6922  11.581  16.959   8.330 -0.0688  0.4656  0.3036
  433loPI   C5A 6923  11.319  16.977   7.970  0.1623  0.0666  0.1081
  433loPI   C6A 6924  11.411  17.217   7.660  0.0841 -0.0463 -0.2564
  433loPI   C1B 6925  11.570  15.584   9.270  0.1620  0.0725 -0.2785
  433loPI   C2B 6926  11.801  15.438   8.921 -0.1704 -0.0539 -0.0471
  433loPI   C3B 6927  11.863  15.463   8.536 -0.0375  0.2655 -0.2829
  433loPI   C4B 6928  11.595  15.459   8.103  0.1427  0.3547  0.1406
  434loPI    C1 6929   6.247   4.122  11.269  0.1161 -0.1109  0.1126
  434loPI    C2 6930   6.515   3.827  11.238  0.2637  0.0401 -0.0698
  434loPI    C3 6931   6.224   3.805  11.512  0.2959 -0.2558 -0.0566
  434loPI   PO4 6932   6.289   4.194  11.000 -0.0474 -0.1172 -0.2174
  434loPI   GL1 6933   6.421   4.380  10.597 -0.3898 -0.0418 -0.1978
  434loPI   GL2 6934   6.640   4.718  10.465  0.5124  0.0046  0.0355
  434loPI   C1A 6935   6.364   4.469  10.138 -0.1014 -0.1265  0.0115
  434loPI   C2A 6936   6.543   4.597   9.739  0.2557  0.1155 -0.0329
  434loPI   C3A 6937   6.423   4.523   9.331  0.1397  0.1945 -0.3996
  434loPI   C4A 6938   6.343   4.478   8.907 -0.0143  0.0034  0.3439
  434loPI   C5A 6939   6.325   4.713   8.512  0.1170 -0.0526  0.0038
  434loPI   C6A 6940   6.479   4.761   8.119  0.1617 -0.1593  0.0444
  434loPI   C1B 6941   6.945   4.670  10.073  0.0828  0.0931  0.0168
  434loPI   C2B 6942   7.066   4.772   9.714 -0.1977 -0.4244  0.0586
  434loPI   C3B 6943   7.328   4.563   9.429 -0.2156  0.1329  0.0925
  434loPI   C4B 6944   7.655   4.389   9.064 -0.3190 -0.1503 -0.2993
  435loPI    C1 6945  10.251   9.145  10.523 -0.1370 -0.1940  0.0244
  435loPI    C2 6946  10.244   9.507  10.692  0.1729 -0.1040 -0.1479
  435loPI    C3 6947  10.018   9.213  10.841 -0.0578  0.1494  0.0127
  435loPI   PO4 6948  10.272   9.224  10.263  0.0030 -0.0097  0.1557
  435loPI   GL1 6949  10.281   9.127   9.860  0.3264 -0.3228  0.2694
  435loPI   GL2 6950  10.008   9.254   9.764 -0.2003  0.1017 -0.1753
  435loPI   C1A 6951  10.471   9.036   9.519  0.2774 -0.2241  0.0006
  435loPI   C2A 6952  10.452   8.904   9.124  0.1385  0.0467 -0.1062
  435loPI   C3A 6953  10.412   8.778   8.661 -0.2297  0.3441  0.0888
  435loPI   C4A 6954  10.341   8.916   8.258 -0.0536 -0.2035 -0.0802
  435loPI   C5A 6955   9.976   8.788   7.927 -0.3073  0.0214  0.1006
  435loPI   C6A 6956   9.553   8.942   7.814 -0.2863  0.1758 -0.0870
  435loPI   C1B 6957   9.953   9.200   9.405  0.2169  0.0876 -0.1460
  435loPI   C2B 6958   9.658   9.039   9.108 -0.0873 -0.3089  0.1995
  435loPI   C3B 6959   9.481   9.071   8.760 -0.0520 -0.2641 -0.1338
  435loPI   C4B 6960   9.243   9.364   8.610  0.1818  0.1055 -0.2023
  436loPI    C1 6961  13.584   4.530  10.301  0.0085 -0.2552 -0.0960
  436loPI    C2 6962  13.508   4.615  10.684 -0.2997 -0.0996 -0.1881
  436loPI    C3 6963  13.858   4.719  10.522 -0.1300 -0.2495  0.0739
  436loPI   PO4 6964  13.428   4.438  10.217 -0.0036 -0.1207 -0.0586
  436loPI   GL1 6965  13.244   4.572   9.787 -0.2369  0.1192  0.0407
  436loPI   GL2 6966  13.629   4.641   9.765 -0.1107 -0.0326  0.1105
  436loPI   C1A 6967  13.231   4.501   9.300  0.0460  0.0390 -0.3292
  436loPI   C2A 6968  13.041   4.491   8.897  0.0034 -0.2866 -0.0819
  436loPI   C3A 6969  12.944   4.549   8.517  0.0726  0.0887 -0.4149
  436loPI   C4A 6970  12.951   4.578   8.062 -0.0008 -0.0359  0.1723
  436loPI   C5A 6971  13.013   4.692   7.661 -0.1782 -0.3730 -0.2314
  436loPI   C6A 6972  12.914   5.065   7.363 -0.0242 -0.0404 -0.1775
  436loPI   C1B 6973  13.514   4.920   9.545  0.2782 -0.0228 -0.1737
  436loPI   C2B 6974  13.333   4.900   9.040 -0.3747 -0.3489 -0.0268
  436loPI   C3B 6975  13.372   4.870   8.615  0.1486  0.0170 -0.0863
  436loPI   C4B 6976  13.333   4.880   8.142  0.0648  0.3510 -0.0795
  437loPI    C1 6977  11.677   9.213   9.906 -0.0463 -0.1367 -0.1123
  437loPI    C2 6978  11.715   9.165  10.301 -0.2080  0.2009 -0.0517
  437loPI    C3 6979  11.553   8.874  10.078  0.1877 -0.1287  0.0775
  437loPI   PO4 6980  11.974   9.382   9.876  0.4667 -0.1561  0.2025
  437loPI   GL1 6981  12.097   9.458   9.533  0.0061 -0.3248 -0.2635
  437loPI   GL2 6982  11.852   9.425   9.369 -0.4348  0.0097 -0.0098
  437loPI   C1A 6983  12.259   9.336   9.122 -0.0822 -0.3759 -0.2848
  437loPI   C2A 6984  12.254   9.230   8.828  0.0835  0.3231 -0.2920
  437loPI   C3A 6985  12.277   9.316   8.360  0.0879  0.0190  0.2287
  437loPI   C4A 6986  12.525   9.254   7.866  0.1442  0.5294  0.0072
  437loPI   C5A 6987  12.835   9.347   7.542 -0.0934  0.0191 -0.0092
  437loPI   C6A 6988  13.078   9.063   7.413 -0.0045 -0.4945  0.0199
  437loPI   C1B 6989  11.721   9.428   8.941 -0.1511  0.0792 -0.4345
  437loPI   C2B 6990  11.531   9.383   8.495  0.0428 -0.4594 -0.2113
  437loPI   C3B 6991  11.513   9.371   8.089 -0.1475 -0.1480 -0.0445
  437loPI   C4B 6992  11.670   9.272   7.632  0.0461  0.0007 -0.4298
  438loPI    C1 6993   1.819  14.220   9.968 -0.0044  0.0548 -0.0662
  438loPI    C2 6994   2.051  13.907  10.061  0.1857  0.1883 -0.0871
  438loPI    C3 6995   2.217  14.250   9.937 -0.0282  0.2553 -0.1925
  438loPI   PO4 6996   1.576  14.122   9.760  0.0850  0.4306 -0.0450
  438loPI   GL1 6997   1.516  14.113   9.313  0.0823 -0.0097 -0.0980
  438loPI   GL2 6998   1.298  13.853   9.396  0.2479  0.1009 -0.1070
  438loPI   C1A 6999   1.775  14.384   9.014 -0.1478  0.0572  0.2691
  438loPI   C2A 7000   1.700  14.368   8.537 -0.1234 -0.0732 -0.1560
  438loPI   C3A 7001   1.668  14.381   8.253  0.0761 -0.2417 -0.4157
  438loPI   C4A 7002   1.805  14.749   7.959  0.1490 -0.0175  0.3057
  438loPI   C5A 7003   1.639  15.242   7.678  0.6391 -0.3082 -0.0635
  438loPI   C6A 7004   1.742  15.603   7.453  0.2000 -0.0658 -0.0351
  438loPI   C1B 7005   1.093  13.759   9.035 -0.0942 -0.5903 -0.0440
  438loPI   C2B 7006   1.075  13.758   8.634 -0.0206  0.3570  0.0939
  438loPI   C3B 7007   1.143  13.627   8.273 -0.0731  0.2511 -0.0958
  438loPI   C4B 7008   1.414  13.472   7.889  0.0156  0.0001 -0.0288
  439loPI    C1 7009  13.472   8.549  10.123  0.1812  0.0405 -0.0643
  439loPI    C2 7010  13.338   8.910  10.017  0.3098  0.0917 -0.0543
  439loPI    C3 7011  13.534   8.863  10.363 -0.3005 -0.1149  0.2786
  439loPI   PO4 7012  13.358   8.475   9.876 -0.1696  0.1117  0.0626
  439loPI   GL1 7013  13.628   8.423   9.581 -0.0847 -0.0812 -0.0635
  439loPI   GL2 7014  13.914   8.527   9.555  0.0377 -0.2190  0.0530
  439loPI   C1A 7015  13.317   8.363   9.140  0.2300 -0.1904 -0.1987
  439loPI   C2A 7016  13.080   8.473   8.698  0.0586 -0.1701 -0.1971
  439loPI   C3A 7017  12.861   8.507   8.299  0.2364  0.0799  0.0507
  439loPI   C4A 7018  12.910   8.421   7.783  0.3099 -0.1642 -0.0144
  439loPI   C5A 7019  13.097   8.461   7.324  0.2682 -0.3757 -0.2565
  439loPI   C6A 7020  13.308   8.297   6.943 -0.0383 -0.1258 -0.0581
  439loPI   C1B 7021  13.756   8.637   9.189 -0.2011  0.1088  0.1586
  439loPI   C2B 7022  13.738   8.550   8.753 -0.0626 -0.2983  0.3602
  439loPI   C3B 7023  13.880   8.571   8.353  0.3654  0.1337 -0.3012
  439loPI   C4B 7024  13.763   8.423   8.015 -0.0156  0.0464  0.3472
  440loPI    C1 7025   9.956   1.827  10.839  0.0593  0.0038  0.0456
  440loPI    C2 7026  10.301   1.921  11.018  0.1500  0.3024 -0.2731
  440loPI    C3 7027   9.965   2.114  11.117  0.0704  0.0182  0.0304
  440loPI   PO4 7028   9.963   1.825  10.522  0.6309  0.2933  0.0653
  440loPI   GL1 7029   9.635   1.879  10.300 -0.1824 -0.2616  0.4195
  440loPI   GL2 7030   9.420   1.606  10.327  0.1569  0.1125  0.1291
  440loPI   C1A 7031   9.830   2.061   9.916 -0.0450  0.2083 -0.3016
  440loPI   C2A 7032   9.736   1.996   9.426  0.0001 -0.1974  0.0243
  440loPI   C3A 7033   9.698   2.084   8.953  0.3045  0.0454  0.2679
  440loPI   C4A 7034   9.473   2.071   8.549 -0.0590 -0.0035 -0.1562
  440loPI   C5A 7035   9.200   2.027   8.190  0.1661  0.0049  0.1005
  440loPI   C6A 7036   8.838   2.005   7.910  0.1511 -0.1310 -0.2818
  440loPI   C1B 7037   9.364   1.711   9.794 -0.0400  0.1506  0.1189
  440loPI   C2B 7038   9.277   1.721   9.390 -0.0498  0.3124  0.1906
  440loPI   C3B 7039   9.372   1.749   8.998  0.0026  0.1572  0.0288
  440loPI   C4B 7040   9.137   1.664   8.630 -0.2543  0.0748 -0.0917
  441loPI    C1 7041   7.927  12.456  10.172  0.0580 -0.0809 -0.0458
  441loPI    C2 7042   7.777  12.728  10.424  0.3037 -0.0390  0.0593
  441loPI    C3 7043   7.826  12.349  10.544  0.0509 -0.1110 -0.0563
  441loPI   PO4 7044   8.113  12.595  10.013  0.0323 -0.1974  0.1397
  441loPI   GL1 7045   8.084  12.741   9.689 -0.0636 -0.3151 -0.0059
  441loPI   GL2 7046   8.247  12.915   9.603  0.1764 -0.1337  0.0945
  441loPI   C1A 7047   8.069  12.404   9.331  0.1019  0.2725 -0.2019
  441loPI   C2A 7048   8.014  12.292   8.839  0.1176  0.0031 -0.0905
  441loPI   C3A 7049   7.986  12.154   8.467 -0.1751  0.2670 -0.4332
  441loPI   C4A 7050   7.871  12.274   8.055  0.1028 -0.2082  0.0663
  441loPI   C5A 7051   7.511  12.163   7.807 -0.0631  0.0537  0.1894
  441loPI   C6A 7052   7.343  12.017   7.450  0.1830 -0.4265 -0.1863
  441loPI   C1B 7053   8.150  12.824   9.091 -0.0504 -0.0530  0.0090
  441loPI   C2B 7054   7.975  12.739   8.684 -0.1052  0.0353  0.1020
  441loPI   C3B 7055   7.848  12.828   8.276 -0.0606  0.1726 -0.1776
  441loPI   C4B 7056   8.079  12.836   7.883  0.4733  0.2516 -0.2812
  442loPI    C1 7057  11.352  15.293   9.904 -0.1709  0.0230 -0.0003
  442loPI    C2 7058  11.671  15.468   9.737 -0.1224  0.0476  0.1175
  442loPI    C3 7059  11.683  15.353  10.120 -0.1851 -0.1333  0.0662
  442loPI   PO4 7060  11.206  15.166   9.690 -0.0187 -0.2367 -0.2993
  442loPI   GL1 7061  11.082  15.307   9.339 -0.0943 -0.1284 -0.0445
  442loPI   GL2 7062  10.772  15.205   9.325 -0.5523 -0.1883 -0.1771
  442loPI   C1A 7063  11.198  15.426   8.917  0.2538  0.1578  0.1243
  442loPI   C2A 7064  11.469  15.805   8.739 -0.1203 -0.0893 -0.1098
  442loPI   C3A 7065  11.573  15.968   8.301 -0.0335  0.0784  0.0637
  442loPI   C4A 7066  11.327  15.877   7.871  0.2344  0.1228 -0.3827
  442loPI   C5A 7067  11.350  16.113   7.570 -0.2060 -0.0905 -0.0111
  442loPI   C6A 7068  11.353  16.461   7.595  0.2798 -0.0089  0.3089
  442loPI   C1B 7069  10.717  15.394   8.993  0.2153 -0.1118 -0.3064
  442loPI   C2B 7070  10.721  15.516   8.548  0.0003  0.0553  0.0208
  442loPI   C3B 7071  10.752  15.707   8.202  0.2217 -0.0675 -0.3078
  442loPI   C4B 7072  10.822  15.881   7.787 -0.1690 -0.1520 -0.2669
  443loPI    C1 7073  16.736  18.152  10.071  0.0435 -0.0933  0.0159
  443loPI    C2 7074  16.799  18.503  10.251  0.1007  0.0333 -0.2464
  443loPI    C3 7075  16.926  18.165  10.423  0.0464  0.1392  0.0069
  443loPI   PO4 7076  16.760  18.319   9.779  0.2082 -0.2585  0.1446
  443loPI   GL1 7077  16.521  18.170   9.441  0.3185  0.0764 -0.0060
  443loPI   GL2 7078  16.442  17.985   9.270 -0.1246  0.0251 -0.0394
  443loPI   C1A 7079  16.821  18.227   9.055  0.1073 -0.0095 -0.0768
  443loPI   C2A 7080  16.932  18.290   8.533  0.3500 -0.0320  0.0033
  443loPI   C3A 7081  16.846  18.253   8.068  0.2245 -0.1991  0.1966
  443loPI   C4A 7082  16.832  18.169   7.711  0.1558  0.1691  0.2719
  443loPI   C5A 7083  16.888  17.783   7.461  0.0150 -0.0436  0.2485
  443loPI   C6A 7084  16.810  17.382   7.295 -0.0792 -0.1621  0.3527
  443loPI   C1B 7085  16.504  17.791   8.935 -0.1295 -0.3223 -0.1450
  443loPI   C2B 7086  16.445  17.960   8.619  0.0752 -0.2217  0.1311
  443loPI   C3B 7087  16.622  17.902   8.251  0.2316  0.1137  0.3326
  443loPI   C4B 7088  16.930  17.738   7.952  0.0730 -0.1337 -0.1113
  444loPI    C1 7089  14.250   6.023  10.187 -0.2269  0.0588 -0.2163
  444loPI    C2 7090  14.044   5.795  10.443 -0.0964  0.2257  0.0424
  444loPI    C3 7091  14.346   5.638  10.234 -0.0481  0.1457  0.1715
  444loPI   PO4 7092  14.045   6.043   9.991  0.0499 -0.1676  0.0743
  444loPI   GL1 7093  13.852   5.866   9.647  0.0120  0.2460  0.1399
  444loPI   GL2 7094  14.056   5.984   9.452 -0.2143 -0.0593  0.3089
  444loPI   C1A 7095  13.734   5.473   9.546 -0.1047  0.1077 -0.2875
  444loPI   C2A 7096  13.326   5.380   9.239 -0.0576  0.2597 -0.0793
  444loPI   C3A 7097  13.395   5.306   8.775  0.5227 -0.1791  0.1107
  444loPI   C4A 7098  13.262   5.388   8.470  0.3280  0.1159  0.2247
  444loPI   C5A 7099  13.189   5.644   8.113 -0.0044  0.2805  0.0040
  444loPI   C6A 7100  13.209   5.955   7.744  0.1819  0.1352  0.1982
  444loPI   C1B 7101  13.755   5.718   9.111  0.1372  0.5401  0.0931
  444loPI   C2B 7102  13.759   5.663   8.679  0.2734  0.0322  0.2211
  444loPI   C3B 7103  13.703   5.795   8.252  0.0774  0.4445  0.0939
  444loPI   C4B 7104  13.700   5.570   7.879 -0.0045 -0.0135 -0.0303
  445loPI    C1 7105   1.250   7.155  10.502  0.1421 -0.2193  0.1068
  445loPI    C2 7106   1.565   7.062  10.730  0.3660 -0.0505 -0.1284
  445loPI    C3 7107   1.491   7.444  10.637  0.0402 -0.0804 -0.0055
  445loPI   PO4 7108   1.273   6.962  10.279 -0.0486  0.3018  0.1056
  445loPI   GL1 7109   1.520   6.781   9.894  0.0433 -0.3571 -0.2904
  445loPI   GL2 7110   1.767   6.850   9.976  0.1651 -0.0651 -0.0595
  445loPI   C1A 7111   1.357   6.952   9.566 -0.0785  0.1227 -0.0924
  445loPI   C2A 7112   1.394   6.704   9.212  0.0349  0.3663  0.0322
  445loPI   C3A 7113   1.389   6.461   8.819 -0.1777  0.1549 -0.4517
  445loPI   C4A 7114   1.441   6.439   8.398  0.2466  0.0073  0.1141
  445loPI   C5A 7115   1.393   6.486   7.990  0.0008 -0.2391 -0.1288
  445loPI   C6A 7116   1.525   6.497   7.549 -0.0048 -0.1930 -0.3862
  445loPI   C1B 7117   1.996   6.802   9.735  0.3053 -0.1550 -0.0990
  445loPI   C2B 7118   2.031   6.707   9.282  0.0119  0.1409 -0.0026
  445loPI   C3B 7119   2.319   6.481   9.001 -0.2146  0.0649 -0.0626
  445loPI   C4B 7120   2.403   6.223   8.664 -0.1005  0.1891  0.1107
  446loPI    C1 7121   3.410  15.563  10.245  0.0910  0.1244  0.1816
  446loPI    C2 7122   3.125  15.768  10.436 -0.1250  0.0257 -0.0291
  446loPI    C3 7123   3.086  15.373  10.385 -0.0482  0.0436 -0.2343
  446loPI   PO4 7124   3.500  15.596  10.091 -0.1736  0.2217  0.3317
  446loPI   GL1 7125   3.483  15.515   9.689 -0.0073  0.4509  0.0472
  446loPI   GL2 7126   3.510  15.134   9.659 -0.4255 -0.0611  0.5072
  446loPI   C1A 7127   3.776  15.528   9.276  0.0316 -0.0070  0.0965
  446loPI   C2A 7128   3.896  15.328   8.866  0.0658  0.2267 -0.1028
  446loPI   C3A 7129   3.982  15.398   8.440 -0.0836 -0.2229  0.2675
  446loPI   C4A 7130   4.366  15.497   8.169  0.2415  0.1547  0.2045
  446loPI   C5A 7131   4.715  15.528   7.875  0.1534  0.0867 -0.2699
  446loPI   C6A 7132   5.181  15.499   7.847 -0.2918 -0.0174  0.1127
  446loPI   C1B 7133   3.536  15.014   9.251  0.0940 -0.0912  0.0612
  446loPI   C2B 7134   3.484  14.948   8.814 -0.2749  0.2815 -0.2953
  446loPI   C3B 7135   3.727  14.993   8.452 -0.1708 -0.0301  0.3964
  446loPI   C4B 7136   3.819  14.847   7.994  0.4418  0.1725 -0.1264
  447loPI    C1 7137  14.629   4.809  10.309 -0.1003 -0.1345 -0.3193
  447loPI    C2 7138  14.741   4.519  10.560 -0.1233  0.1876  0.0723
  447loPI    C3 7139  14.377   4.681  10.592 -0.1878  0.1207 -0.2801
  447loPI   PO4 7140  14.709   4.781  10.141 -0.4683 -0.3765  0.1603
  447loPI   GL1 7141  14.491   4.806   9.776  0.2551  0.0943  0.0247
  447loPI   GL2 7142  14.474   4.597   9.697  0.0006 -0.0008  0.0038
  447loPI   C1A 7143  14.458   5.119   9.428 -0.0169  0.2177  0.1923
  447loPI   C2A 7144  14.180   5.488   9.276  0.0454  0.1730 -0.0950
  447loPI   C3A 7145  14.252   5.924   8.924 -0.3428 -0.1638  0.1831
  447loPI   C4A 7146  14.301   6.009   8.570  0.3190  0.0938  0.0440
  447loPI   C5A 7147  14.155   6.037   8.046 -0.1869 -0.1402  0.0051
  447loPI   C6A 7148  14.271   5.791   7.729  0.1606  0.1609  0.0967
  447loPI   C1B 7149  14.445   4.667   9.272  0.0993  0.0653  0.2564
  447loPI   C2B 7150  14.189   4.702   8.940  0.4254 -0.0241  0.3729
  447loPI   C3B 7151  13.797   4.638   8.651  0.1782  0.1374 -0.2169
  447loPI   C4B 7152  13.742   4.638   8.290 -0.1734 -0.2259  0.1334
  448loPI    C1 7153  15.735  14.740  10.114 -0.4504  0.0526 -0.1042
  448loPI    C2 7154  15.848  14.356  10.108 -0.1314  0.1452 -0.1915
  448loPI    C3 7155  15.959  14.594  10.411 -0.0388  0.2520 -0.3078
  448loPI   PO4 7156  15.728  14.784   9.847 -0.1270 -0.2638 -0.4631
  448loPI   GL1 7157  15.652  14.726   9.454  0.1884  0.1140 -0.2488
  448loPI   GL2 7158  15.957  14.562   9.403 -0.1627 -0.0500  0.1298
  448loPI   C1A 7159  15.754  14.849   9.036  0.1859 -0.3225 -0.3159
  448loPI   C2A 7160  15.888  15.147   8.739 -0.0539 -0.2300 -0.0586
  448loPI   C3A 7161  15.657  15.265   8.337  0.0124  0.1405  0.2005
  448loPI   C4A 7162  15.535  15.247   8.038 -0.0318  0.1523 -0.3005
  448loPI   C5A 7163  15.534  15.169   7.638 -0.2210  0.0283 -0.0203
  448loPI   C6A 7164  15.324  15.192   7.260  0.1140 -0.4390 -0.2429
  448loPI   C1B 7165  16.101  14.559   8.967 -0.0039  0.1135 -0.3503
  448loPI   C2B 7166  16.195  14.761   8.587 -0.2802  0.0166  0.1136
  448loPI   C3B 7167  16.558  14.802   8.366  0.2798  0.0171 -0.0082
  448loPI   C4B 7168  16.587  14.947   8.017 -0.2396  0.1570  0.0620
  449loPI    C1 7169   0.899  11.869  10.130  0.0336 -0.1522  0.2395
  449loPI    C2 7170   0.592  11.706   9.931  0.0704 -0.1080  0.1459
  449loPI    C3 7171   0.546  12.056  10.120  0.1721  0.1008 -0.2068
  449loPI   PO4 7172   1.133  11.607  10.112  0.3115 -0.3331 -0.3782
  449loPI   GL1 7173   1.146  11.660   9.736  0.1327  0.2728 -0.1116
  449loPI   GL2 7174   0.921  11.940   9.619 -0.1362 -0.3036  0.1502
  449loPI   C1A 7175   1.251  11.668   9.327  0.1626  0.1847 -0.0429
  449loPI   C2A 7176   1.302  11.555   8.818  0.4875  0.0192  0.0307
  449loPI   C3A 7177   1.403  11.521   8.374  0.1270 -0.0832  0.2964
  449loPI   C4A 7178   1.475  11.575   7.989  0.2288  0.0525  0.3379
  449loPI   C5A 7179   1.489  11.657   7.597 -0.1402 -0.4471  0.0578
  449loPI   C6A 7180   1.331  11.468   7.170  0.1598 -0.2260 -0.1313
  449loPI   C1B 7181   0.846  11.824   9.191 -0.0252 -0.0055  0.1355
  449loPI   C2B 7182   0.894  11.882   8.787  0.1272  0.0027  0.1980
  449loPI   C3B 7183   0.878  11.670   8.383 -0.0171  0.2449 -0.0909
  449loPI   C4B 7184   0.874  11.678   7.957 -0.2228  0.1541 -0.5111
  450loPI    C1 7185  13.910  16.568   9.688 -0.2028 -0.2188 -0.2386
  450loPI    C2 7186  14.198  16.431   9.930 -0.1341  0.1445 -0.1068
  450loPI    C3 7187  13.817  16.330   9.996 -0.0630 -0.1639 -0.1522
  450loPI   PO4 7188  14.070  16.548   9.356 -0.0037  0.1469  0.3894
  450loPI   GL1 7189  13.829  16.399   8.894 -0.0286 -0.0968 -0.1381
  450loPI   GL2 7190  14.221  16.593   8.836  0.4342  0.0705  0.2432
  450loPI   C1A 7191  13.852  16.547   8.570  0.5486 -0.0795 -0.0636
  450loPI   C2A 7192  13.715  16.901   8.462  0.0517 -0.0790  0.0846
  450loPI   C3A 7193  14.025  17.100   8.286 -0.0892  0.1223  0.2170
  450loPI   C4A 7194  14.249  17.345   7.939 -0.2324  0.0609 -0.1981
  450loPI   C5A 7195  13.958  17.534   7.657 -0.3549 -0.0125 -0.0992
  450loPI   C6A 7196  13.730  17.724   7.366  0.3333 -0.0125 -0.1336
  450loPI   C1B 7197  14.359  16.618   8.479 -0.1059 -0.1402  0.4107
  450loPI   C2B 7198  14.219  16.364   8.178 -0.2165 -0.1280  0.1420
  450loPI   C3B 7199  14.056  16.340   7.749 -0.2199 -0.0130  0.0362
  450loPI   C4B 7200  14.053  16.712   7.393  0.2768 -0.1171 -0.0719
  451loPI    C1 7201   4.169  11.075  10.168  0.1654 -0.0047  0.0125
  451loPI    C2 7202   3.881  10.874  10.359  0.1696 -0.1854 -0.1682
  451loPI    C3 7203   3.897  11.273  10.385  0.3337 -0.2208  0.4306
  451loPI   PO4 7204   4.151  11.022   9.979 -0.0444 -0.1082  0.0523
  451loPI   GL1 7205   4.088  11.174   9.667  0.1878  0.5535  0.1174
  451loPI   GL2 7206   3.953  10.942   9.516  0.2231  0.1650 -0.0285
  451loPI   C1A 7207   4.216  11.420   9.322  0.0452 -0.0886 -0.2659
  451loPI   C2A 7208   4.222  11.582   8.990  0.1667  0.1641  0.1177
  451loPI   C3A 7209   4.348  11.425   8.625  0.0797  0.1884  0.1107
  451loPI   C4A 7210   4.574  11.363   8.269  0.4196  0.2743  0.0574
  451loPI   C5A 7211   4.787  11.251   7.928 -0.0617  0.0375  0.0992
  451loPI   C6A 7212   4.951  11.214   7.622  0.1498 -0.1210 -0.0842
  451loPI   C1B 7213   3.840  11.118   9.089 -0.0990  0.2649  0.0703
  451loPI   C2B 7214   3.639  11.328   8.613  0.0566  0.0891 -0.2425
  451loPI   C3B 7215   3.954  11.526   8.318 -0.1784  0.0406  0.2070
  451loPI   C4B 7216   4.161  11.307   7.935 -0.0425 -0.1263  0.2489
  452loPI    C1 7217  18.099   9.471   9.925  0.2293  0.3276 -0.3451
  452loPI    C2 7218  18.104   9.290   9.569  0.0360 -0.2435 -0.0704
  452loPI    C3 7219  17.755   9.383   9.741  0.1244 -0.1239  0.0457
  452loPI   PO4 7220  18.283   9.585   9.953  0.2714  0.2408  0.0531
  452loPI   GL1 7221  18.552   9.763   9.586  0.0195 -0.0337  0.1122
  452loPI   GL2 7222  18.588  10.098   9.464 -0.1115  0.1001  0.1142
  452loPI   C1A 7223  18.541   9.418   9.291 -0.1017  0.0798 -0.5195
  452loPI   C2A 7224  18.179   9.488   8.976 -0.1197  0.1610  0.0032
  452loPI   C3A 7225  18.090   9.575   8.608  0.3739  0.1251 -0.2181
  452loPI   C4A 7226  18.118   9.839   8.289  0.0135  0.1946 -0.0576
  452loPI   C5A 7227  18.168  10.097   7.836 -0.0252  0.0526 -0.1103
  452loPI   C6A 7228  18.117  10.422   7.579 -0.0114  0.1084 -0.0432
  452loPI   C1B 7229  18.770  10.081   8.961 -0.0212 -0.1388 -0.0620
  452loPI   C2B 7230  19.207  10.157   8.688  0.0169  0.4883  0.2255
  452loPI   C3B 7231  19.458  10.023   8.331  0.3705 -0.2112 -0.1278
  452loPI   C4B 7232  19.791   9.876   8.162 -0.0406 -0.0186  0.0080
  453loPI    C1 7233   5.825   5.876  10.655 -0.0907 -0.3551 -0.0589
  453loPI    C2 7234   5.522   6.133  10.704  0.2588  0.0487  0.0508
  453loPI    C3 7235   5.453   5.768  10.554 -0.2995  0.0751  0.2192
  453loPI   PO4 7236   6.023   6.043  10.628 -0.2050 -0.0758  0.1479
  453loPI   GL1 7237   6.147   6.319  10.285  0.2185  0.3218 -0.2456
  453loPI   GL2 7238   5.899   6.103  10.175  0.2028 -0.2370 -0.1460
  453loPI   C1A 7239   6.349   6.358   9.924 -0.0015 -0.2682  0.1957
  453loPI   C2A 7240   6.638   6.681   9.701 -0.0270  0.0604  0.1066
  453loPI   C3A 7241   6.813   6.607   9.324 -0.1094 -0.3727 -0.1876
  453loPI   C4A 7242   6.656   6.433   8.970 -0.2564  0.1670 -0.0920
  453loPI   C5A 7243   6.308   6.456   8.720  0.0370  0.3504  0.0642
  453loPI   C6A 7244   5.911   6.565   8.719 -0.1779  0.0307 -0.1577
  453loPI   C1B 7245   5.736   5.858   9.837 -0.2466 -0.1040  0.2162
  453loPI   C2B 7246   5.832   5.748   9.410 -0.0090 -0.0753  0.2154
  453loPI   C3B 7247   5.912   5.626   8.900  0.1895  0.2955  0.1429
  453loPI   C4B 7248   6.154   5.574   8.555 -0.0893  0.1539 -0.0547
  454loPI    C1 7249  11.232  12.623  10.017  0.2313 -0.2344 -0.0441
  454loPI    C2 7250  10.865  12.699  10.159  0.2608 -0.0460 -0.0658
  454loPI    C3 7251  11.143  12.540  10.398  0.2657  0.1307  0.0478
  454loPI   PO4 7252  11.297  12.826   9.843  0.0571  0.0531  0.0367
  454loPI   GL1 7253  11.194  13.229   9.509  0.0016 -0.1478 -0.0418
  454loPI   GL2 7254  11.186  13.481   9.225 -0.2995 -0.1359 -0.2067
  454loPI   C1A 7255  10.792  13.113   9.201  0.0022  0.0638 -0.1349
  454loPI   C2A 7256  10.747  12.879   8.715  0.1837  0.0454 -0.0651
  454loPI   C3A 7257  11.009  12.692   8.390  0.0840 -0.3458 -0.1742
  454loPI   C4A 7258  11.270  12.670   7.966  0.0892 -0.1165  0.2433
  454loPI   C5A 7259  11.569  12.881   7.751 -0.2241 -0.0030  0.5942
  454loPI   C6A 7260  11.999  13.164   7.644  0.0659  0.0018 -0.3535
  454loPI   C1B 7261  11.228  13.195   8.916 -0.1011 -0.0556 -0.2428
  454loPI   C2B 7262  11.231  13.220   8.482  0.0107  0.2648 -0.0781
  454loPI   C3B 7263  11.066  13.124   7.985  0.1022  0.0164  0.1016
  454loPI   C4B 7264  11.115  12.976   7.558 -0.0315 -0.0578  0.3638
  455loPI    C1 7265  17.477   8.850  10.118  0.1143  0.2597 -0.1483
  455loPI    C2 7266  17.166   8.802   9.871  0.0386 -0.1223  0.0131
  455loPI    C3 7267  17.104   8.850  10.263  0.1803 -0.0800  0.0312
  455loPI   PO4 7268  17.698   8.951   9.916 -0.1611  0.1898 -0.1722
  455loPI   GL1 7269  17.973   8.723   9.609  0.0476 -0.3109  0.0890
  455loPI   GL2 7270  17.660   8.525   9.535  0.1996 -0.0287 -0.1680
  455loPI   C1A 7271  17.911   9.036   9.253 -0.0812 -0.0613  0.5459
  455loPI   C2A 7272  18.048   8.989   8.850 -0.2193 -0.2608  0.2296
  455loPI   C3A 7273  18.035   9.111   8.433  0.0260  0.3061  0.0797
  455loPI   C4A 7274  18.198   9.420   8.105 -0.2515  0.0604  0.2342
  455loPI   C5A 7275  18.441   9.518   7.773 -0.5404 -0.0341  0.0810
  455loPI   C6A 7276  18.696   9.806   7.637  0.4538  0.2916 -0.0265
  455loPI   C1B 7277  17.679   8.544   9.090 -0.0344 -0.1408 -0.1069
  455loPI   C2B 7278  17.634   8.739   8.637 -0.2238  0.0367  0.0811
  455loPI   C3B 7279  17.580   8.996   8.263  0.0332  0.0858  0.0780
  455loPI   C4B 7280  17.524   9.016   7.816  0.4106  0.2922 -0.1972
  456loPI    C1 7281  12.000   7.114  10.573 -0.1046  0.0366  0.0351
  456loPI    C2 7282  11.876   6.879  10.873  0.2452 -0.2517 -0.0400
  456loPI    C3 7283  12.007   7.249  10.950  0.0211 -0.2038  0.1209
  456loPI   PO4 7284  11.966   6.877  10.374  0.2617  0.0333  0.0502
  456loPI   GL1 7285  11.868   6.757   9.960  0.5455 -0.0589  0.2465
  456loPI   GL2 7286  11.883   6.414   9.810 -0.1334  0.0191 -0.1127
  456loPI   C1A 7287  11.798   6.948   9.600  0.0835 -0.2839  0.2173
  456loPI   C2A 7288  11.841   6.959   9.086  0.1237  0.0639 -0.0301
  456loPI   C3A 7289  11.837   7.003   8.629  0.0268 -0.3472 -0.3592
  456loPI   C4A 7290  11.827   6.951   8.213 -0.0200  0.0474  0.1574
  456loPI   C5A 7291  11.697   7.007   7.840 -0.0890  0.0093 -0.0845
  456loPI   C6A 7292  11.325   7.027   7.785 -0.1041  0.4094  0.2102
  456loPI   C1B 7293  11.844   6.492   9.438  0.0856  0.0107 -0.1202
  456loPI   C2B 7294  11.857   6.484   8.927 -0.2780  0.1591 -0.2122
  456loPI   C3B 7295  11.845   6.477   8.446 -0.1692  0.1272 -0.1019
  456loPI   C4B 7296  11.594   6.382   7.991 -0.0324 -0.2635  0.0829
  457loPI    C1 7297   7.145   9.019  10.715 -0.0226  0.0140 -0.0398
  457loPI    C2 7298   6.756   9.007  10.622 -0.0057 -0.0041 -0.1089
  457loPI    C3 7299   6.870   9.069  11.001 -0.0759 -0.0115 -0.0866
  457loPI   PO4 7300   7.231   9.178  10.495 -0.0518  0.3114  0.2691
  457loPI   GL1 7301   7.096   9.285  10.111  0.0829 -0.0571 -0.1634
  457loPI   GL2 7302   7.402   9.208  10.049  0.1196  0.2743  0.1129
  457loPI   C1A 7303   7.161   9.469   9.727 -0.0897 -0.0765  0.1201
  457loPI   C2A 7304   7.403   9.456   9.294 -0.0710 -0.1229  0.1901
  457loPI   C3A 7305   7.451   9.367   8.913  0.1840  0.0933 -0.1006
  457loPI   C4A 7306   7.561   9.225   8.497 -0.0768 -0.1120 -0.0477
  457loPI   C5A 7307   7.887   9.056   8.209  0.0176 -0.0720  0.1409
  457loPI   C6A 7308   8.276   8.922   7.948  0.1183 -0.2263 -0.1360
  457loPI   C1B 7309   7.753   9.257   9.661  0.0378  0.0917 -0.0593
  457loPI   C2B 7310   7.810   9.034   9.304 -0.0095 -0.1716  0.2058
  457loPI   C3B 7311   7.757   8.910   8.879 -0.0033 -0.2063  0.1417
  457loPI   C4B 7312   7.690   8.701   8.544 -0.1119  0.1151 -0.2279
  458loPI    C1 7313   8.979  14.051   9.738  0.3620  0.0055 -0.2278
  458loPI    C2 7314   9.229  13.928  10.026  0.0513 -0.0810  0.0111
  458loPI    C3 7315   8.904  13.713   9.937 -0.0776  0.1612 -0.1172
  458loPI   PO4 7316   8.736  14.204   9.847 -0.0452 -0.0233  0.2545
  458loPI   GL1 7317   8.537  14.367   9.525  0.1417  0.1395  0.0945
  458loPI   GL2 7318   8.718  14.675   9.446  0.1368  0.1777 -0.2345
  458loPI   C1A 7319   8.415  14.095   9.080 -0.0138 -0.3047  0.2352
  458loPI   C2A 7320   8.285  14.166   8.696 -0.1815 -0.1586  0.3066
  458loPI   C3A 7321   8.243  14.116   8.238 -0.4489 -0.2354 -0.2947
  458loPI   C4A 7322   8.113  14.261   7.892  0.0605  0.4019  0.2148
  458loPI   C5A 7323   8.045  14.540   7.471 -0.4469 -0.0832 -0.2090
  458loPI   C6A 7324   8.170  14.588   7.132  0.2112  0.0489 -0.2076
  458loPI   C1B 7325   8.424  14.637   9.057 -0.3052 -0.1263  0.0702
  458loPI   C2B 7326   8.433  14.658   8.695 -0.1704 -0.0096  0.0014
  458loPI   C3B 7327   8.487  14.548   8.281  0.0255  0.0690  0.3500
  458loPI   C4B 7328   8.372  14.716   7.846 -0.3047 -0.1224  0.1260
  459loPI    C1 7329  17.069  12.349   9.995  0.1826  0.1990 -0.1668
  459loPI    C2 7330  17.066  12.410  10.391  0.0517  0.0131 -0.1378
  459loPI    C3 7331  16.980  12.710  10.141 -0.1149  0.0684 -0.0157
  459loPI   PO4 7332  17.369  12.182   9.988 -0.1709 -0.0563  0.1069
  459loPI   GL1 7333  17.690  12.170   9.595  0.0449  0.0702 -0.2368
  459loPI   GL2 7334  17.714  11.917   9.345  0.0737 -0.1201  0.1452
  459loPI   C1A 7335  17.512  12.334   9.206 -0.0381  0.1069 -0.2755
  459loPI   C2A 7336  17.442  12.432   8.717 -0.0337  0.1528 -0.0084
  459loPI   C3A 7337  17.340  12.503   8.251  0.0816 -0.2523 -0.0211
  459loPI   C4A 7338  17.217  12.753   7.876  0.2520  0.2203  0.0429
  459loPI   C5A 7339  17.256  13.225   7.775 -0.1073 -0.4826 -0.3190
  459loPI   C6A 7340  17.338  13.370   7.440  0.1048  0.1273  0.1508
  459loPI   C1B 7341  17.835  12.113   8.858 -0.0496 -0.1528 -0.2476
  459loPI   C2B 7342  17.681  12.114   8.403  0.0606 -0.1218  0.0766
  459loPI   C3B 7343  17.438  12.003   8.000  0.2894  0.4082 -0.1864
  459loPI   C4B 7344  17.086  12.124   7.794  0.0811 -0.1582 -0.0187
  460loPI    C1 7345  11.257  16.784  10.324 -0.1258  0.1653  0.1961
  460loPI    C2 7346  11.333  16.469  10.557 -0.1319 -0.0658 -0.1088
  460loPI    C3 7347  11.439  16.835  10.676  0.2641 -0.2295  0.0608
  460loPI   PO4 7348  11.402  16.812  10.095 -0.0589 -0.0312 -0.1327
  460loPI   GL1 7349  11.347  16.818   9.657  0.1924 -0.0274  0.2073
  460loPI   GL2 7350  11.389  16.508   9.558  0.1067  0.2325 -0.1638
  460loPI   C1A 7351  11.409  17.003   9.197  0.2319  0.1131 -0.2752
  460loPI   C2A 7352  11.209  17.182   8.896  0.2805  0.2533  0.1635
  460loPI   C3A 7353  11.093  17.055   8.425  0.1080 -0.3916 -0.0604
  460loPI   C4A 7354  11.132  16.690   8.310  0.1166 -0.0525  0.1250
  460loPI   C5A 7355  11.469  16.512   8.189  0.1070  0.2534  0.1796
  460loPI   C6A 7356  11.914  16.530   8.204 -0.0376  0.2602  0.0508
  460loPI   C1B 7357  11.065  16.381   9.369 -0.3331 -0.1873 -0.0470
  460loPI   C2B 7358  10.764  16.372   9.060  0.3040 -0.1011  0.0275
  460loPI   C3B 7359  10.668  16.315   8.732  0.0253 -0.0181 -0.1539
  460loPI   C4B 7360  10.809  16.339   8.417 -0.0428  0.0004 -0.1201
  461loPI    C1 7361  17.331  11.302  10.195 -0.0757  0.3087  0.1436
  461loPI    C2 7362  17.475  10.973  10.370 -0.3347  0.1194  0.0069
  461loPI    C3 7363  17.101  11.093  10.447 -0.2650  0.3439  0.0021
  461loPI   PO4 7364  17.365  11.304   9.964  0.4081  0.1316  0.2805
  461loPI   GL1 7365  17.458  11.210   9.622 -0.2040 -0.0226  0.2592
  461loPI   GL2 7366  17.737  11.294   9.520  0.1210  0.0658 -0.1593
  461loPI   C1A 7367  17.253  11.151   9.265  0.3456  0.0620  0.2252
  461loPI   C2A 7368  17.058  11.221   8.904 -0.1060 -0.0871 -0.0757
  461loPI   C3A 7369  17.040  11.234   8.449  0.1766  0.2038  0.1762
  461loPI   C4A 7370  17.121  11.246   7.990 -0.1476  0.0664 -0.0023
  461loPI   C5A 7371  17.036  11.561   7.732  0.2279 -0.0185  0.0925
  461loPI   C6A 7372  16.637  11.809   7.756 -0.0299  0.0136  0.0993
  461loPI   C1B 7373  17.706  11.464   9.050  0.1075  0.2207  0.0968
  461loPI   C2B 7374  17.841  11.599   8.714 -0.1618  0.1600 -0.2651
  461loPI   C3B 7375  18.050  11.692   8.322 -0.1873 -0.1850 -0.3340
  461loPI   C4B 7376  17.915  11.772   7.923  0.2642  0.1020  0.3272
  462loPI    C1 7377   4.828   0.487  10.599 -0.1447 -0.1489 -0.1144
  462loPI    C2 7378   5.101   0.745  10.734 -0.0095 -0.2893 -0.1165
  462loPI    C3 7379   5.094   0.371  10.874 -0.3933 -0.2029  0.1073
  462loPI   PO4 7380   4.821   0.418  10.343  0.0703  0.0827  0.1897
  462loPI   GL1 7381   4.835   0.569   9.893  0.4442  0.4133  0.0272
  462loPI   GL2 7382   4.588   0.896   9.855  0.2003 -0.0840  0.0809
  462loPI   C1A 7383   4.934   0.650   9.519  0.1126  0.1269  0.5284
  462loPI   C2A 7384   4.899   0.581   9.107 -0.0946  0.0299 -0.0232
  462loPI   C3A 7385   4.983   0.519   8.710 -0.2497 -0.0406 -0.0382
  462loPI   C4A 7386   4.930   0.551   8.301  0.2537  0.2428 -0.0062
  462loPI   C5A 7387   4.932   0.375   7.936 -0.0575  0.2214 -0.0556
  462loPI   C6A 7388   4.905   0.070   7.853 -0.2334  0.2235  0.1972
  462loPI   C1B 7389   4.530   0.902   9.429 -0.0079 -0.0931 -0.2568
  462loPI   C2B 7390   4.403   0.794   8.992  0.1847  0.2471  0.0432
  462loPI   C3B 7391   4.459   0.767   8.549 -0.1021  0.1502 -0.0967
  462loPI   C4B 7392   4.463   0.940   8.172 -0.1102  0.1388  0.2667
  463loPI    C1 7393   2.209   1.190  10.443 -0.1250  0.1900 -0.0300
  463loPI    C2 7394   2.480   1.359  10.684  0.0306  0.0782 -0.1249
  463loPI    C3 7395   2.229   1.082  10.827 -0.0136  0.1596 -0.0441
  463loPI   PO4 7396   2.352   1.130  10.234 -0.0397 -0.0190 -0.1248
  463loPI   GL1 7397   2.431   1.218   9.755 -0.0689 -0.0325  0.0793
  463loPI   GL2 7398   2.737   1.234   9.895 -0.1087  0.1515 -0.2581
  463loPI   C1A 7399   2.293   1.522   9.346 -0.3483  0.0277 -0.2305
  463loPI   C2A 7400   2.278   1.726   8.867  0.1018  0.0956  0.1534
  463loPI   C3A 7401   2.281   1.688   8.348  0.0578  0.1917 -0.1331
  463loPI   C4A 7402   2.174   1.613   7.982  0.0186  0.2535  0.0773
  463loPI   C5A 7403   2.371   1.583   7.575  0.2084 -0.0663 -0.2391
  463loPI   C6A 7404   2.599   1.672   7.261 -0.3249 -0.0409  0.3293
  463loPI   C1B 7405   2.771   1.484   9.479  0.0256  0.1223 -0.2532
  463loPI   C2B 7406   2.724   1.423   8.978  0.0149 -0.2768 -0.0138
  463loPI   C3B 7407   2.718   1.470   8.582 -0.0833  0.1536 -0.0487
  463loPI   C4B 7408   2.611   1.410   8.137  0.1677  0.1748  0.0507
  464loPI    C1 7409   7.643   1.340  10.717  0.0595 -0.0341 -0.0091
  464loPI    C2 7410   7.902   1.242  11.006  0.0031 -0.0042  0.0521
  464loPI    C3 7411   7.584   1.469  11.091 -0.1486 -0.2008  0.0176
  464loPI   PO4 7412   7.603   1.121  10.575  0.0477  0.2286 -0.0452
  464loPI   GL1 7413   7.420   1.079  10.135 -0.4783 -0.0374  0.0720
  464loPI   GL2 7414   7.047   0.992  10.020 -0.0411  0.2013  0.2464
  464loPI   C1A 7415   7.674   0.946   9.765  0.3355 -0.2573 -0.1611
  464loPI   C2A 7416   7.628   0.901   9.314  0.1157  0.1106 -0.2328
  464loPI   C3A 7417   7.564   0.961   8.887 -0.0403  0.0314 -0.1282
  464loPI   C4A 7418   7.632   0.905   8.438  0.1050 -0.1988  0.1359
  464loPI   C5A 7419   7.662   0.876   8.002 -0.1709 -0.0883  0.1471
  464loPI   C6A 7420   7.416   0.659   7.797 -0.2130  0.1768  0.1077
  464loPI   C1B 7421   7.094   1.096   9.588  0.0581 -0.1073  0.3176
  464loPI   C2B 7422   7.181   1.185   9.253 -0.2396 -0.2526 -0.1149
  464loPI   C3B 7423   7.096   1.198   8.850 -0.1354 -0.2791  0.2422
  464loPI   C4B 7424   7.175   1.124   8.413  0.3100 -0.1284  0.3333
  465loPI    C1 7425   3.494   4.422  10.813 -0.3385  0.1699 -0.2173
  465loPI    C2 7426   3.653   4.238  11.131 -0.0719  0.0077 -0.4397
  465loPI    C3 7427   3.259   4.305  11.115 -0.0588  0.2347  0.0306
  465loPI   PO4 7428   3.605   4.280  10.603  0.0488  0.2306 -0.0105
  465loPI   GL1 7429   3.694   4.361  10.171 -0.0183  0.0506  0.1297
  465loPI   GL2 7430   3.898   4.238  10.052  0.2110 -0.0123 -0.0214
  465loPI   C1A 7431   3.488   4.168   9.753 -0.1721  0.1291 -0.4219
  465loPI   C2A 7432   3.524   4.108   9.246 -0.1282 -0.0073  0.2025
  465loPI   C3A 7433   3.581   4.118   8.780  0.0408  0.2169 -0.2653
  465loPI   C4A 7434   3.673   3.914   8.465  0.1890  0.1983 -0.1552
  465loPI   C5A 7435   3.666   3.798   8.042 -0.0343 -0.1097  0.0707
  465loPI   C6A 7436   3.884   3.570   7.809 -0.2100 -0.1866 -0.0783
  465loPI   C1B 7437   3.958   4.342   9.709  0.0836 -0.0176  0.2380
  465loPI   C2B 7438   4.035   4.326   9.328  0.0723 -0.1836 -0.0033
  465loPI   C3B 7439   4.120   4.303   8.931  0.1459  0.4695 -0.2003
  465loPI   C4B 7440   4.114   4.221   8.512 -0.0487 -0.3132 -0.0773
  466loPI    C1 7441  11.882  12.971  10.418  0.0230 -0.0146 -0.1229
  466loPI    C2 7442  12.154  12.730  10.252  0.3246  0.2236  0.0155
  466loPI    C3 7443  12.049  12.680  10.635  0.1243  0.0937 -0.0546
  466loPI   PO4 7444  11.766  13.006  10.080 -0.0949  0.2078 -0.1923
  466loPI   GL1 7445  11.673  13.079   9.631 -0.0207  0.0468  0.0794
  466loPI   GL2 7446  12.004  12.944   9.549  0.0503  0.0470  0.2131
  466loPI   C1A 7447  11.622  13.200   9.163  0.0148 -0.0317 -0.2113
  466loPI   C2A 7448  11.688  13.082   8.710 -0.3238 -0.0060  0.0622
  466loPI   C3A 7449  12.030  13.120   8.493  0.0599  0.3691  0.0032
  466loPI   C4A 7450  12.272  12.895   8.199  0.1081 -0.1501 -0.1881
  466loPI   C5A 7451  12.366  12.751   7.847 -0.1543 -0.1222  0.0832
  466loPI   C6A 7452  12.532  12.536   7.490 -0.1356  0.0679  0.2220
  466loPI   C1B 7453  12.119  12.873   9.068  0.1752  0.2588  0.1196
  466loPI   C2B 7454  12.297  12.689   8.646 -0.0776 -0.2542 -0.3423
  466loPI   C3B 7455  12.510  12.410   8.369 -0.1928  0.1358  0.0836
  466loPI   C4B 7456  12.574  12.315   7.924 -0.3871  0.0879  0.3492
  467loPI    C1 7457   5.080  14.428  10.439 -0.1981  0.3554 -0.0317
  467loPI    C2 7458   5.124  14.254  10.796 -0.0687 -0.0651 -0.2461
  467loPI    C3 7459   4.761  14.369  10.673 -0.0988  0.1829  0.0619
  467loPI   PO4 7460   5.274  14.195  10.225  0.2199  0.3409 -0.0314
  467loPI   GL1 7461   5.376  14.248   9.874 -0.1958 -0.0060 -0.0325
  467loPI   GL2 7462   5.024  14.246   9.732  0.0032 -0.5699 -0.2410
  467loPI   C1A 7463   5.428  14.069   9.491 -0.2865  0.0389 -0.1703
  467loPI   C2A 7464   5.506  14.076   9.077 -0.2861  0.0553 -0.1361
  467loPI   C3A 7465   5.560  14.110   8.612  0.2125  0.1476  0.1821
  467loPI   C4A 7466   5.577  14.149   8.150  0.0396 -0.1587  0.0368
  467loPI   C5A 7467   5.553  14.194   7.736 -0.0161 -0.0592 -0.1266
  467loPI   C6A 7468   5.353  14.071   7.395  0.1997  0.2761  0.0710
  467loPI   C1B 7469   5.111  14.357   9.302 -0.0921  0.0832  0.2106
  467loPI   C2B 7470   5.065  14.353   8.857 -0.0311 -0.2969 -0.1127
  467loPI   C3B 7471   5.161  14.466   8.412  0.2303 -0.0256 -0.1750
  467loPI   C4B 7472   5.238  14.496   7.969 -0.0568 -0.0347 -0.0574
  468loPI    C1 7473   9.071   3.780  10.963 -0.1358  0.0245 -0.0727
  468loPI    C2 7474   8.797   3.680  11.237  0.1335 -0.0738  0.1657
  468loPI    C3 7475   8.982   4.034  11.258  0.0175 -0.0017 -0.0030
  468loPI   PO4 7476   8.860   3.585  10.736 -0.0100 -0.2664 -0.0855
  468loPI   GL1 7477   8.568   3.658  10.382 -0.1371 -0.0186  0.2021
  468loPI   GL2 7478   8.327   3.643  10.355  0.0207 -0.0845  0.0440
  468loPI   C1A 7479   8.732   3.476  10.015 -0.1113 -0.0240  0.3194
  468loPI   C2A 7480   8.699   3.416   9.485  0.2374  0.1739 -0.5183
  468loPI   C3A 7481   8.594   3.462   9.119  0.2030 -0.1668 -0.2719
  468loPI   C4A 7482   8.513   3.556   8.659  0.4088  0.2524 -0.2073
  468loPI   C5A 7483   8.478   3.945   8.499 -0.0851 -0.1705  0.0293
  468loPI   C6A 7484   8.574   4.378   8.345  0.0438  0.3385  0.0922
  468loPI   C1B 7485   8.291   3.627   9.982  0.4059 -0.1726  0.0666
  468loPI   C2B 7486   8.267   3.642   9.577 -0.2980 -0.3224  0.1012
  468loPI   C3B 7487   8.078   3.672   9.140 -0.0478  0.0699  0.0433
  468loPI   C4B 7488   7.699   3.798   8.982  0.3585  0.1393 -0.0301
  469loPI    C1 7489   8.514  13.762  10.320  0.0084 -0.1433  0.0675
  469loPI    C2 7490   8.168  13.566  10.272 -0.1926  0.2085  0.0378
  469loPI    C3 7491   8.275  13.698  10.634 -0.1081  0.1367  0.0394
  469loPI   PO4 7492   8.398  13.863   9.979 -0.3515 -0.2203 -0.3587
  469loPI   GL1 7493   8.115  13.772   9.639  0.0132  0.1400 -0.2201
  469loPI   GL2 7494   8.218  13.420   9.715  0.1476 -0.2740 -0.3950
  469loPI   C1A 7495   8.208  13.645   9.232  0.5585 -0.2010 -0.4923
  469loPI   C2A 7496   8.327  13.689   8.876 -0.1866 -0.0118 -0.5101
  469loPI   C3A 7497   8.262  13.601   8.419  0.2142  0.0637  0.0641
  469loPI   C4A 7498   8.311  13.713   8.015 -0.0890 -0.3228  0.1898
  469loPI   C5A 7499   8.428  13.910   7.641 -0.0430 -0.0971 -0.2223
  469loPI   C6A 7500   8.584  14.288   7.550  0.2593 -0.2984  0.0879
  469loPI   C1B 7501   7.936  13.245   9.363 -0.1184 -0.1808 -0.1052
  469loPI   C2B 7502   7.791  13.251   8.957 -0.1265  0.1028 -0.1248
  469loPI   C3B 7503   7.804  13.330   8.523  0.1890 -0.0286  0.0731
  469loPI   C4B 7504   7.998  13.343   8.048  0.1392 -0.1980 -0.1982
  470loPI    C1 7505   2.871  13.361  10.446  0.2005  0.1141  0.1861
  470loPI    C2 7506   3.065  13.019  10.521  0.0718  0.0287  0.1341
  470loPI    C3 7507   3.232  13.370  10.617  0.2203 -0.0469  0.1545
  470loPI   PO4 7508   2.755  13.378  10.099 -0.3276  0.0963 -0.0124
  470loPI   GL1 7509   2.874  13.244   9.724  0.1043  0.0736  0.0147
  470loPI   GL2 7510   2.728  13.526   9.540 -0.3995  0.4572  0.0538
  470loPI   C1A 7511   2.914  13.084   9.302  0.3251 -0.2077 -0.2112
  470loPI   C2A 7512   3.021  13.186   8.980  0.2414 -0.1854 -0.0177
  470loPI   C3A 7513   3.032  13.120   8.552  0.0758  0.2965  0.0102
  470loPI   C4A 7514   3.223  13.123   8.149  0.3636 -0.1581  0.1766
  470loPI   C5A 7515   3.648  13.109   7.943  0.1382 -0.1000  0.0771
  470loPI   C6A 7516   3.706  12.881   7.648  0.2824  0.1631  0.0493
  470loPI   C1B 7517   2.693  13.541   9.138  0.0419  0.0536  0.2172
  470loPI   C2B 7518   2.633  13.407   8.661 -0.0648 -0.1156  0.2115
  470loPI   C3B 7519   2.677  13.219   8.157 -0.0993  0.1583  0.4259
  470loPI   C4B 7520   2.702  13.007   7.781  0.0300  0.1281  0.0326
  471loPI    C1 7521  18.380   7.166  10.388 -0.0643 -0.2365 -0.1389
  471loPI    C2 7522  18.204   6.932  10.660  0.0174 -0.0726  0.0574
  471loPI    C3 7523  18.476   7.202  10.775  0.0406  0.0095 -0.1858
  471loPI   PO4 7524  18.335   7.001  10.217 -0.2158  0.0303 -0.1084
  471loPI   GL1 7525  18.336   6.992   9.801  0.1422 -0.1167 -0.2521
  471loPI   GL2 7526  17.966   6.996   9.669 -0.0486 -0.0361  0.0180
  471loPI   C1A 7527  18.581   7.020   9.506  0.1381 -0.0623 -0.1388
  471loPI   C2A 7528  18.728   6.907   9.154 -0.0428  0.0048 -0.0773
  471loPI   C3A 7529  18.853   6.837   8.850  0.1180 -0.0645  0.1284
  471loPI   C4A 7530  18.987   6.733   8.488  0.2576 -0.2777 -0.0370
  471loPI   C5A 7531  19.057   6.863   8.087  0.2159 -0.0598 -0.1437
  471loPI   C6A 7532  18.882   6.689   7.711 -0.2125  0.2047  0.0445
  471loPI   C1B 7533  17.929   6.964   9.227  0.0842  0.1554  0.0918
  471loPI   C2B 7534  18.014   6.905   8.761  0.1514 -0.0350  0.0062
  471loPI   C3B 7535  18.062   6.914   8.333 -0.1924  0.0096  0.0414
  471loPI   C4B 7536  18.159   7.037   7.913 -0.0990 -0.1515 -0.0736
  472loPI    C1 7537  16.508  17.149  10.039  0.2117  0.0255 -0.1011
  472loPI    C2 7538  16.680  17.502  10.114  0.2835 -0.0245 -0.0294
  472loPI    C3 7539  16.366  17.382  10.331  0.1745  0.0550 -0.1427
  472loPI   PO4 7540  16.531  17.119   9.770  0.2084 -0.1919 -0.5484
  472loPI   GL1 7541  16.521  16.990   9.396  0.2173 -0.1972 -0.1085
  472loPI   GL2 7542  16.705  17.307   9.262  0.1268 -0.0097 -0.4185
  472loPI   C1A 7543  16.703  16.791   9.110 -0.1030  0.2429 -0.0419
  472loPI   C2A 7544  16.777  16.873   8.606 -0.2849  0.1817  0.2648
  472loPI   C3A 7545  16.725  16.717   8.219 -0.1672  0.1167 -0.1266
  472loPI   C4A 7546  16.842  16.465   7.863 -0.2633 -0.0644  0.0096
  472loPI   C5A 7547  17.090  16.600   7.620  0.1201 -0.0330  0.3533
  472loPI   C6A 7548  17.249  16.691   7.171 -0.0901 -0.1839  0.0298
  472loPI   C1B 7549  16.945  17.362   8.988  0.0811 -0.0493  0.1103
  472loPI   C2B 7550  17.227  17.427   8.634  0.1176 -0.0546 -0.1130
  472loPI   C3B 7551  17.266  17.453   8.164  0.1235 -0.0384 -0.5198
  472loPI   C4B 7552  17.262  17.488   7.687 -0.1370 -0.0405 -0.2416
  473loPI    C1 7553   0.599   7.726  10.340  0.2442  0.6565 -0.0990
  473loPI    C2 7554   0.242   7.804  10.503  0.2549  0.1789  0.1688
  473loPI    C3 7555   0.555   7.718  10.738  0.4270  0.1097 -0.0817
  473loPI   PO4 7556   0.567   7.619  10.141  0.1648 -0.0262 -0.1001
  473loPI   GL1 7557   0.550   7.457   9.782  0.1154  0.2441  0.0413
  473loPI   GL2 7558   0.403   7.183   9.784 -0.1744 -0.1396 -0.0185
  473loPI   C1A 7559   0.766   7.532   9.402  0.4887 -0.0241 -0.3571
  473loPI   C2A 7560   0.942   7.738   9.249  0.0747  0.1947 -0.4097
  473loPI   C3A 7561   0.864   7.914   8.916  0.0369  0.0718 -0.1650
  473loPI   C4A 7562   0.656   8.045   8.583 -0.0520 -0.0161  0.1408
  473loPI   C5A 7563   0.629   8.370   8.261  0.5029  0.1940 -0.1669
  473loPI   C6A 7564   0.314   8.593   7.833  0.0972 -0.0556  0.3512
  473loPI   C1B 7565   0.392   7.234   9.302 -0.0440 -0.0274  0.0661
  473loPI   C2B 7566   0.551   7.464   8.946 -0.0953  0.1212  0.1488
  473loPI   C3B 7567   0.636   7.560   8.512  0.3027 -0.1701 -0.1199
  473loPI   C4B 7568   0.633   7.731   8.156 -0.4616 -0.2085 -0.0117
  474loPI    C1 7569  14.040  15.592   9.798 -0.0088  0.2190 -0.0470
  474loPI    C2 7570  13.738  15.802   9.955 -0.0186 -0.0497  0.3075
  474loPI    C3 7571  14.115  15.893  10.051 -0.0001  0.0789  0.1190
  474loPI   PO4 7572  13.975  15.578   9.549  0.1140 -0.2475  0.2289
  474loPI   GL1 7573  13.971  15.869   9.141  0.1972 -0.2086 -0.1702
  474loPI   GL2 7574  13.665  15.815   8.880 -0.1774  0.0571  0.1142
  474loPI   C1A 7575  14.323  16.114   8.937  0.0770 -0.1048  0.2698
  474loPI   C2A 7576  14.456  16.088   8.493 -0.0041  0.1533 -0.0818
  474loPI   C3A 7577  14.608  16.097   8.044  0.0854  0.1124  0.3772
  474loPI   C4A 7578  14.593  16.196   7.566  0.2888  0.1187 -0.1405
  474loPI   C5A 7579  14.615  16.121   7.137  0.1195 -0.0680  0.0448
  474loPI   C6A 7580  14.774  15.903   6.815  0.2576 -0.1832  0.2214
  474loPI   C1B 7581  13.950  15.997   8.592 -0.2434 -0.2850 -0.1738
  474loPI   C2B 7582  14.021  15.873   8.280 -0.4315  0.0784 -0.2154
  474loPI   C3B 7583  14.134  15.851   7.969 -0.0179 -0.0587  0.0801
  474loPI   C4B 7584  14.176  15.674   7.540  0.1002  0.1076 -0.1071
  475loPI    C1 7585   0.810   1.896   9.719 -0.0274 -0.1690  0.0224
  475loPI    C2 7586   0.787   1.867  10.117  0.0707  0.2667  0.0642
  475loPI    C3 7587   1.062   1.657   9.917  0.0725  0.1056  0.2327
  475loPI   PO4 7588   0.809   2.117   9.626  0.0317  0.0704 -0.0533
  475loPI   GL1 7589   0.994   2.398   9.387 -0.1619  0.2273  0.2043
  475loPI   GL2 7590   1.335   2.294   9.248  0.3227  0.1793 -0.2362
  475loPI   C1A 7591   0.829   2.581   9.081 -0.1306 -0.0848  0.0382
  475loPI   C2A 7592   0.946   2.581   8.707  0.2971  0.2522  0.1485
  475loPI   C3A 7593   1.020   2.523   8.282  0.1634  0.3318 -0.0501
  475loPI   C4A 7594   1.094   2.472   7.745  0.2169  0.0405 -0.0811
  475loPI   C5A 7595   1.016   2.319   7.243  0.0813 -0.3466  0.2204
  475loPI   C6A 7596   1.194   2.048   6.968 -0.0037  0.0736  0.0013
  475loPI   C1B 7597   1.272   2.264   8.944 -0.0278 -0.1625  0.4266
  475loPI   C2B 7598   1.382   2.284   8.524  0.2810  0.2507  0.1009
  475loPI   C3B 7599   1.417   2.230   8.029 -0.2341 -0.2210  0.1623
  475loPI   C4B 7600   1.464   2.191   7.499 -0.1726 -0.0304  0.1839
  476loPI    C1 7601  18.714  15.264  10.162 -0.0674 -0.1063 -0.1308
  476loPI    C2 7602  18.649  15.602  10.367  0.4964 -0.0098 -0.0938
  476loPI    C3 7603  18.617  15.248  10.550 -0.3048 -0.0026 -0.1841
  476loPI   PO4 7604  18.538  15.323   9.927  0.0588 -0.3715  0.0300
  476loPI   GL1 7605  18.559  15.436   9.512 -0.3193  0.0511  0.2011
  476loPI   GL2 7606  18.805  15.235   9.323 -0.0814 -0.1220 -0.0720
  476loPI   C1A 7607  18.412  15.329   9.085  0.0459  0.1702 -0.2417
  476loPI   C2A 7608  18.523  15.270   8.631 -0.3520  0.1931  0.2568
  476loPI   C3A 7609  18.620  15.224   8.229 -0.1462  0.2998  0.2452
  476loPI   C4A 7610  18.669  15.449   7.814 -0.0358 -0.2216  0.0253
  476loPI   C5A 7611  18.769  15.783   7.564  0.0650 -0.0536 -0.0108
  476loPI   C6A 7612  18.872  16.057   7.223 -0.1191 -0.2372  0.0904
  476loPI   C1B 7613  18.911  15.170   8.993  0.4464 -0.1662 -0.0887
  476loPI   C2B 7614  19.064  15.277   8.640  0.0113  0.1257 -0.0517
  476loPI   C3B 7615  19.153  15.280   8.193 -0.1559  0.3305  0.2205
  476loPI   C4B 7616  19.149  15.271   7.796 -0.3139  0.1143  0.0239
  477loPI    C1 7617   2.423  18.227   9.897 -0.2949 -0.0493 -0.1277
  477loPI    C2 7618   2.348  18.163  10.285  0.0414  0.0924 -0.0362
  477loPI    C3 7619   2.421  17.854  10.042  0.0349  0.0168  0.0573
  477loPI   PO4 7620   2.285  18.412   9.734  0.2492 -0.0616  0.1568
  477loPI   GL1 7621   2.157  18.507   9.321 -0.2420 -0.0721 -0.0134
  477loPI   GL2 7622   2.116  18.788   9.407  0.1944 -0.1033 -0.2919
  477loPI   C1A 7623   2.081  18.482   8.842  0.1434 -0.1808 -0.1901
  477loPI   C2A 7624   2.157  18.353   8.399  0.2183 -0.0081  0.0271
  477loPI   C3A 7625   2.205  18.317   7.969  0.0477  0.1861 -0.1193
  477loPI   C4A 7626   2.394  18.209   7.516 -0.0936 -0.1427  0.0453
  477loPI   C5A 7627   2.807  17.887   7.428 -0.3540 -0.1802 -0.1425
  477loPI   C6A 7628   3.109  17.674   7.309  0.0568 -0.1631 -0.0576
  477loPI   C1B 7629   2.212  19.026   9.028  0.1307  0.0462  0.0701
  477loPI   C2B 7630   2.111  19.011   8.546  0.4559  0.1147  0.1231
  477loPI   C3B 7631   2.207  18.963   8.006 -0.0083 -0.0700 -0.0842
  477loPI   C4B 7632   2.037  19.065   7.608  0.1341  0.0602 -0.0927
  478loPI    C1 7633  17.367   1.260  10.150  0.0908  0.0439 -0.1651
  478loPI    C2 7634  17.224   0.918  10.301 -0.1787  0.0620 -0.3714
  478loPI    C3 7635  17.060   1.268  10.406  0.0481  0.1245 -0.2179
  478loPI   PO4 7636  17.372   1.226   9.920  0.1190  0.1733  0.2160
  478loPI   GL1 7637  17.419   1.264   9.535  0.3122  0.0141  0.0640
  478loPI   GL2 7638  17.555   1.076   9.385  0.3076 -0.0546 -0.2197
  478loPI   C1A 7639  17.549   1.599   9.164  0.1978  0.2534  0.0866
  478loPI   C2A 7640  17.543   1.596   8.754  0.1835  0.0938  0.0436
  478loPI   C3A 7641  17.604   1.861   8.521  0.0407 -0.0633 -0.0508
  478loPI   C4A 7642  17.822   1.925   8.101 -0.2780 -0.3094  0.1536
  478loPI   C5A 7643  17.827   1.981   7.643 -0.0776 -0.1957 -0.0269
  478loPI   C6A 7644  17.745   1.992   7.193  0.0765 -0.0249  0.3586
  478loPI   C1B 7645  17.537   1.092   8.974 -0.2023 -0.1452 -0.2668
  478loPI   C2B 7646  17.597   1.050   8.589  0.2739  0.2258 -0.1014
  478loPI   C3B 7647  17.790   0.889   8.250 -0.0835  0.0388 -0.2295
  478loPI   C4B 7648  17.902   0.581   7.981  0.5445  0.2074 -0.0117
  479loPI    C1 7649   4.387   8.124  10.344  0.1621  0.1560  0.0061
  479loPI    C2 7650   4.556   8.401  10.577  0.1082  0.0708  0.1476
  479loPI    C3 7651   4.563   8.017  10.687  0.0487  0.0349  0.0270
  479loPI   PO4 7652   4.519   8.155  10.092 -0.0237  0.0686 -0.0378
  479loPI   GL1 7653   4.423   7.812   9.797 -0.0904 -0.1136  0.0487
  479loPI   GL2 7654   4.189   7.843   9.941  0.1349  0.0681 -0.0067
  479loPI   C1A 7655   4.634   7.820   9.340  0.0548  0.0653  0.2277
  479loPI   C2A 7656   4.966   7.742   9.109  0.0461 -0.0708  0.0253
  479loPI   C3A 7657   5.081   7.864   8.717  0.1007  0.1637  0.2707
  479loPI   C4A 7658   5.307   7.933   8.359 -0.1059  0.0402  0.0238
  479loPI   C5A 7659   5.212   8.211   7.908 -0.0413  0.2672  0.1467
  479loPI   C6A 7660   5.266   8.219   7.526  0.2503  0.1558  0.0748
  479loPI   C1B 7661   4.194   7.577   9.467  0.0466 -0.1631  0.1251
  479loPI   C2B 7662   4.260   7.583   9.068  0.1586  0.0848 -0.1792
  479loPI   C3B 7663   4.158   7.572   8.576 -0.0476 -0.1704  0.1805
  479loPI   C4B 7664   3.986   7.653   8.124 -0.3451 -0.2363 -0.0060
  480loPI    C1 7665   4.331  11.493  10.408 -0.2189 -0.0364 -0.3123
  480loPI    C2 7666   4.040  11.766  10.439  0.0267  0.1921  0.0633
  480loPI    C3 7667   4.213  11.621  10.769  0.0952 -0.2107 -0.1438
  480loPI   PO4 7668   4.432  11.525  10.167  0.0383  0.1126 -0.4085
  480loPI   GL1 7669   4.458  11.517   9.695  0.1635 -0.0337 -0.0869
  480loPI   GL2 7670   4.766  11.300   9.543  0.3390  0.1484  0.1707
  480loPI   C1A 7671   4.371  11.907   9.463  0.0761  0.0244 -0.2814
  480loPI   C2A 7672   4.353  12.070   9.084  0.0812  0.3314 -0.0323
  480loPI   C3A 7673   4.587  12.101   8.782 -0.1856 -0.0571 -0.1905
  480loPI   C4A 7674   4.652  12.142   8.341 -0.2687 -0.4489  0.2264
  480loPI   C5A 7675   4.747  12.066   7.911  0.3699 -0.0767  0.0241
  480loPI   C6A 7676   4.614  11.668   7.632  0.0094  0.0589 -0.0336
  480loPI   C1B 7677   4.616  11.097   9.277 -0.1231 -0.0091 -0.1487
  480loPI   C2B 7678   4.428  10.969   9.027 -0.1442 -0.1455 -0.0660
  480loPI   C3B 7679   4.565  10.998   8.658 -0.2868  0.0449  0.1374
  480loPI   C4B 7680   4.444  10.927   8.212 -0.0929  0.2925  0.3436
  481loPI    C1 7681   5.265   0.091  10.509 -0.0727  0.0862  0.4004
  481loPI    C2 7682   5.569  -0.047  10.729 -0.1495 -0.2432  0.3062
  481loPI    C3 7683   5.208  -0.216  10.760 -0.2685 -0.0037  0.2488
  481loPI   PO4 7684   5.367   0.219  10.303 -0.2977 -0.0292  0.1156
  481loPI   GL1 7685   5.320   0.268   9.836  0.1370  0.4877  0.0837
  481loPI   GL2 7686   5.651   0.103   9.892 -0.3075 -0.1418 -0.1820
  481loPI   C1A 7687   5.337   0.264   9.386 -0.1541  0.5822  0.1707
  481loPI   C2A 7688   5.357   0.202   9.043  0.2964 -0.0267 -0.0573
  481loPI   C3A 7689   5.339   0.214   8.620 -0.0080 -0.2720  0.1373
  481loPI   C4A 7690   5.391   0.317   8.193  0.0194 -0.0271  0.0730
  481loPI   C5A 7691   5.687   0.472   7.844  0.0484 -0.1593  0.0158
  481loPI   C6A 7692   5.826   0.347   7.493 -0.1921  0.0263 -0.3571
  481loPI   C1B 7693   5.712  -0.019   9.430 -0.2212 -0.3842  0.0456
  481loPI   C2B 7694   5.836  -0.100   9.002  0.3253  0.2464  0.2088
  481loPI   C3B 7695   5.782   0.074   8.512 -0.0139 -0.0252 -0.3727
  481loPI   C4B 7696   5.906   0.068   8.144  0.2190 -0.0186  0.1107
  482loPI    C1 7697  17.910  10.448  10.086 -0.0941  0.1453  0.1347
  482loPI    C2 7698  17.588  10.448  10.324 -0.1733 -0.1050  0.0304
  482loPI    C3 7699  17.888  10.703  10.393 -0.1258 -0.2773  0.4941
  482loPI   PO4 7700  17.725  10.359   9.820  0.0604 -0.4256  0.4013
  482loPI   GL1 7701  17.688  10.091   9.569 -0.4286  0.0047  0.0151
  482loPI   GL2 7702  17.872   9.839   9.602 -0.0921  0.0950  0.1287
  482loPI   C1A 7703  17.842  10.295   9.134  0.0225 -0.2760  0.0876
  482loPI   C2A 7704  18.001  10.591   8.834  0.0602 -0.1131 -0.1699
  482loPI   C3A 7705  17.897  10.628   8.529 -0.0708  0.0537  0.0948
  482loPI   C4A 7706  17.834  10.490   8.088 -0.1320 -0.2164  0.1404
  482loPI   C5A 7707  17.690  10.656   7.649  0.1209  0.0263  0.0767
  482loPI   C6A 7708  17.604  11.079   7.510 -0.2665  0.3479  0.2441
  482loPI   C1B 7709  18.165   9.917   9.250 -0.2292 -0.2803  0.2022
  482loPI   C2B 7710  18.241  10.006   8.762  0.0642  0.2029  0.1059
  482loPI   C3B 7711  18.545   9.736   8.576 -0.1116  0.1853  0.0551
  482loPI   C4B 7712  18.675   9.389   8.792 -0.0944 -0.0871 -0.1987
  483loPI    C1 7713   8.748  15.100  10.345  0.0920  0.2229  0.1789
  483loPI    C2 7714   8.984  14.970  10.640 -0.2190 -0.1849  0.2571
  483loPI    C3 7715   8.631  15.138  10.725 -0.1487  0.0344  0.1261
  483loPI   PO4 7716   8.924  15.158  10.148  0.0920 -0.0350 -0.2040
  483loPI   GL1 7717   8.802  15.398   9.777  0.5209 -0.0809  0.2760
  483loPI   GL2 7718   8.836  15.157   9.627  0.1202  0.1025  0.1831
  483loPI   C1A 7719   8.641  15.584   9.353  0.6795  0.1166 -0.2887
  483loPI   C2A 7720   8.697  15.582   8.917 -0.3103 -0.1421 -0.0640
  483loPI   C3A 7721   8.703  15.403   8.510 -0.2985 -0.1981  0.2096
  483loPI   C4A 7722   8.721  15.440   8.057  0.1748  0.0338  0.2232
  483loPI   C5A 7723   8.640  15.843   7.812 -0.1251 -0.3722 -0.1336
  483loPI   C6A 7724   8.504  16.326   7.689  0.1770 -0.0546  0.0333
  483loPI   C1B 7725   8.849  14.943   9.094  0.2695  0.0863  0.2527
  483loPI   C2B 7726   8.851  14.929   8.630  0.2868 -0.0208 -0.0089
  483loPI   C3B 7727   8.928  14.920   8.214  0.1644 -0.4841 -0.0991
  483loPI   C4B 7728   8.853  14.987   7.760 -0.1132  0.3309  0.0628
  484loPI    C1 7729   4.310   7.653  10.598 -0.4019 -0.0451 -0.0156
  484loPI    C2 7730   4.223   7.398  10.894 -0.1231 -0.0403  0.0736
  484loPI    C3 7731   4.580   7.380  10.713 -0.2175  0.0871 -0.1288
  484loPI   PO4 7732   4.134   7.586  10.413  0.1873  0.0022 -0.3029
  484loPI   GL1 7733   4.066   7.360  10.030 -0.0427  0.0050  0.1373
  484loPI   GL2 7734   3.773   7.171  10.057 -0.3167 -0.0049 -0.0321
  484loPI   C1A 7735   4.086   7.135   9.613 -0.2489  0.3335 -0.0274
  484loPI   C2A 7736   4.324   7.023   9.213 -0.1739 -0.0411  0.1298
  484loPI   C3A 7737   4.235   7.009   8.742  0.0342  0.0961  0.0177
  484loPI   C4A 7738   4.123   7.023   8.303 -0.1080  0.1749 -0.1939
  484loPI   C5A 7739   4.134   6.692   8.083  0.0484  0.2896 -0.0228
  484loPI   C6A 7740   3.844   6.358   7.968 -0.0155 -0.1634 -0.2626
  484loPI   C1B 7741   3.685   7.407   9.725 -0.1378  0.1794  0.1766
  484loPI   C2B 7742   3.682   7.386   9.381  0.0241 -0.1232  0.1501
  484loPI   C3B 7743   3.798   7.360   9.027 -0.0910  0.1465  0.1472
  484loPI   C4B 7744   3.752   7.349   8.651 -0.0832 -0.1191  0.0738
  485loPI    C1 7745  16.293   2.928   9.792  0.0288 -0.2352 -0.0202
  485loPI    C2 7746  15.988   2.678   9.859 -0.0366 -0.1610 -0.0400
  485loPI    C3 7747  16.272   2.725  10.136 -0.2370  0.0453  0.1344
  485loPI   PO4 7748  16.341   2.898   9.514 -0.2079  0.0059  0.3096
  485loPI   GL1 7749  16.314   2.955   9.091 -0.1264 -0.2561 -0.1505
  485loPI   GL2 7750  16.261   3.252   9.142  0.0046 -0.2525  0.4080
  485loPI   C1A 7751  16.422   2.803   8.704 -0.2318 -0.4290 -0.0799
  485loPI   C2A 7752  16.166   2.597   8.478  0.2774  0.0548  0.1173
  485loPI   C3A 7753  15.853   2.730   8.270  0.0275 -0.0736  0.2413
  485loPI   C4A 7754  15.841   3.008   7.964  0.0103  0.0005 -0.0250
  485loPI   C5A 7755  16.128   3.182   7.694 -0.2027  0.2326 -0.0761
  485loPI   C6A 7756  16.484   3.435   7.802  0.0092  0.0075 -0.0942
  485loPI   C1B 7757  16.053   3.416   8.830 -0.1923 -0.2261 -0.0048
  485loPI   C2B 7758  15.805   3.587   8.539 -0.0866 -0.4014  0.1195
  485loPI   C3B 7759  15.543   3.384   8.203 -0.0974 -0.2478  0.0066
  485loPI   C4B 7760  15.560   3.376   7.793 -0.1778 -0.1155 -0.3360
  486loPI    C1 7761   1.908   7.471  10.275 -0.2725 -0.0108 -0.2633
  486loPI    C2 7762   1.946   7.099  10.416  0.3806  0.1971  0.1506
  486loPI    C3 7763   2.121   7.201  10.071  0.1357  0.1062 -0.0029
  486loPI   PO4 7764   1.695   7.553  10.224 -0.2077  0.0264  0.1668
  486loPI   GL1 7765   1.484   7.345   9.972 -0.3698  0.3853 -0.0691
  486loPI   GL2 7766   1.090   7.272   9.868 -0.0441 -0.0757  0.2448
  486loPI   C1A 7767   1.725   7.176   9.502  0.1892 -0.0704  0.2415
  486loPI   C2A 7768   1.727   7.137   9.100  0.1660  0.0013  0.1214
  486loPI   C3A 7769   1.668   6.875   8.742  0.0016 -0.2884  0.0976
  486loPI   C4A 7770   1.671   6.871   8.323 -0.0434 -0.1562  0.0872
  486loPI   C5A 7771   1.740   6.839   7.841  0.2909 -0.0753  0.1004
  486loPI   C6A 7772   1.687   6.965   7.495 -0.1951  0.3204 -0.1283
  486loPI   C1B 7773   1.238   7.437   9.465 -0.3067 -0.0283 -0.1054
  486loPI   C2B 7774   1.381   7.525   9.008 -0.5285  0.1004 -0.0446
  486loPI   C3B 7775   1.608   7.338   8.550  0.2132  0.1107  0.1058
  486loPI   C4B 7776   1.619   7.369   8.144 -0.1024  0.1174 -0.0829
  487loPI    C1 7777   4.982  11.013  10.704 -0.0534  0.0019 -0.0196
  487loPI    C2 7778   5.105  11.370  10.834 -0.1191 -0.0304  0.1330
  487loPI    C3 7779   5.255  11.036  10.995 -0.0035 -0.0726 -0.0601
  487loPI   PO4 7780   5.032  11.099  10.427 -0.2164 -0.0420  0.0556
  487loPI   GL1 7781   5.209  11.165  10.018  0.3115 -0.2034  0.1865
  487loPI   GL2 7782   5.015  10.872   9.733  0.0979  0.1900 -0.0964
  487loPI   C1A 7783   5.503  11.039   9.644 -0.0793  0.0743 -0.1851
  487loPI   C2A 7784   5.537  11.121   9.268  0.2501 -0.0232  0.0831
  487loPI   C3A 7785   5.458  11.107   8.816  0.1956  0.0869 -0.2442
  487loPI   C4A 7786   5.534  11.095   8.408 -0.0762  0.0718 -0.0515
  487loPI   C5A 7787   5.720  10.804   8.192 -0.0523 -0.0986  0.1915
  487loPI   C6A 7788   5.846  10.911   7.742  0.1176  0.1316 -0.0680
  487loPI   C1B 7789   5.108  10.979   9.371  0.2492  0.3276 -0.0228
  487loPI   C2B 7790   5.183  10.729   9.067  0.1151  0.1303  0.0360
  487loPI   C3B 7791   5.390  10.653   8.685  0.0426  0.1807 -0.1044
  487loPI   C4B 7792   5.343  10.582   8.283  0.1337  0.2435 -0.1742
  488loPI    C1 7793  14.173  14.097   9.778  0.0786 -0.1604 -0.0257
  488loPI    C2 7794  14.293  14.443   9.618  0.0334 -0.0852  0.1017
  488loPI    C3 7795  14.067  14.443   9.948  0.0342 -0.2365  0.1028
  488loPI   PO4 7796  14.151  13.998   9.470  0.1895 -0.2277  0.0081
  488loPI   GL1 7797  14.207  13.685   9.200 -0.1088  0.1908  0.2041
  488loPI   GL2 7798  14.268  13.441   9.208 -0.3680 -0.1346 -0.0239
  488loPI   C1A 7799  14.353  13.621   8.674  0.0840  0.0906 -0.1328
  488loPI   C2A 7800  14.649  13.671   8.319  0.2406 -0.1191 -0.0874
  488loPI   C3A 7801  14.599  13.457   7.915 -0.2502  0.0718 -0.0578
  488loPI   C4A 7802  14.495  13.655   7.502  0.0471 -0.1154 -0.0038
  488loPI   C5A 7803  14.500  13.823   7.119 -0.2289  0.1852 -0.0417
  488loPI   C6A 7804  14.471  14.031   6.736  0.0935 -0.1154 -0.1679
  488loPI   C1B 7805  14.010  13.352   8.831  0.2683  0.1517 -0.2544
  488loPI   C2B 7806  13.864  13.593   8.526 -0.0996  0.1065  0.0267
  488loPI   C3B 7807  13.567  13.530   8.211 -0.4385 -0.0105  0.0954
  488loPI   C4B 7808  13.481  13.380   7.926 -0.1796 -0.1782  0.0725
  489loPI    C1 7809  14.043  15.058   9.833 -0.0317 -0.0582  0.0338
  489loPI    C2 7810  13.839  14.879  10.127 -0.2380 -0.1992 -0.1912
  489loPI    C3 7811  13.759  15.258  10.030 -0.0692 -0.1050  0.0275
  489loPI   PO4 7812  14.027  14.872   9.627  0.1732  0.2465 -0.1579
  489loPI   GL1 7813  14.336  14.799   9.234 -0.0420 -0.0442  0.2028
  489loPI   GL2 7814  14.494  14.934   9.184 -0.2614 -0.2493 -0.1086
  489loPI   C1A 7815  14.508  14.601   8.760 -0.0280  0.2911  0.1409
  489loPI   C2A 7816  14.263  14.365   8.293 -0.2716 -0.1510 -0.0238
  489loPI   C3A 7817  13.986  14.348   7.950  0.0470  0.1316 -0.0737
  489loPI   C4A 7818  13.981  13.886   7.775 -0.0758 -0.1291  0.0002
  489loPI   C5A 7819  13.631  13.628   7.521  0.2734 -0.1627 -0.0673
  489loPI   C6A 7820  13.178  13.721   7.608  0.2356 -0.0884  0.0719
  489loPI   C1B 7821  14.633  15.049   8.819 -0.0696  0.0149  0.0032
  489loPI   C2B 7822  14.708  15.065   8.507  0.1049 -0.3787 -0.2366
  489loPI   C3B 7823  14.690  14.775   8.234  0.0000 -0.1836  0.0494
  489loPI   C4B 7824  14.408  14.650   7.911 -0.0745 -0.0157  0.1052
  490loPI    C1 7825  10.773   1.741  10.937  0.2016 -0.1442 -0.1732
  490loPI    C2 7826  10.722   1.399  11.139 -0.1111  0.0739  0.1289
  490loPI    C3 7827  11.030   1.639  11.226  0.0487 -0.0777 -0.0117
  490loPI   PO4 7828  10.550   1.676  10.719  0.2820  0.2436 -0.0439
  490loPI   GL1 7829  10.412   1.831  10.367 -0.0825 -0.1036 -0.3482
  490loPI   GL2 7830  10.729   1.908  10.286 -0.0393  0.0729  0.0668
  490loPI   C1A 7831  10.308   1.757   9.916  0.1339  0.1141 -0.1408
  490loPI   C2A 7832  10.146   1.845   9.565  0.1914  0.1015 -0.0774
  490loPI   C3A 7833  10.127   1.830   9.151 -0.1640  0.2997 -0.0979
  490loPI   C4A 7834  10.146   1.826   8.746  0.1239 -0.0431  0.0171
  490loPI   C5A 7835   9.917   1.760   8.464 -0.3545  0.0042 -0.0267
  490loPI   C6A 7836   9.589   1.514   8.321  0.0960 -0.1353  0.1589
  490loPI   C1B 7837  10.668   2.117   9.997  0.0951  0.2224  0.0575
  490loPI   C2B 7838  10.587   2.081   9.649  0.2667 -0.0334 -0.3485
  490loPI   C3B 7839  10.544   2.130   9.300  0.2379 -0.0669  0.2437
  490loPI   C4B 7840  10.581   2.120   8.859 -0.1598 -0.3976  0.0770
  491loPI    C1 7841  15.863   4.640   9.839 -0.0373  0.1729 -0.2308
  491loPI    C2 7842  15.532   4.470   9.692  0.0575 -0.1664 -0.0612
  491loPI    C3 7843  15.586   4.495  10.087  0.1587  0.0415 -0.0865
  491loPI   PO4 7844  16.001   4.684   9.613 -0.0458 -0.0923  0.2761
  491loPI   GL1 7845  15.734   4.941   9.288 -0.2176  0.1528  0.2341
  491loPI   GL2 7846  15.373   4.894   9.373 -0.3365  0.0522  0.0147
  491loPI   C1A 7847  15.749   4.853   8.865 -0.0789  0.1862 -0.2927
  491loPI   C2A 7848  15.928   4.681   8.397  0.2188 -0.1168 -0.2397
  491loPI   C3A 7849  15.850   4.925   8.022  0.2651  0.1776 -0.0443
  491loPI   C4A 7850  15.700   5.008   7.587  0.1009  0.1759 -0.0814
  491loPI   C5A 7851  15.804   5.253   7.130 -0.0389 -0.1941  0.1680
  491loPI   C6A 7852  15.663   5.664   7.069 -0.1097  0.3123  0.2043
  491loPI   C1B 7853  15.316   4.944   8.984  0.1651 -0.1554 -0.0513
  491loPI   C2B 7854  15.053   4.704   8.707 -0.3065  0.2076 -0.1101
  491loPI   C3B 7855  14.595   4.736   8.599 -0.1899 -0.4985 -0.2755
  491loPI   C4B 7856  14.254   4.923   8.423 -0.0363 -0.2424 -0.0576
  492loPI    C1 7857   9.494   2.342  11.121 -0.0949  0.4107  0.1598
  492loPI    C2 7858   9.742   2.469  11.409  0.1001  0.1436  0.1136
  492loPI    C3 7859   9.568   2.110  11.439 -0.1845  0.2760  0.0832
  492loPI   PO4 7860   9.667   2.451  10.875  0.2193  0.0175  0.0580
  492loPI   GL1 7861   9.568   2.442  10.522 -0.3522 -0.2063 -0.1248
  492loPI   GL2 7862   9.840   2.430  10.312  0.1626 -0.2859  0.1435
  492loPI   C1A 7863   9.376   2.707  10.141  0.0703 -0.0686  0.2402
  492loPI   C2A 7864   9.222   2.732   9.865  0.3265  0.0568  0.2898
  492loPI   C3A 7865   9.138   2.811   9.397  0.1488 -0.1632  0.0855
  492loPI   C4A 7866   9.087   2.818   9.005  0.4765  0.0958 -0.0596
  492loPI   C5A 7867   9.039   2.758   8.494  0.0642  0.2641  0.0290
  492loPI   C6A 7868   9.244   2.832   8.037  0.4423 -0.0353 -0.2302
  492loPI   C1B 7869   9.674   2.500   9.813 -0.2472 -0.0727 -0.1226
  492loPI   C2B 7870   9.608   2.538   9.349 -0.0699  0.1396  0.0416
  492loPI   C3B 7871   9.689   2.567   8.798 -0.2211 -0.1534  0.0856
  492loPI   C4B 7872   9.460   2.595   8.378 -0.2293  0.1611 -0.0438
  493loPI    C1 7873   4.691  12.505  10.585  0.0293  0.3361 -0.0086
  493loPI    C2 7874   5.001  12.308  10.743 -0.2228 -0.2223 -0.1863
  493loPI    C3 7875   4.772  12.539  10.975 -0.0834 -0.3532  0.0875
  493loPI   PO4 7876   4.799  12.649  10.382  0.0942  0.0190  0.0867
  493loPI   GL1 7877   5.009  12.733   9.956  0.2396 -0.1583  0.0179
  493loPI   GL2 7878   5.009  12.418   9.810 -0.0722 -0.0759 -0.3274
  493loPI   C1A 7879   4.841  12.834   9.605 -0.0083 -0.2032 -0.0355
  493loPI   C2A 7880   4.924  12.854   9.232  0.1611 -0.0187  0.0388
  493loPI   C3A 7881   4.927  12.865   8.801 -0.0138 -0.3562  0.0580
  493loPI   C4A 7882   5.084  12.851   8.366 -0.0234  0.3451 -0.0724
  493loPI   C5A 7883   5.154  12.693   7.996 -0.5702 -0.4720  0.0555
  493loPI   C6A 7884   5.157  12.347   7.711  0.0365 -0.0938 -0.4588
  493loPI   C1B 7885   4.784  12.316   9.493  0.1312  0.1524  0.2182
  493loPI   C2B 7886   4.860  12.371   9.067 -0.1113  0.0403 -0.0314
  493loPI   C3B 7887   5.096  12.349   8.652  0.1248 -0.0249  0.0073
  493loPI   C4B 7888   5.138  12.209   8.248 -0.0647 -0.2422 -0.1342
  494loPI    C1 7889   2.795  11.709   9.936  0.1089  0.0590  0.0968
  494loPI    C2 7890   2.642  11.861  10.273  0.0834  0.1516  0.0441
  494loPI    C3 7891   2.965  11.625  10.288  0.0926  0.1695  0.1314
  494loPI   PO4 7892   2.618  11.631   9.775  0.0334 -0.0086 -0.1943
  494loPI   GL1 7893   2.401  11.700   9.398 -0.1209  0.2194  0.0502
  494loPI   GL2 7894   2.110  11.655   9.491  0.0285 -0.0706 -0.0846
  494loPI   C1A 7895   2.245  11.669   9.008  0.1946  0.0993 -0.3946
  494loPI   C2A 7896   2.215  11.859   8.541  0.1910 -0.0254 -0.1833
  494loPI   C3A 7897   2.324  11.865   8.117  0.0781  0.2771  0.2564
  494loPI   C4A 7898   2.460  11.978   7.724 -0.1292 -0.0788 -0.0342
  494loPI   C5A 7899   2.243  11.917   7.394 -0.2199 -0.1810 -0.2055
  494loPI   C6A 7900   1.961  11.543   7.369  0.0922  0.1931  0.3904
  494loPI   C1B 7901   2.366  11.227   9.239 -0.1157 -0.1910  0.1767
  494loPI   C2B 7902   2.444  10.878   8.920 -0.1466  0.0439  0.2308
  494loPI   C3B 7903   2.591  10.519   8.745 -0.0489  0.1470 -0.0405
  494loPI   C4B 7904   2.409  10.160   8.630  0.0575 -0.3048  0.0011
  495loPI    C1 7905   0.452   6.986  10.272 -0.0241 -0.1502 -0.0847
  495loPI    C2 7906   0.800   7.181  10.241 -0.0012 -0.1815 -0.0270
  495loPI    C3 7907   0.536   7.285  10.524 -0.1435  0.0025 -0.2238
  495loPI   PO4 7908   0.524   6.771  10.182 -0.0851 -0.1359  0.1402
  495loPI   GL1 7909   0.408   6.699   9.737  0.1370  0.0129 -0.1534
  495loPI   GL2 7910   0.220   6.775   9.544  0.1064 -0.3648 -0.1599
  495loPI   C1A 7911   0.661   6.488   9.479 -0.4493  0.1341  0.2086
  495loPI   C2A 7912   0.895   6.627   9.162 -0.0180  0.0498 -0.0451
  495loPI   C3A 7913   0.986   6.704   8.804  0.1529  0.4586 -0.1132
  495loPI   C4A 7914   1.158   6.825   8.432 -0.0675 -0.4650 -0.1451
  495loPI   C5A 7915   1.260   7.012   8.041 -0.2516  0.1554  0.0812
  495loPI   C6A 7916   1.014   7.213   7.738 -0.1592  0.3262 -0.0662
  495loPI   C1B 7917   0.416   6.808   9.186 -0.0813 -0.1872  0.0399
  495loPI   C2B 7918   0.513   6.906   8.835  0.0128  0.1256  0.0506
  495loPI   C3B 7919   0.644   7.080   8.505 -0.0371 -0.0376  0.1049
  495loPI   C4B 7920   0.659   7.045   8.085 -0.0354 -0.0895  0.1227
  496loPI    C1 7921  18.226  16.821   9.920  0.1483  0.1204  0.2005
  496loPI    C2 7922  18.301  16.591  10.239 -0.1300 -0.3178 -0.0406
  496loPI    C3 7923  18.015  16.870  10.256  0.1186 -0.0726  0.2111
  496loPI   PO4 7924  18.324  16.645   9.731 -0.0818  0.1633  0.2427
  496loPI   GL1 7925  18.217  16.855   9.376  0.0286  0.2437  0.0467
  496loPI   GL2 7926  18.193  17.145   9.460  0.0003  0.3379 -0.1156
  496loPI   C1A 7927  18.103  16.845   8.976 -0.1726  0.1776  0.1055
  496loPI   C2A 7928  18.058  16.819   8.632 -0.0620  0.0859  0.4033
  496loPI   C3A 7929  18.182  16.573   8.352  0.1664 -0.0100  0.1053
  496loPI   C4A 7930  18.067  16.374   8.005 -0.3298 -0.1291  0.0933
  496loPI   C5A 7931  17.913  16.129   7.663 -0.1888 -0.3575 -0.1611
  496loPI   C6A 7932  17.657  15.925   7.421  0.2070 -0.2151 -0.0459
  496loPI   C1B 7933  18.504  17.108   9.112 -0.0139  0.1063  0.5054
  496loPI   C2B 7934  18.543  17.148   8.787  0.1555 -0.0914  0.0664
  496loPI   C3B 7935  18.430  17.000   8.265  0.2695 -0.1366  0.0534
  496loPI   C4B 7936  18.078  16.925   7.973 -0.1061  0.1848 -0.0299
  497loPI    C1 7937   7.255   2.098  11.056 -0.1158  0.1047  0.0982
  497loPI    C2 7938   7.214   2.231  11.431  0.0996  0.1228  0.1166
  497loPI    C3 7939   7.246   1.839  11.360 -0.1381  0.1055  0.0981
  497loPI   PO4 7940   7.127   2.204  10.775 -0.0472  0.0181  0.0964
  497loPI   GL1 7941   7.194   2.315  10.340  0.0033  0.1377  0.1092
  497loPI   GL2 7942   7.133   2.687  10.394  0.1164  0.2977  0.0902
  497loPI   C1A 7943   7.260   2.410   9.805  0.1153  0.2227  0.0128
  497loPI   C2A 7944   7.361   2.371   9.458  0.0119  0.1111 -0.1239
  497loPI   C3A 7945   7.304   2.329   8.972 -0.0197  0.1679 -0.1957
  497loPI   C4A 7946   7.345   2.174   8.587  0.1296 -0.1692  0.2585
  497loPI   C5A 7947   7.105   2.240   8.220 -0.1566  0.6101  0.1396
  497loPI   C6A 7948   6.783   2.411   8.173 -0.1833 -0.0593  0.0073
  497loPI   C1B 7949   7.142   2.875  10.043  0.0587  0.1808 -0.0112
  497loPI   C2B 7950   7.198   2.996   9.608 -0.1254 -0.0716  0.1661
  497loPI   C3B 7951   7.259   2.960   9.205  0.1870 -0.3400 -0.2157
  497loPI   C4B 7952   7.207   3.086   8.672  0.0269  0.0584 -0.2571
  498loPI    C1 7953   5.139   5.540  11.029 -0.0490 -0.0751  0.2052
  498loPI    C2 7954   4.907   5.250  11.178 -0.1674 -0.1186 -0.0595
  498loPI    C3 7955   4.795   5.632  11.212 -0.2008 -0.1293 -0.0484
  498loPI   PO4 7956   5.166   5.461  10.808  0.0911  0.1275  0.1578
  498loPI   GL1 7957   5.153   5.451  10.366  0.4523 -0.2986  0.1671
  498loPI   GL2 7958   4.891   5.306  10.213  0.1507 -0.1817  0.3583
  498loPI   C1A 7959   5.301   5.803  10.070  0.1038  0.0127 -0.1314
  498loPI   C2A 7960   5.339   5.652   9.617  0.0482 -0.0252  0.1386
  498loPI   C3A 7961   5.453   5.606   9.076  0.1197 -0.0902  0.0969
  498loPI   C4A 7962   5.467   5.516   8.631 -0.2183  0.0778 -0.0602
  498loPI   C5A 7963   5.761   5.380   8.458  0.0002  0.3001 -0.2101
  498loPI   C6A 7964   6.178   5.145   8.319  0.1398  0.1301  0.0030
  498loPI   C1B 7965   4.958   5.433   9.882 -0.1089 -0.2217  0.1101
  498loPI   C2B 7966   4.933   5.268   9.407  0.2435  0.2174 -0.0366
  498loPI   C3B 7967   5.007   5.288   8.962 -0.3861 -0.2382  0.1123
  498loPI   C4B 7968   5.027   5.191   8.613 -0.0236 -0.1750  0.1302
  499loPI    C1 7969  18.419   6.013  10.501  0.0713  0.1059  0.0841
  499loPI    C2 7970  18.213   5.679  10.576  0.1219  0.0998  0.1979
  499loPI    C3 7971  18.509   5.790  10.821  0.2115  0.1427  0.0711
  499loPI   PO4 7972  18.234   6.043  10.252  0.0087 -0.0458  0.0416
  499loPI   GL1 7973  18.185   5.983   9.777 -0.1567  0.0319  0.0339
  499loPI   GL2 7974  18.459   6.264   9.886 -0.2338 -0.1335 -0.0081
  499loPI   C1A 7975  18.323   6.144   9.360 -0.1800 -0.1105 -0.0694
  499loPI   C2A 7976  18.538   6.151   8.959  0.1200  0.1603 -0.0220
  499loPI   C3A 7977  18.848   6.265   8.586  0.0193 -0.2605  0.1028
  499loPI   C4A 7978  18.993   6.309   8.143  0.0170 -0.0633  0.0858
  499loPI   C5A 7979  19.315   6.378   7.868 -0.2179  0.0068 -0.2046
  499loPI   C6A 7980  19.244   6.433   7.439  0.0311  0.4109 -0.1881
  499loPI   C1B 7981  18.458   6.550   9.556  0.1429 -0.1519  0.1714
  499loPI   C2B 7982  18.333   6.637   9.074 -0.1161  0.2056 -0.1356
  499loPI   C3B 7983  18.413   6.593   8.692 -0.1981 -0.3238  0.1349
  499loPI   C4B 7984  18.550   6.592   8.148  0.0770 -0.6334 -0.1076
  500loPI    C1 7985  14.816  14.439   9.767 -0.2441 -0.0525  0.0008
  500loPI    C2 7986  14.862  14.658  10.099 -0.0627 -0.3057  0.1461
  500loPI    C3 7987  14.566  14.390  10.076 -0.1886 -0.1584  0.0296
  500loPI   PO4 7988  14.765  14.551   9.532 -0.1358  0.1966  0.0529
  500loPI   GL1 7989  15.139  14.678   9.215  0.3029  0.4309  0.1021
  500loPI   GL2 7990  14.874  14.611   9.050 -0.1255  0.0719  0.0546
  500loPI   C1A 7991  15.399  14.571   8.961 -0.0376 -0.2193 -0.1548
  500loPI   C2A 7992  15.622  14.622   8.550  0.0943  0.0792 -0.1417
  500loPI   C3A 7993  15.873  14.636   8.214 -0.0163  0.0546  0.1073
  500loPI   C4A 7994  15.633  14.767   7.926 -0.1107 -0.0853 -0.0815
  500loPI   C5A 7995  15.332  14.757   7.539 -0.2437  0.0811  0.2045
  500loPI   C6A 7996  15.202  14.426   7.224  0.0487  0.1215 -0.0163
  500loPI   C1B 7997  15.003  14.525   8.589 -0.2195 -0.1092 -0.1007
  500loPI   C2B 7998  15.223  14.442   8.234 -0.0757  0.3126  0.0211
  500loPI   C3B 7999  15.322  14.313   7.846  0.1047  0.2114  0.2273
  500loPI   C4B 8000  14.856  14.398   7.587  0.2018  0.0386  0.1738
  501loPI    C1 8001  17.122  16.799  10.033 -0.0388 -0.0936  0.0378
  501loPI    C2 8002  17.000  17.073  10.298  0.0508 -0.2456  0.2386
  501loPI    C3 8003  16.760  16.768  10.201 -0.1214 -0.0034 -0.1204
  501loPI   PO4 8004  17.263  17.026   9.811  0.0576  0.0725 -0.1560
  501loPI   GL1 8005  17.271  17.134   9.339  0.0425  0.0211 -0.0433
  501loPI   GL2 8006  17.285  16.838   9.331 -0.3395  0.1658  0.0227
  501loPI   C1A 8007  17.661  17.160   9.188 -0.2191  0.2816 -0.1834
  501loPI   C2A 8008  17.684  17.111   8.806  0.1341 -0.0541  0.0519
  501loPI   C3A 8009  17.746  17.106   8.391  0.0444 -0.0521  0.0450
  501loPI   C4A 8010  17.587  17.099   7.950  0.1609 -0.0735 -0.2587
  501loPI   C5A 8011  17.304  17.032   7.556  0.3269  0.0150 -0.0030
  501loPI   C6A 8012  17.301  17.271   7.038 -0.2198 -0.2374  0.0728
  501loPI   C1B 8013  17.194  16.947   8.911  0.0856 -0.0995 -0.2252
  501loPI   C2B 8014  17.226  17.018   8.418 -0.1331 -0.0459  0.2134
  501loPI   C3B 8015  17.130  16.905   8.034  0.0325  0.0177 -0.1922
  501loPI   C4B 8016  16.821  17.100   7.719 -0.0128  0.1072 -0.2295
  502loPI    C1 8017   3.151   8.124  10.309  0.2831  0.0268 -0.0430
  502loPI    C2 8018   3.082   8.257  10.680 -0.1471 -0.0312 -0.0972
  502loPI    C3 8019   3.385   8.005  10.611 -0.0406  0.0097  0.2068
  502loPI   PO4 8020   2.935   7.946  10.281 -0.2597  0.0673  0.0377
  502loPI   GL1 8021   2.876   7.560   9.871 -0.1023 -0.0376 -0.2673
  502loPI   GL2 8022   2.730   7.689   9.539 -0.1486  0.2297 -0.3224
  502loPI   C1A 8023   3.085   7.380   9.538 -0.3187 -0.1491  0.1428
  502loPI   C2A 8024   3.263   7.057   9.302  0.0069 -0.2096  0.0623
  502loPI   C3A 8025   3.259   7.088   8.924  0.0915 -0.0976 -0.2489
  502loPI   C4A 8026   3.376   7.016   8.539 -0.2457 -0.0037  0.1665
  502loPI   C5A 8027   3.638   7.141   8.241 -0.1346  0.0162  0.4554
  502loPI   C6A 8028   3.510   7.241   7.829 -0.1764  0.0545 -0.2184
  502loPI   C1B 8029   2.391   7.606   9.182 -0.0404  0.0463  0.2109
  502loPI   C2B 8030   2.148   7.481   8.798  0.0658 -0.5150 -0.2552
  502loPI   C3B 8031   2.086   7.345   8.414 -0.3098  0.1212  0.0436
  502loPI   C4B 8032   2.074   7.060   8.150 -0.0155  0.1049  0.1034
  503loPI    C1 8033   7.674  15.303  10.790  0.2772 -0.4066 -0.3806
  503loPI    C2 8034   7.664  14.938  10.953 -0.2675 -0.2093  0.0597
  503loPI    C3 8035   7.710  15.260  11.186 -0.1236  0.0287 -0.2883
  503loPI   PO4 8036   7.498  15.168  10.543 -0.2353 -0.0191  0.0216
  503loPI   GL1 8037   7.460  15.342  10.054  0.4313  0.2158  0.0908
  503loPI   GL2 8038   7.351  15.612  10.011  0.1760 -0.3127 -0.0766
  503loPI   C1A 8039   7.335  15.067   9.723  0.2104  0.1384 -0.1437
  503loPI   C2A 8040   7.217  15.099   9.269  0.3677 -0.1896 -0.2009
  503loPI   C3A 8041   7.374  15.090   8.925  0.2270  0.1671 -0.1718
  503loPI   C4A 8042   7.332  15.092   8.500 -0.1007 -0.0236  0.3059
  503loPI   C5A 8043   7.394  15.094   8.039  0.0034  0.1809  0.0540
  503loPI   C6A 8044   7.642  15.402   7.744 -0.0676  0.4786 -0.0119
  503loPI   C1B 8045   7.345  15.515   9.526 -0.1549 -0.0511 -0.0357
  503loPI   C2B 8046   7.236  15.598   9.027 -0.0212  0.1261 -0.0281
  503loPI   C3B 8047   7.374  15.602   8.642  0.0848 -0.0448  0.0084
  503loPI   C4B 8048   7.692  15.694   8.404 -0.0674  0.3514 -0.0539
  504loPI    C1 8049   8.766  11.092  10.106 -0.3371  0.1840  0.0709
  504loPI    C2 8050   8.721  10.873  10.437 -0.1476  0.0938  0.0382
  504loPI    C3 8051   8.997  11.162  10.425 -0.0926  0.0374 -0.0703
  504loPI   PO4 8052   8.555  11.130  10.023 -0.0091  0.2444 -0.2012
  504loPI   GL1 8053   8.437  11.072   9.610 -0.2651 -0.5565  0.3097
  504loPI   GL2 8054   8.694  10.839   9.479 -0.2267 -0.1240 -0.4758
  504loPI   C1A 8055   8.277  10.891   9.249 -0.3336 -0.1773 -0.0590
  504loPI   C2A 8056   8.366  10.639   8.894  0.0920  0.2658 -0.0642
  504loPI   C3A 8057   8.210  10.669   8.513  0.0064  0.1316 -0.0796
  504loPI   C4A 8058   8.267  10.951   8.202 -0.5488 -0.4555  0.1973
  504loPI   C5A 8059   8.533  11.067   7.821 -0.0027 -0.4851  0.2798
  504loPI   C6A 8060   8.681  11.386   7.532 -0.4150 -0.0397  0.0809
  504loPI   C1B 8061   8.795  11.199   9.091 -0.1025 -0.0509 -0.1279
  504loPI   C2B 8062   8.809  11.422   8.775  0.2646  0.0413 -0.2223
  504loPI   C3B 8063   8.842  11.666   8.471  0.0044  0.2344 -0.1215
  504loPI   C4B 8064   9.103  11.543   8.118  0.0695 -0.3600  0.0374
  505loPI    C1 8065   8.236   9.250  10.403  0.1058 -0.0801 -0.0204
  505loPI    C2 8066   8.236   9.583  10.625 -0.0311 -0.0604 -0.0490
  505loPI    C3 8067   8.258   9.225  10.801 -0.0945 -0.0432 -0.0060
  505loPI   PO4 8068   8.273   9.297  10.112 -0.0680  0.1475 -0.2257
  505loPI   GL1 8069   8.453   8.990   9.902 -0.1461 -0.0427 -0.0796
  505loPI   GL2 8070   8.662   9.061   9.724 -0.5010 -0.2115 -0.0206
  505loPI   C1A 8071   8.197   8.848   9.524 -0.1798 -0.1456  0.0255
  505loPI   C2A 8072   8.252   8.879   9.060  0.3112  0.1615 -0.2798
  505loPI   C3A 8073   8.236   8.904   8.596  0.1289 -0.0427 -0.0477
  505loPI   C4A 8074   8.114   8.554   8.323 -0.1339  0.1842 -0.1153
  505loPI   C5A 8075   7.974   8.219   8.233 -0.1643  0.1411  0.0268
  505loPI   C6A 8076   7.766   7.797   8.171 -0.0851 -0.1112 -0.2052
  505loPI   C1B 8077   8.608   9.088   9.294  0.0680 -0.2749 -0.3058
  505loPI   C2B 8078   8.485   9.280   8.855  0.0638 -0.1874 -0.1911
  505loPI   C3B 8079   8.688   9.345   8.483  0.2998 -0.0071  0.1861
  505loPI   C4B 8080   8.657   9.197   8.051  0.2279 -0.0421 -0.0853
  506loPI    C1 8081  14.247   5.080  10.322  0.1474  0.1956 -0.0083
  506loPI    C2 8082  13.924   5.278  10.450 -0.0906 -0.1206 -0.1063
  506loPI    C3 8083  14.273   5.320  10.641 -0.2129  0.1422  0.0654
  506loPI   PO4 8084  14.250   5.140  10.063 -0.1420 -0.2547 -0.3015
  506loPI   GL1 8085  14.051   5.049   9.663  0.0786 -0.1399 -0.1174
  506loPI   GL2 8086  14.040   4.712   9.511 -0.3575 -0.0422 -0.0198
  506loPI   C1A 8087  13.853   5.116   9.242 -0.0057 -0.1441  0.1252
  506loPI   C2A 8088  13.914   5.182   8.764 -0.2438 -0.1022 -0.1738
  506loPI   C3A 8089  13.765   5.216   8.355 -0.0369 -0.1287  0.1903
  506loPI   C4A 8090  13.782   5.028   8.002 -0.3597  0.2138  0.1183
  506loPI   C5A 8091  13.978   5.163   7.580  0.6306  0.2823  0.2259
  506loPI   C6A 8092  14.110   5.503   7.382 -0.0994 -0.0443  0.1009
  506loPI   C1B 8093  13.769   4.548   9.178 -0.0072 -0.3382  0.0267
  506loPI   C2B 8094  13.554   4.280   8.947 -0.2378 -0.1435 -0.1254
  506loPI   C3B 8095  13.440   4.286   8.505 -0.2164  0.2126 -0.0518
  506loPI   C4B 8096  13.414   4.380   8.046  0.0380  0.1449  0.0506
  507loPI    C1 8097  11.250   1.821  10.504  0.0325 -0.0233  0.0157
  507loPI    C2 8098  11.130   1.646  10.165  0.1686 -0.1327  0.0232
  507loPI    C3 8099  11.003   1.507  10.518 -0.0288  0.0247  0.0161
  507loPI   PO4 8100  11.234   2.083  10.465  0.0462 -0.1704  0.1901
  507loPI   GL1 8101  11.184   2.195  10.084 -0.2840  0.0201  0.0882
  507loPI   GL2 8102  11.096   2.526  10.037  0.1073  0.1573 -0.0882
  507loPI   C1A 8103  11.289   1.914   9.786  0.0917  0.0731  0.4470
  507loPI   C2A 8104  11.020   1.872   9.493 -0.1123  0.1355  0.2732
  507loPI   C3A 8105  11.032   1.879   8.993 -0.1385 -0.1159 -0.1771
  507loPI   C4A 8106  11.059   1.875   8.518 -0.2238  0.0717  0.0092
  507loPI   C5A 8107  11.343   2.064   8.255  0.2943 -0.1550  0.0860
  507loPI   C6A 8108  11.490   2.196   7.811 -0.0046 -0.1714  0.0677
  507loPI   C1B 8109  11.014   2.410   9.621  0.0951  0.1594  0.0226
  507loPI   C2B 8110  10.953   2.434   9.191  0.0555  0.2475  0.2521
  507loPI   C3B 8111  11.013   2.379   8.708 -0.2332 -0.1121  0.2391
  507loPI   C4B 8112  10.789   2.363   8.332  0.1965  0.0909 -0.1186
  508loPI    C1 8113   2.227   6.459  10.622 -0.0921 -0.1625  0.0625
  508loPI    C2 8114   1.930   6.652  10.808 -0.0477 -0.1235  0.0929
  508loPI    C3 8115   2.116   6.349  10.990 -0.0365 -0.1165  0.0931
  508loPI   PO4 8116   2.109   6.495  10.367  0.1973 -0.2319  0.1631
  508loPI   GL1 8117   1.922   6.366  10.078 -0.2875  0.0300 -0.0106
  508loPI   GL2 8118   1.651   6.313   9.982 -0.1627 -0.0238 -0.3642
  508loPI   C1A 8119   2.219   6.282   9.709 -0.0977 -0.2160  0.1285
  508loPI   C2A 8120   2.278   5.976   9.454 -0.0277  0.1563 -0.0881
  508loPI   C3A 8121   2.322   5.858   9.006  0.1048  0.1017 -0.1242
  508loPI   C4A 8122   2.224   5.836   8.551  0.0484  0.1583  0.1050
  508loPI   C5A 8123   2.087   6.062   8.242 -0.2808 -0.2208  0.0494
  508loPI   C6A 8124   1.866   6.429   8.069 -0.2086  0.0537 -0.0094
  508loPI   C1B 8125   1.727   6.424   9.561 -0.2093 -0.3054 -0.3951
  508loPI   C2B 8126   1.916   6.240   9.206  0.1062  0.1887  0.1505
  508loPI   C3B 8127   1.903   6.156   8.724  0.1003  0.0338  0.3528
  508loPI   C4B 8128   2.015   6.569   8.526  0.0193  0.0752  0.0279
  509loPI    C1 8129   9.076   2.639  11.133  0.1227 -0.1327  0.1097
  509loPI    C2 8130   9.322   2.736  11.434 -0.2248 -0.0105  0.3605
  509loPI    C3 8131   9.053   2.444  11.482 -0.1191 -0.1571  0.0819
  509loPI   PO4 8132   9.211   2.676  10.913 -0.2238  0.0940  0.6349
  509loPI   GL1 8133   9.108   2.924  10.545 -0.0842 -0.1484 -0.1745
  509loPI   GL2 8134   8.953   3.135  10.539  0.0904  0.1754  0.2566
  509loPI   C1A 8135   9.123   3.175  10.087  0.1394  0.0785 -0.1668
  509loPI   C2A 8136   9.131   3.260   9.629 -0.1474  0.0759 -0.1745
  509loPI   C3A 8137   9.065   3.320   9.124 -0.3047 -0.0588 -0.0739
  509loPI   C4A 8138   8.957   3.278   8.794  0.1395  0.2318  0.0527
  509loPI   C5A 8139   8.715   3.136   8.438  0.0151  0.1311  0.3445
  509loPI   C6A 8140   8.693   2.869   8.146  0.0444  0.0357 -0.1055
  509loPI   C1B 8141   8.707   2.817  10.196 -0.2110 -0.0214 -0.2651
  509loPI   C2B 8142   8.740   3.007   9.761 -0.0932 -0.1347 -0.2217
  509loPI   C3B 8143   8.562   2.949   9.284 -0.2320 -0.3454 -0.1773
  509loPI   C4B 8144   8.583   2.914   8.857 -0.0678  0.2657  0.1887
  510loPI    C1 8145   3.599   7.509  10.517 -0.2166  0.0459 -0.5257
  510loPI    C2 8146   3.876   7.222  10.554  0.0329  0.3435  0.0358
  510loPI    C3 8147   3.491   7.123  10.513  0.1043 -0.0742  0.3116
  510loPI   PO4 8148   3.633   7.593  10.348  0.0931 -0.3211  0.1756
  510loPI   GL1 8149   3.437   7.850  10.034  0.1444 -0.2375  0.1849
  510loPI   GL2 8150   3.590   8.091   9.925 -0.0762  0.0302 -0.0071
  510loPI   C1A 8151   3.350   7.784   9.639  0.1880  0.3173 -0.2447
  510loPI   C2A 8152   3.338   7.737   9.206 -0.0746 -0.1167 -0.2487
  510loPI   C3A 8153   3.229   7.700   8.816  0.0638 -0.0571  0.1304
  510loPI   C4A 8154   3.182   7.428   8.509 -0.1166  0.0289 -0.1983
  510loPI   C5A 8155   3.149   7.216   8.125  0.0701 -0.2152  0.2752
  510loPI   C6A 8156   3.076   7.058   7.767  0.1254  0.0618  0.1173
  510loPI   C1B 8157   3.828   7.899   9.607  0.3236  0.0449  0.1555
  510loPI   C2B 8158   3.801   7.839   9.118 -0.1636 -0.0060 -0.0018
  510loPI   C3B 8159   3.641   7.873   8.755 -0.0033  0.2368 -0.1882
  510loPI   C4B 8160   3.555   7.672   8.329 -0.3235 -0.1821  0.1405
  511loPI    C1 8161  16.067  16.267  10.408  0.1429  0.1704 -0.1141
  511loPI    C2 8162  16.046  15.891  10.544  0.1797  0.1522 -0.1587
  511loPI    C3 8163  16.084  16.195  10.801 -0.1721  0.1519 -0.1021
  511loPI   PO4 8164  16.211  16.216  10.045 -0.0478 -0.1065  0.0045
  511loPI   GL1 8165  16.067  16.133   9.617  0.1598 -0.1669 -0.2607
  511loPI   GL2 8166  15.932  16.405   9.549 -0.0219  0.3809 -0.1026
  511loPI   C1A 8167  16.253  16.061   9.260 -0.0945 -0.1264  0.0911
  511loPI   C2A 8168  16.343  15.929   8.902  0.0150 -0.4151 -0.0517
  511loPI   C3A 8169  16.489  15.692   8.512  0.1702  0.1383 -0.0445
  511loPI   C4A 8170  16.523  15.499   8.054 -0.0827 -0.2665  0.0355
  511loPI   C5A 8171  16.289  15.684   7.746  0.1143  0.0037  0.2951
  511loPI   C6A 8172  15.909  15.993   7.712  0.1746 -0.0276 -0.4424
  511loPI   C1B 8173  16.080  16.583   9.205  0.1260 -0.0352  0.1963
  511loPI   C2B 8174  16.274  16.844   8.928  0.0085  0.0689  0.1227
  511loPI   C3B 8175  16.292  17.001   8.477  0.1540  0.0618  0.1423
  511loPI   C4B 8176  16.412  17.010   8.043 -0.1218 -0.3278  0.3094
  512loPI    C1 8177   1.709  15.682   9.757 -0.2958  0.0523  0.0309
  512loPI    C2 8178   1.775  15.475  10.092  0.0992  0.0551 -0.0404
  512loPI    C3 8179   1.512  15.776  10.092  0.0108 -0.0189  0.2352
  512loPI   PO4 8180   1.726  15.552   9.579  0.0919  0.0785  0.0171
  512loPI   GL1 8181   1.861  15.511   9.226  0.2577  0.2643  0.0333
  512loPI   GL2 8182   1.407  15.548   9.122  0.2576 -0.0710  0.1518
  512loPI   C1A 8183   1.981  15.753   8.878 -0.1554 -0.0724 -0.1651
  512loPI   C2A 8184   2.059  15.996   8.551  0.1573 -0.1987 -0.4856
  512loPI   C3A 8185   2.025  16.197   8.296 -0.2845  0.2362  0.0058
  512loPI   C4A 8186   2.188  16.278   7.850 -0.0567 -0.0344 -0.0552
  512loPI   C5A 8187   1.935  16.343   7.508  0.3360 -0.1858 -0.1222
  512loPI   C6A 8188   1.616  16.418   7.445  0.1294 -0.0001 -0.3960
  512loPI   C1B 8189   1.560  15.334   8.857 -0.1939 -0.0241  0.0414
  512loPI   C2B 8190   1.944  15.321   8.562  0.1119  0.1322 -0.1099
  512loPI   C3B 8191   2.007  15.092   8.272 -0.0435  0.1656  0.0905
  512loPI   C4B 8192   2.255  14.734   8.195 -0.0561  0.0010 -0.2464
  513loPI    C1 8193  18.278   3.733   9.965  0.0544 -0.3712  0.1792
  513loPI    C2 8194  18.510   3.846  10.271 -0.1219  0.4390  0.0379
  513loPI    C3 8195  18.115   3.900  10.289 -0.2125 -0.1135 -0.0820
  513loPI   PO4 8196  18.486   3.788   9.730 -0.2341 -0.2320 -0.0575
  513loPI   GL1 8197  18.552   3.680   9.347 -0.3603 -0.1253  0.0091
  513loPI   GL2 8198  18.493   3.426   9.191 -0.0701 -0.1216 -0.2357
  513loPI   C1A 8199  18.869   3.711   8.947 -0.0389  0.0262  0.0641
  513loPI   C2A 8200  18.856   3.662   8.526 -0.1492 -0.2998 -0.2809
  513loPI   C3A 8201  18.944   3.619   8.130  0.0598  0.1271  0.1263
  513loPI   C4A 8202  18.888   3.592   7.775  0.0146 -0.1033 -0.0421
  513loPI   C5A 8203  19.090   3.492   7.482  0.1577  0.1828 -0.0772
  513loPI   C6A 8204  19.458   3.118   7.414  0.1968 -0.0051  0.1411
  513loPI   C1B 8205  18.408   3.654   8.770  0.2052 -0.2422 -0.0521
  513loPI   C2B 8206  18.391   3.895   8.393 -0.1500 -0.0871 -0.2841
  513loPI   C3B 8207  18.470   3.981   8.023 -0.4104 -0.3268 -0.1738
  513loPI   C4B 8208  18.306   3.987   7.671  0.0759 -0.3837 -0.2398
  514loPI    C1 8209   7.042   3.454  11.199  0.0069 -0.0225 -0.0481
  514loPI    C2 8210   6.974   3.786  11.412  0.0604 -0.0494  0.0111
  514loPI    C3 8211   7.138   3.465  11.587 -0.1003 -0.1482 -0.0169
  514loPI   PO4 8212   7.033   3.582  10.927  0.3984  0.1625 -0.2633
  514loPI   GL1 8213   7.127   3.610  10.509 -0.1394  0.1207  0.0340
  514loPI   GL2 8214   7.289   3.860  10.548  0.2950 -0.1597  0.0507
  514loPI   C1A 8215   6.862   3.677  10.161 -0.1900  0.0005  0.0013
  514loPI   C2A 8216   6.734   3.697   9.691  0.1301 -0.2092  0.1502
  514loPI   C3A 8217   6.707   3.723   9.249 -0.1937 -0.2081 -0.2468
  514loPI   C4A 8218   6.773   3.765   8.786  0.2608  0.1168 -0.0331
  514loPI   C5A 8219   6.722   3.734   8.321  0.3881  0.1574  0.0422
  514loPI   C6A 8220   6.772   3.488   7.871 -0.0505  0.0792  0.0805
  514loPI   C1B 8221   7.294   3.936  10.125  0.1658 -0.3445  0.0116
  514loPI   C2B 8222   7.111   4.075   9.746 -0.0526 -0.0748  0.3635
  514loPI   C3B 8223   6.815   4.218   9.451  0.0332 -0.2669 -0.1068
  514loPI   C4B 8224   6.799   4.290   9.020 -0.1632  0.0682  0.1956
  515loPI    C1 8225   6.024  10.110  10.438 -0.0539 -0.2420  0.1726
  515loPI    C2 8226   6.300  10.364  10.579 -0.0950 -0.0993 -0.0004
  515loPI    C3 8227   6.006  10.235  10.818  0.0642 -0.1749  0.1565
  515loPI   PO4 8228   6.095  10.170  10.170 -0.1414  0.2162  0.2472
  515loPI   GL1 8229   6.140  10.354   9.790 -0.0397  0.0264  0.0276
  515loPI   GL2 8230   6.335  10.644   9.758  0.0923  0.0506 -0.0168
  515loPI   C1A 8231   6.411  10.274   9.436 -0.1210  0.1530 -0.2384
  515loPI   C2A 8232   6.485   9.943   9.039  0.1670 -0.1790 -0.2769
  515loPI   C3A 8233   6.749   9.749   8.893  0.2208 -0.0104  0.2854
  515loPI   C4A 8234   6.734   9.628   8.397 -0.0973  0.0118 -0.3529
  515loPI   C5A 8235   6.539   9.395   8.044  0.1596 -0.1646 -0.1378
  515loPI   C6A 8236   6.396   8.921   7.893  0.1047  0.2256 -0.2661
  515loPI   C1B 8237   6.491  10.724   9.319  0.1060  0.2375 -0.2388
  515loPI   C2B 8238   6.498  10.674   8.851  0.1067  0.1672 -0.0802
  515loPI   C3B 8239   6.705  10.654   8.420  0.3647 -0.3350 -0.0532
  515loPI   C4B 8240   6.813  10.919   8.111  0.0520 -0.0319 -0.0424
  516loPI    C1 8241   1.208   3.030  10.143 -0.2725  0.0113 -0.2533
  516loPI    C2 8242   0.995   3.217  10.426 -0.0463  0.1839 -0.1941
  516loPI    C3 8243   1.273   2.949  10.529  0.0926  0.3063 -0.2475
  516loPI   PO4 8244   1.299   3.149   9.949  0.1814 -0.1370 -0.3821
  516loPI   GL1 8245   1.318   3.555   9.585 -0.2306 -0.0342  0.2892
  516loPI   GL2 8246   1.658   3.359   9.717 -0.0504  0.0202 -0.0169
  516loPI   C1A 8247   1.415   3.822   9.344  0.1730  0.2612 -0.4385
  516loPI   C2A 8248   1.359   3.903   8.950 -0.1710 -0.1394  0.0065
  516loPI   C3A 8249   1.378   3.775   8.541 -0.0149 -0.1329  0.0996
  516loPI   C4A 8250   1.540   3.785   8.070 -0.3482 -0.0109  0.0299
  516loPI   C5A 8251   1.397   3.820   7.598 -0.0776 -0.0081  0.0908
  516loPI   C6A 8252   1.236   3.884   7.238  0.2573 -0.1477 -0.0494
  516loPI   C1B 8253   1.747   3.477   9.322 -0.4781  0.1541 -0.0976
  516loPI   C2B 8254   1.749   3.533   8.876 -0.2508 -0.0761 -0.1635
  516loPI   C3B 8255   1.850   3.544   8.452  0.1234  0.2779 -0.0476
  516loPI   C4B 8256   1.960   3.528   7.950 -0.0726  0.1882 -0.3917
  517loPI    C1 8257   6.134   0.035  10.368  0.0354 -0.2407 -0.0881
  517loPI    C2 8258   6.086  -0.165  10.711  0.1594  0.3646  0.2991
  517loPI    C3 8259   6.447  -0.144  10.540  0.0244 -0.2721 -0.1006
  517loPI   PO4 8260   5.906   0.137  10.329 -0.2890  0.0820 -0.2939
  517loPI   GL1 8261   5.773   0.561  10.130  0.2336 -0.1890 -0.1688
  517loPI   GL2 8262   6.054   0.762  10.092 -0.1762  0.4000  0.1012
  517loPI   C1A 8263   5.825   0.556   9.642  0.0353 -0.1831 -0.1461
  517loPI   C2A 8264   5.784   0.485   9.158 -0.0035  0.2768 -0.1775
  517loPI   C3A 8265   5.775   0.537   8.685  0.1838  0.0622 -0.0013
  517loPI   C4A 8266   5.815   0.614   8.297  0.1005 -0.0338  0.0400
  517loPI   C5A 8267   6.180   0.547   7.951  0.2957  0.5360  0.0285
  517loPI   C6A 8268   6.341   0.344   7.622  0.1799  0.3244 -0.1833
  517loPI   C1B 8269   6.159   0.876   9.739 -0.1508 -0.1185 -0.3680
  517loPI   C2B 8270   6.199   0.805   9.311  0.0315  0.1295  0.3293
  517loPI   C3B 8271   6.278   0.748   8.839 -0.0041 -0.0757 -0.1593
  517loPI   C4B 8272   6.276   0.871   8.277 -0.0275 -0.2049 -0.1373
  518loPI    C1 8273   0.902  18.075  10.123  0.1732 -0.0796  0.1221
  518loPI    C2 8274   0.854  17.709  10.278  0.4235 -0.1063  0.1404
  518loPI    C3 8275   1.043  17.992  10.488 -0.0567  0.1347  0.2632
  518loPI   PO4 8276   1.004  18.058   9.869  0.3126  0.0774  0.2393
  518loPI   GL1 8277   1.047  18.282   9.629  0.0530 -0.0419  0.1633
  518loPI   GL2 8278   0.909  18.361   9.411 -0.3715 -0.0341  0.0048
  518loPI   C1A 8279   1.342  18.433   9.221  0.1406  0.1092  0.1255
  518loPI   C2A 8280   1.259  18.495   8.712  0.0932 -0.2359  0.0525
  518loPI   C3A 8281   1.146  18.309   8.412  0.0679  0.0614 -0.0497
  518loPI   C4A 8282   1.224  18.052   8.061 -0.0284 -0.2141  0.1904
  518loPI   C5A 8283   1.190  17.971   7.610  0.1207 -0.0082 -0.0651
  518loPI   C6A 8284   1.330  17.573   7.374  0.1916  0.2311  0.2043
  518loPI   C1B 8285   1.013  18.173   8.977 -0.0612  0.2321  0.3312
  518loPI   C2B 8286   0.761  18.066   8.653  0.3863 -0.3016  0.2753
  518loPI   C3B 8287   0.744  17.971   8.218  0.4649 -0.0263 -0.3032
  518loPI   C4B 8288   0.828  17.710   7.845 -0.1005  0.2290  0.1475
  519loPI    C1 8289  16.040   9.420  10.202 -0.1934  0.1069  0.1336
  519loPI    C2 8290  15.720   9.191  10.128 -0.0946  0.0002  0.0321
  519loPI    C3 8291  15.930   9.140  10.465  0.0507 -0.2031 -0.0874
  519loPI   PO4 8292  16.035   9.636  10.075  0.2589  0.0612  0.0519
  519loPI   GL1 8293  15.957   9.442   9.671  0.3607 -0.0699 -0.1037
  519loPI   GL2 8294  15.729   9.309   9.635 -0.0609  0.3683  0.1367
  519loPI   C1A 8295  16.031   9.664   9.296  0.1762  0.0947 -0.1982
  519loPI   C2A 8296  16.285   9.486   9.017 -0.1464  0.0698  0.0046
  519loPI   C3A 8297  16.618   9.341   8.706 -0.1748 -0.1118  0.0728
  519loPI   C4A 8298  16.747   9.144   8.257  0.2350 -0.1216 -0.2298
  519loPI   C5A 8299  16.768   9.126   7.969  0.1820 -0.3490  0.1290
  519loPI   C6A 8300  16.960   9.283   7.670 -0.1133  0.0147  0.3475
  519loPI   C1B 8301  15.875   9.158   9.217  0.0476 -0.0706  0.0334
  519loPI   C2B 8302  15.847   9.450   8.814  0.2873 -0.0167  0.2876
  519loPI   C3B 8303  15.600   9.710   8.654  0.0928  0.2107  0.1652
  519loPI   C4B 8304  15.403   9.998   8.952  0.2354  0.0785  0.1237
  520loPI    C1 8305  12.592  17.926  10.412 -0.0283 -0.0010 -0.2560
  520loPI    C2 8306  12.710  18.260  10.224  0.0513  0.1380  0.0350
  520loPI    C3 8307  12.968  18.058  10.454 -0.0664  0.0135  0.0590
  520loPI   PO4 8308  12.411  17.860  10.203 -0.4308 -0.1739  0.0957
  520loPI   GL1 8309  12.397  17.982   9.736 -0.0020 -0.2274  0.2574
  520loPI   GL2 8310  12.029  18.239   9.806  0.0492  0.2438  0.2180
  520loPI   C1A 8311  12.195  18.093   9.225 -0.0308 -0.1147 -0.1655
  520loPI   C2A 8312  12.186  18.165   8.837 -0.2157 -0.1004  0.0244
  520loPI   C3A 8313  12.350  18.063   8.443  0.1534  0.1272  0.3611
  520loPI   C4A 8314  12.334  18.138   7.911 -0.1820 -0.1733 -0.0571
  520loPI   C5A 8315  12.245  18.015   7.477  0.2346  0.2938 -0.0583
  520loPI   C6A 8316  12.436  17.993   7.168 -0.0169  0.0814  0.0200
  520loPI   C1B 8317  11.813  18.355   9.483 -0.0681 -0.1431 -0.3220
  520loPI   C2B 8318  11.793  18.501   9.081 -0.0811 -0.0246 -0.2473
  520loPI   C3B 8319  11.709  18.460   8.754 -0.0232  0.0755 -0.1365
  520loPI   C4B 8320  11.830  18.258   8.415 -0.3071  0.1976  0.0872
  521loPI    C1 8321  14.528  12.487   9.727  0.0276  0.0135  0.2678
  521loPI    C2 8322  14.829  12.237   9.643 -0.1380 -0.0851 -0.0494
  521loPI    C3 8323  14.878  12.525   9.917  0.0719 -0.4311  0.2862
  521loPI   PO4 8324  14.533  12.603   9.498  0.2794 -0.2966  0.1522
  521loPI   GL1 8325  14.564  12.806   9.140 -0.0457 -0.0631  0.1125
  521loPI   GL2 8326  14.728  13.042   9.209 -0.2554 -0.1963  0.2043
  521loPI   C1A 8327  14.466  13.164   8.839  0.0736  0.1842  0.2307
  521loPI   C2A 8328  14.324  13.247   8.432 -0.1760  0.0126 -0.1303
  521loPI   C3A 8329  14.116  13.365   8.060 -0.2865 -0.0422 -0.3546
  521loPI   C4A 8330  13.984  13.279   7.694  0.1516 -0.3878 -0.0279
  521loPI   C5A 8331  13.687  13.163   7.316  0.0492 -0.0077  0.2083
  521loPI   C6A 8332  13.578  13.017   6.991 -0.2238  0.3069 -0.1382
  521loPI   C1B 8333  14.975  13.175   8.873 -0.2162  0.1718  0.2604
  521loPI   C2B 8334  15.325  13.094   8.614  0.2940 -0.0256 -0.0787
  521loPI   C3B 8335  15.500  13.067   8.233  0.2264 -0.2000  0.2018
  521loPI   C4B 8336  15.432  13.128   7.732 -0.1968 -0.1799  0.2493
  522loPI    C1 8337  13.295  18.830  10.420 -0.2067  0.2625  0.0495
  522loPI    C2 8338  13.362  18.723  10.800 -0.1771 -0.0488 -0.0409
  522loPI    C3 8339  13.333  19.110  10.703  0.1310  0.0452  0.2255
  522loPI   PO4 8340  13.155  18.715  10.261 -0.1397 -0.2238  0.2789
  522loPI   GL1 8341  13.124  18.468   9.915 -0.1405 -0.4099 -0.0529
  522loPI   GL2 8342  12.923  18.147   9.792  0.3883 -0.1387  0.0259
  522loPI   C1A 8343  13.044  18.649   9.535  0.0149 -0.3763 -0.1204
  522loPI   C2A 8344  13.106  18.809   9.096 -0.3883 -0.4043  0.1540
  522loPI   C3A 8345  13.032  18.782   8.728 -0.0610  0.1449  0.2266
  522loPI   C4A 8346  13.096  18.734   8.360  0.1979 -0.0694 -0.0898
  522loPI   C5A 8347  13.097  18.625   8.052  0.0218  0.2476 -0.0283
  522loPI   C6A 8348  13.214  18.528   7.664  0.0309  0.0546  0.3012
  522loPI   C1B 8349  12.802  17.929   9.414 -0.1404  0.0417  0.2805
  522loPI   C2B 8350  12.760  17.948   8.977 -0.0158  0.2261  0.1125
  522loPI   C3B 8351  12.746  17.799   8.537  0.0701 -0.2320 -0.1174
  522loPI   C4B 8352  12.686  17.817   8.114  0.2051 -0.1422  0.3057
  523loPI    C1 8353   9.808   4.279  11.108  0.1220 -0.0543 -0.2586
  523loPI    C2 8354   9.464   4.127  11.246  0.3635 -0.1408  0.2729
  523loPI    C3 8355   9.486   4.514  11.144 -0.0059 -0.2361 -0.2040
  523loPI   PO4 8356   9.807   4.165  10.881  0.1114 -0.1149  0.1971
  523loPI   GL1 8357   9.700   4.380  10.455  0.0560  0.0424  0.1809
  523loPI   GL2 8358   9.613   4.102  10.402 -0.2226  0.0460  0.1466
  523loPI   C1A 8359   9.467   4.584  10.116 -0.0650  0.0676 -0.0540
  523loPI   C2A 8360   9.414   4.633   9.651  0.0151  0.0241  0.3036
  523loPI   C3A 8361   9.494   4.587   9.233  0.1849  0.0805  0.2446
  523loPI   C4A 8362   9.475   4.617   8.909  0.1280 -0.1136  0.0439
  523loPI   C5A 8363   9.188   4.466   8.659  0.0232  0.1203 -0.2396
  523loPI   C6A 8364   9.002   4.154   8.429  0.1155  0.0179  0.2765
  523loPI   C1B 8365   9.512   4.079   9.903  0.0939  0.0979 -0.1742
  523loPI   C2B 8366   9.482   4.117   9.383  0.0206 -0.1087 -0.0646
  523loPI   C3B 8367   9.473   4.054   8.972  0.1330  0.0738  0.1846
  523loPI   C4B 8368   9.489   4.075   8.554  0.0274 -0.2275 -0.1724
  524loPI    C1 8369   2.632   8.513  10.256 -0.4191  0.2982 -0.1421
  524loPI    C2 8370   2.539   8.174  10.446 -0.2698  0.1468 -0.3346
  524loPI    C3 8371   2.628   8.503  10.656 -0.0933 -0.0203 -0.1417
  524loPI   PO4 8372   2.818   8.468  10.165  0.0138 -0.1545  0.2973
  524loPI   GL1 8373   2.767   8.527   9.729  0.2494  0.0357  0.1160
  524loPI   GL2 8374   2.592   8.837   9.776  0.0776 -0.0677 -0.1718
  524loPI   C1A 8375   2.608   8.512   9.299  0.2306 -0.5252  0.4357
  524loPI   C2A 8376   2.672   8.397   8.865 -0.0791 -0.2033 -0.0142
  524loPI   C3A 8377   2.651   8.251   8.451  0.0128  0.0318 -0.2430
  524loPI   C4A 8378   2.695   8.052   8.139  0.0874  0.2788  0.0559
  524loPI   C5A 8379   2.889   7.963   7.700 -0.0053 -0.2482  0.0319
  524loPI   C6A 8380   3.067   8.262   7.432  0.1931 -0.2049 -0.0040
  524loPI   C1B 8381   2.426   8.981   9.434 -0.3313  0.1299  0.0128
  524loPI   C2B 8382   2.318   8.813   9.039 -0.1376 -0.1143 -0.3393
  524loPI   C3B 8383   2.374   8.754   8.555 -0.0690 -0.0386 -0.1270
  524loPI   C4B 8384   2.454   8.670   8.114 -0.2550 -0.1612  0.0086
  525loPI    C1 8385  18.309   4.805   9.902 -0.0830  0.1596  0.0838
  525loPI    C2 8386  18.111   4.822  10.249 -0.0680 -0.0429  0.1039
  525loPI    C3 8387  18.511   4.807  10.248 -0.0649  0.0332  0.0746
  525loPI   PO4 8388  18.227   4.610   9.789  0.0227 -0.3656 -0.1140
  525loPI   GL1 8389  18.405   4.380   9.445 -0.2115  0.1182  0.1981
  525loPI   GL2 8390  18.588   4.643   9.396 -0.2126 -0.3599  0.0798
  525loPI   C1A 8391  18.592   4.155   9.114  0.1202 -0.0961  0.0384
  525loPI   C2A 8392  18.873   4.151   8.743 -0.0997  0.1986  0.2471
  525loPI   C3A 8393  19.249   3.929   8.705  0.2186 -0.3049 -0.0866
  525loPI   C4A 8394  19.355   3.814   8.288 -0.1966 -0.0752 -0.1425
  525loPI   C5A 8395  19.374   3.772   7.898  0.2567 -0.3597 -0.3093
  525loPI   C6A 8396  19.566   3.779   7.431  0.2942 -0.2274 -0.0028
  525loPI   C1B 8397  18.733   4.609   8.994  0.0060 -0.1154 -0.0370
  525loPI   C2B 8398  18.883   4.749   8.470  0.1535  0.1944 -0.0314
  525loPI   C3B 8399  18.946   4.693   7.977 -0.0193  0.0863  0.2141
  525loPI   C4B 8400  18.945   4.832   7.566 -0.1440  0.0917  0.0672
  526loPI    C1 8401   2.488   6.920  10.652 -0.1708 -0.1841  0.0655
  526loPI    C2 8402   2.264   7.121  10.916  0.1025 -0.0403  0.1913
  526loPI    C3 8403   2.427   6.770  11.017  0.0769 -0.0616  0.1590
  526loPI   PO4 8404   2.423   6.907  10.423  0.2750  0.0195 -0.2495
  526loPI   GL1 8405   2.552   6.926  10.013 -0.0346  0.0364  0.2300
  526loPI   GL2 8406   2.542   7.213   9.827  0.0190 -0.3557  0.0982
  526loPI   C1A 8407   2.459   6.761   9.510 -0.0952 -0.1772 -0.0577
  526loPI   C2A 8408   2.786   6.735   9.174  0.1668  0.0870  0.1177
  526loPI   C3A 8409   2.761   6.853   8.720  0.1188 -0.0996  0.2267
  526loPI   C4A 8410   2.932   6.859   8.399  0.2498 -0.0253 -0.2858
  526loPI   C5A 8411   2.944   6.642   8.120 -0.0817  0.0024 -0.1667
  526loPI   C6A 8412   2.995   6.316   7.772 -0.0863 -0.0771 -0.1563
  526loPI   C1B 8413   2.711   7.227   9.331  0.2788 -0.1559 -0.1688
  526loPI   C2B 8414   2.720   7.277   8.887  0.0683 -0.0032 -0.0715
  526loPI   C3B 8415   2.594   7.272   8.458  0.2532 -0.4017 -0.0237
  526loPI   C4B 8416   2.592   7.113   7.994  0.2460  0.0783  0.0665
  527loPI    C1 8417   6.578   6.951  10.703 -0.0522 -0.0329 -0.1357
  527loPI    C2 8418   6.697   7.031  11.077 -0.2485  0.2546 -0.1324
  527loPI    C3 8419   6.674   6.652  10.952  0.2553  0.1736  0.0001
  527loPI   PO4 8420   6.484   7.093  10.607 -0.1858  0.1043 -0.1039
  527loPI   GL1 8421   6.195   7.025  10.329 -0.1567  0.2547 -0.3147
  527loPI   GL2 8422   6.241   7.315  10.158  0.0027  0.0731 -0.2075
  527loPI   C1A 8423   6.250   6.850   9.990  0.2256  0.1900 -0.2285
  527loPI   C2A 8424   6.191   6.707   9.584  0.0324 -0.1645  0.1803
  527loPI   C3A 8425   6.164   6.724   9.164 -0.1183  0.0712  0.0093
  527loPI   C4A 8426   6.168   6.968   8.682 -0.0558 -0.1380 -0.3724
  527loPI   C5A 8427   6.134   7.327   8.388 -0.0456  0.0129 -0.1395
  527loPI   C6A 8428   6.247   7.560   8.085 -0.4435  0.2344  0.1317
  527loPI   C1B 8429   6.219   7.224   9.628 -0.5203  0.1068 -0.2427
  527loPI   C2B 8430   6.278   7.254   9.157  0.0779 -0.1732 -0.0342
  527loPI   C3B 8431   6.273   7.524   8.840 -0.0963 -0.1100 -0.1315
  527loPI   C4B 8432   6.282   7.792   8.592 -0.0517 -0.3059  0.0851
  528loPI    C1 8433  17.287   5.687  10.324 -0.1999  0.1797 -0.3134
  528loPI    C2 8434  16.934   5.500  10.309 -0.0648 -0.1267  0.1265
  528loPI    C3 8435  17.030   5.718  10.630  0.2290 -0.2175  0.1025
  528loPI   PO4 8436  17.246   5.990  10.126  0.0870 -0.1020 -0.0984
  528loPI   GL1 8437  17.176   6.197   9.703  0.2810 -0.1053 -0.2312
  528loPI   GL2 8438  17.399   5.937   9.559 -0.0522 -0.0999  0.4559
  528loPI   C1A 8439  17.007   6.298   9.296  0.1039  0.1187 -0.0940
  528loPI   C2A 8440  16.730   6.176   9.045  0.1643 -0.1494  0.1654
  528loPI   C3A 8441  16.553   5.948   8.708  0.0659  0.2242  0.1375
  528loPI   C4A 8442  16.559   5.919   8.262  0.0791 -0.0818 -0.0491
  528loPI   C5A 8443  16.389   6.026   7.854 -0.0453 -0.1030 -0.4852
  528loPI   C6A 8444  16.501   5.760   7.480  0.0967 -0.0553 -0.0880
  528loPI   C1B 8445  17.803   5.930   9.400 -0.2788 -0.0863 -0.0705
  528loPI   C2B 8446  18.144   5.845   8.985 -0.1806 -0.0084 -0.0908
  528loPI   C3B 8447  18.375   5.868   8.538  0.3195 -0.1442 -0.2651
  528loPI   C4B 8448  18.484   5.904   8.112 -0.2145  0.1029  0.0638
  529loPI    C1 8449  16.531   1.607  10.200  0.3224  0.0927  0.1123
  529loPI    C2 8450  16.219   1.378  10.302  0.2593  0.1001 -0.0615
  529loPI    C3 8451  16.451   1.538  10.586  0.3028 -0.1766  0.0621
  529loPI   PO4 8452  16.415   1.623   9.876 -0.2426  0.1422 -0.0051
  529loPI   GL1 8453  16.607   1.433   9.440 -0.1072 -0.0615 -0.0131
  529loPI   GL2 8454  16.952   1.528   9.512  0.1076 -0.4778 -0.1464
  529loPI   C1A 8455  16.638   1.328   8.940  0.1792 -0.0569 -0.1497
  529loPI   C2A 8456  16.653   1.049   8.626 -0.0179 -0.2216  0.0276
  529loPI   C3A 8457  16.756   1.176   8.155  0.2249  0.0214 -0.5277
  529loPI   C4A 8458  16.971   1.512   7.860  0.1082 -0.1252 -0.0954
  529loPI   C5A 8459  17.316   1.675   7.537 -0.0146 -0.2134  0.1851
  529loPI   C6A 8460  17.257   1.969   7.235  0.0998  0.2216  0.2040
  529loPI   C1B 8461  17.065   1.385   9.192 -0.0112  0.0858  0.0149
  529loPI   C2B 8462  17.102   1.305   8.774 -0.1235 -0.3002 -0.1585
  529loPI   C3B 8463  17.104   1.576   8.436  0.0818 -0.1143  0.2584
  529loPI   C4B 8464  17.355   1.697   8.115  0.3568 -0.1179  0.0159
  530loPI    C1 8465  14.151   7.496   9.916 -0.1273 -0.1331 -0.0181
  530loPI    C2 8466  14.270   7.325  10.257  0.1732  0.0428 -0.0310
  530loPI    C3 8467  14.425   7.205   9.908  0.2096  0.1777 -0.0618
  530loPI   PO4 8468  13.860   7.563   9.865 -0.0772 -0.0656 -0.0489
  530loPI   GL1 8469  13.575   7.683   9.549  0.0893 -0.0105  0.0296
  530loPI   GL2 8470  13.768   7.538   9.296 -0.3457  0.1760 -0.2484
  530loPI   C1A 8471  13.283   7.663   9.153 -0.0187 -0.0177  0.0773
  530loPI   C2A 8472  13.028   7.668   8.801  0.5860  0.4106  0.4182
  530loPI   C3A 8473  13.007   7.934   8.513 -0.2515  0.0878  0.1253
  530loPI   C4A 8474  12.880   8.047   8.101  0.0864 -0.3713 -0.2167
  530loPI   C5A 8475  12.983   7.890   7.738 -0.0990 -0.0986  0.0032
  530loPI   C6A 8476  13.275   7.662   7.569 -0.2046 -0.5543 -0.0000
  530loPI   C1B 8477  13.587   7.480   8.848  0.0965  0.1095  0.0155
  530loPI   C2B 8478  13.452   7.606   8.507 -0.0034  0.0526  0.0371
  530loPI   C3B 8479  13.334   7.835   8.095 -0.1564  0.1153  0.1169
  530loPI   C4B 8480  13.342   8.236   7.966 -0.1798 -0.1983 -0.0770
  531loPI    C1 8481   0.480  18.395   9.674  0.1254 -0.0747  0.1107
  531loPI    C2 8482   0.570  18.422  10.063 -0.0606  0.2078  0.1371
  531loPI    C3 8483   0.752  18.661   9.799  0.0375  0.0428  0.0538
  531loPI   PO4 8484   0.167  18.361   9.712  0.0411  0.1352 -0.0371
  531loPI   GL1 8485  -0.057  18.681   9.480  0.1681  0.0159  0.2165
  531loPI   GL2 8486   0.055  18.429   9.232  0.1589  0.0700  0.0289
  531loPI   C1A 8487  -0.163  18.797   8.988 -0.0539  0.1212  0.0505
  531loPI   C2A 8488  -0.236  18.595   8.714 -0.1107 -0.0061 -0.1960
  531loPI   C3A 8489   0.044  18.597   8.379 -0.0576  0.1412  0.0946
  531loPI   C4A 8490   0.143  18.549   7.970 -0.0079  0.0026 -0.1961
  531loPI   C5A 8491  -0.089  18.301   7.649 -0.2415  0.1444  0.0798
  531loPI   C6A 8492  -0.004  17.938   7.547  0.0423  0.1863 -0.0926
  531loPI   C1B 8493   0.309  18.409   8.885  0.1591  0.0324 -0.1517
  531loPI   C2B 8494   0.422  18.274   8.364  0.2873 -0.1826  0.1330
  531loPI   C3B 8495   0.735  18.488   8.093  0.1237 -0.0815  0.0897
  531loPI   C4B 8496   0.768  18.268   7.741  0.0237 -0.2831  0.0538
  532loPI    C1 8497  15.620   1.816  10.120 -0.0729  0.1021 -0.0366
  532loPI    C2 8498  15.500   1.796  10.501 -0.1658 -0.3559 -0.0845
  532loPI    C3 8499  15.234   1.866  10.211 -0.0561  0.2598 -0.0492
  532loPI   PO4 8500  15.806   1.609   9.980 -0.0780  0.1288  0.3403
  532loPI   GL1 8501  16.084   1.444   9.578  0.0235  0.1078  0.0126
  532loPI   GL2 8502  15.896   1.675   9.488  0.0328  0.0929 -0.0825
  532loPI   C1A 8503  16.164   1.167   9.333 -0.3311 -0.0913 -0.0221
  532loPI   C2A 8504  16.182   1.138   8.916  0.0604 -0.0974 -0.0990
  532loPI   C3A 8505  16.245   1.262   8.410  0.4317 -0.1317 -0.1640
  532loPI   C4A 8506  16.251   1.386   8.042 -0.2215  0.0608 -0.0305
  532loPI   C5A 8507  16.239   1.675   7.658 -0.0613 -0.1411  0.1287
  532loPI   C6A 8508  16.210   1.710   7.236 -0.1203  0.0036  0.3061
  532loPI   C1B 8509  15.570   1.776   9.195 -0.0132 -0.2485  0.1363
  532loPI   C2B 8510  15.632   1.867   8.760  0.0742  0.4658  0.0652
  532loPI   C3B 8511  15.544   2.017   8.354  0.1502 -0.1313  0.0862
  532loPI   C4B 8512  15.463   1.913   7.970 -0.2563  0.3858  0.0822
  533loPI    C1 8513   4.039   4.018  10.529 -0.1937  0.3181  0.2129
  533loPI    C2 8514   3.822   3.816  10.797 -0.0149 -0.0499  0.0860
  533loPI    C3 8515   4.149   4.015  10.913  0.0112 -0.1335  0.1570
  533loPI   PO4 8516   4.107   3.816  10.329 -0.3560  0.2660  0.2955
  533loPI   GL1 8517   3.929   3.555  10.071  0.1612 -0.1895  0.0243
  533loPI   GL2 8518   4.027   3.808   9.853  0.0970 -0.1259 -0.0326
  533loPI   C1A 8519   3.924   3.303   9.571  0.0550  0.0888 -0.1321
  533loPI   C2A 8520   4.043   3.306   9.063 -0.1351  0.1927 -0.2624
  533loPI   C3A 8521   4.077   3.168   8.626 -0.0638  0.2520  0.0173
  533loPI   C4A 8522   4.182   3.204   8.212 -0.1235  0.3482  0.0662
  533loPI   C5A 8523   4.080   3.125   7.785 -0.0355  0.0691  0.0698
  533loPI   C6A 8524   3.989   3.060   7.363  0.4127 -0.0465  0.2464
  533loPI   C1B 8525   3.896   3.846   9.487  0.1154  0.0086  0.1079
  533loPI   C2B 8526   4.041   3.814   9.102  0.2667 -0.1491  0.2387
  533loPI   C3B 8527   4.082   3.687   8.692  0.2670  0.1587  0.2614
  533loPI   C4B 8528   4.086   3.624   8.283  0.2075 -0.2057 -0.0121
  534loPI    C1 8529   6.827   5.670  11.375  0.0379 -0.1235 -0.1815
  534loPI    C2 8530   6.461   5.537  11.288 -0.0074 -0.1064 -0.0198
  534loPI    C3 8531   6.616   5.473  11.652  0.0719  0.0573 -0.0242
  534loPI   PO4 8532   6.951   5.614  11.098  0.0722 -0.0544  0.2577
  534loPI   GL1 8533   6.853   5.422  10.591  0.1463  0.0264 -0.0521
  534loPI   GL2 8534   6.634   5.231  10.486 -0.2649  0.0489  0.0457
  534loPI   C1A 8535   7.040   5.309  10.222  0.0850  0.1454  0.0658
  534loPI   C2A 8536   7.119   5.294   9.779 -0.0939  0.1775  0.1508
  534loPI   C3A 8537   7.146   5.106   9.381 -0.0273  0.1601 -0.1336
  534loPI   C4A 8538   6.943   5.276   9.064 -0.1052 -0.2140 -0.1599
  534loPI   C5A 8539   6.988   5.566   8.775  0.0614 -0.1895  0.1141
  534loPI   C6A 8540   7.051   5.815   8.418 -0.4061  0.1658 -0.0790
  534loPI   C1B 8541   6.605   5.038  10.096  0.1366  0.0385 -0.0977
  534loPI   C2B 8542   6.695   5.084   9.644  0.1208  0.0683  0.2429
  534loPI   C3B 8543   6.811   4.779   9.290  0.2910 -0.0262 -0.0804
  534loPI   C4B 8544   7.140   4.842   8.977  0.2126 -0.1804  0.1215
  535loPI    C1 8545   8.572  16.073  10.382 -0.0623  0.0988  0.0703
  535loPI    C2 8546   8.637  15.761  10.623 -0.1895  0.0497  0.0420
  535loPI    C3 8547   8.502  16.106  10.774  0.1924  0.1740  0.1113
  535loPI   PO4 8548   8.522  15.965  10.143  0.3520  0.4357  0.1520
  535loPI   GL1 8549   8.689  16.082   9.640  0.0244  0.3983 -0.1126
  535loPI   GL2 8550   8.371  16.195   9.613  0.3118 -0.0008  0.2169
  535loPI   C1A 8551   8.529  15.993   9.155 -0.0444 -0.4968 -0.2568
  535loPI   C2A 8552   8.356  16.347   8.940 -0.0448 -0.1788  0.0954
  535loPI   C3A 8553   8.662  16.281   8.638  0.1369  0.2338  0.2022
  535loPI   C4A 8554   8.947  16.339   8.251 -0.3811  0.0994 -0.2087
  535loPI   C5A 8555   8.947  16.687   7.941  0.0073  0.0236 -0.1790
  535loPI   C6A 8556   8.855  16.842   7.536 -0.5804  0.0179 -0.0255
  535loPI   C1B 8557   7.937  16.295   9.248  0.0066  0.2343  0.1624
  535loPI   C2B 8558   7.730  16.442   8.909  0.2239  0.3168  0.1723
  535loPI   C3B 8559   7.611  16.647   8.562  0.1498 -0.1689 -0.2925
  535loPI   C4B 8560   7.720  17.021   8.379 -0.2197 -0.1949 -0.0798
  536loPI    C1 8561   8.949  18.426  10.461  0.0944 -0.2594 -0.1543
  536loPI    C2 8562   9.048  18.040  10.431  0.1170 -0.2578 -0.1032
  536loPI    C3 8563   9.048  18.220  10.789  0.2150 -0.1812 -0.1411
  536loPI   PO4 8564   8.816  18.421  10.163  0.1023 -0.1533 -0.0027
  536loPI   GL1 8565   8.811  18.394   9.695 -0.2705 -0.2464  0.1182
  536loPI   GL2 8566   9.142  18.542   9.601  0.0189  0.1635 -0.1570
  536loPI   C1A 8567   8.694  18.441   9.237 -0.4321  0.1553  0.0052
  536loPI   C2A 8568   8.680  18.154   8.907 -0.0399 -0.0618  0.1793
  536loPI   C3A 8569   8.706  17.887   8.545 -0.1567  0.3595 -0.0533
  536loPI   C4A 8570   8.980  17.630   8.224 -0.2207  0.1739  0.0215
  536loPI   C5A 8571   8.991  17.813   7.904  0.1164  0.2241 -0.0985
  536loPI   C6A 8572   8.916  18.199   7.670 -0.0507  0.1852 -0.4191
  536loPI   C1B 8573   9.438  18.637   9.278  0.1619  0.0562  0.1811
  536loPI   C2B 8574   9.582  18.966   9.051  0.1286  0.0754 -0.2495
  536loPI   C3B 8575   9.624  18.991   8.583 -0.0700  0.0953  0.0807
  536loPI   C4B 8576   9.886  19.304   8.302 -0.0630  0.0659  0.2672
  537loPI    C1 8577  14.081  12.686   9.688  0.0085  0.0601  0.0172
  537loPI    C2 8578  13.914  12.751  10.046 -0.0398  0.1376 -0.0192
  537loPI    C3 8579  14.308  12.799   9.997  0.0075 -0.1262  0.0876
  537loPI   PO4 8580  14.036  12.505   9.521 -0.2988 -0.2043 -0.0745
  537loPI   GL1 8581  14.161  12.412   9.126 -0.2223  0.4189  0.2124
  537loPI   GL2 8582  14.514  12.171   9.217  0.2226  0.0377  0.0769
  537loPI   C1A 8583  14.360  12.467   8.798  0.2494 -0.0861 -0.0925
  537loPI   C2A 8584  14.519  12.759   8.549 -0.1486 -0.1673  0.2147
  537loPI   C3A 8585  14.838  12.997   8.379 -0.0283  0.2050  0.2233
  537loPI   C4A 8586  15.076  12.951   8.009  0.0037 -0.2202 -0.1098
  537loPI   C5A 8587  15.179  12.651   7.694 -0.0848 -0.3982  0.1093
  537loPI   C6A 8588  15.167  12.812   7.213  0.2980  0.1571  0.1631
  537loPI   C1B 8589  14.788  12.213   8.858  0.0802 -0.0607  0.0529
  537loPI   C2B 8590  14.719  12.185   8.422 -0.0669 -0.4197 -0.2148
  537loPI   C3B 8591  14.610  12.442   8.095 -0.3530  0.0226 -0.3517
  537loPI   C4B 8592  14.297  12.502   7.633  0.1435 -0.1038  0.0253
  538loPI    C1 8593  15.724   9.826  10.445  0.1861  0.3017  0.1088
  538loPI    C2 8594  15.611   9.653  10.788  0.0557 -0.1313 -0.1450
  538loPI    C3 8595  15.975   9.583  10.639  0.1241  0.0821 -0.0826
  538loPI   PO4 8596  15.526   9.687  10.232 -0.2551 -0.0754  0.2180
  538loPI   GL1 8597  15.417   9.777   9.752  0.2901 -0.2016 -0.0460
  538loPI   GL2 8598  15.643   9.911   9.482 -0.1023 -0.1240  0.1161
  538loPI   C1A 8599  15.190  10.076   9.365  0.1107  0.2862 -0.0392
  538loPI   C2A 8600  15.008  10.281   8.998  0.0098 -0.0574 -0.1440
  538loPI   C3A 8601  14.901  10.184   8.521 -0.1307  0.2653  0.0752
  538loPI   C4A 8602  15.071  10.183   8.041  0.2342  0.0175  0.2809
  538loPI   C5A 8603  15.119  10.426   7.779  0.0794 -0.3212  0.1370
  538loPI   C6A 8604  14.893  10.680   7.452 -0.0889 -0.0108  0.2083
  538loPI   C1B 8605  15.515   9.527   9.263  0.1890 -0.0072  0.2346
  538loPI   C2B 8606  15.428   9.209   8.965 -0.0336  0.4256  0.0057
  538loPI   C3B 8607  15.414   9.197   8.603  0.1306 -0.0353  0.0600
  538loPI   C4B 8608  15.829   9.165   8.350  0.0693 -0.1289  0.0867
  539loPI    C1 8609  13.108  10.497   9.868  0.0097 -0.3839  0.0744
  539loPI    C2 8610  13.290  10.635  10.196 -0.0288  0.3149 -0.1819
  539loPI    C3 8611  12.908  10.730  10.125 -0.1597 -0.2074 -0.2120
  539loPI   PO4 8612  13.237  10.601   9.688  0.0314  0.2456  0.1748
  539loPI   GL1 8613  13.198  10.595   9.249  0.1190  0.0501  0.0431
  539loPI   GL2 8614  12.892  10.410   9.224  0.4631  0.2274  0.0331
  539loPI   C1A 8615  13.242  10.515   8.833  0.0627 -0.0713 -0.2031
  539loPI   C2A 8616  13.284  10.586   8.374  0.4212  0.0783  0.1112
  539loPI   C3A 8617  13.207  10.462   7.968  0.4831 -0.1193  0.1712
  539loPI   C4A 8618  13.354  10.273   7.603  0.0853  0.4290  0.1599
  539loPI   C5A 8619  13.275  10.231   7.219  0.2579 -0.0804 -0.1063
  539loPI   C6A 8620  13.515   9.873   7.043 -0.1739  0.0358  0.0595
  539loPI   C1B 8621  12.638  10.659   8.922 -0.1171 -0.1751  0.1703
  539loPI   C2B 8622  12.834  10.778   8.627  0.1565  0.3159  0.0566
  539loPI   C3B 8623  12.793  10.615   8.249 -0.1486  0.0707  0.3182
  539loPI   C4B 8624  12.682  10.694   7.882 -0.1193 -0.3899 -0.2812
  540loPI    C1 8625   9.737   1.362  11.012  0.4322 -0.1190  0.1357
  540loPI    C2 8626   9.765   0.991  11.160 -0.0552 -0.3274 -0.2650
  540loPI    C3 8627   9.573   1.275  11.366  0.0882 -0.3654 -0.0771
  540loPI   PO4 8628   9.604   1.422  10.750  0.3046  0.0343 -0.0166
  540loPI   GL1 8629   9.768   1.290  10.350  0.1933  0.1134 -0.0860
  540loPI   GL2 8630  10.120   1.199  10.200 -0.1891 -0.0065  0.1473
  540loPI   C1A 8631   9.754   1.471   9.985  0.2383  0.0290  0.2843
  540loPI   C2A 8632   9.723   1.467   9.529 -0.2114  0.0045 -0.1348
  540loPI   C3A 8633   9.770   1.454   9.115 -0.1615 -0.0707  0.3237
  540loPI   C4A 8634   9.737   1.194   8.769  0.2101 -0.1491  0.1875
  540loPI   C5A 8635   9.781   1.043   8.383  0.0346 -0.0024 -0.1132
  540loPI   C6A 8636   9.987   1.054   8.000 -0.1965  0.0318 -0.1676
  540loPI   C1B 8637  10.118   1.294   9.671 -0.0834  0.1298  0.0604
  540loPI   C2B 8638  10.252   1.325   9.186  0.1900 -0.1421  0.0658
  540loPI   C3B 8639  10.201   1.361   8.842 -0.2355 -0.2710 -0.0246
  540loPI   C4B 8640  10.165   1.347   8.400 -0.0725  0.2597 -0.3531
  541loPI    C1 8641   5.768  14.036  10.424  0.3983 -0.1651 -0.2673
  541loPI    C2 8642   5.841  14.355  10.194  0.0524  0.0009 -0.1532
  541loPI    C3 8643   6.014  14.324  10.553 -0.3064  0.3202  0.0546
  541loPI   PO4 8644   5.591  13.845  10.179 -0.0656 -0.0088  0.0008
  541loPI   GL1 8645   5.728  13.458   9.930  0.0982 -0.1075  0.0459
  541loPI   GL2 8646   5.949  13.582   9.722 -0.0878 -0.0385  0.3702
  541loPI   C1A 8647   5.417  13.471   9.555  0.0785 -0.0890 -0.0567
  541loPI   C2A 8648   5.381  13.445   9.085 -0.0251  0.0477 -0.1222
  541loPI   C3A 8649   5.495  13.623   8.721 -0.1785 -0.3163  0.1569
  541loPI   C4A 8650   5.566  13.652   8.279  0.1848  0.1731  0.0391
  541loPI   C5A 8651   5.678  13.495   7.964  0.1479  0.0478  0.0900
  541loPI   C6A 8652   5.719  13.713   7.634  0.1278 -0.0550  0.2045
  541loPI   C1B 8653   5.761  13.736   9.249  0.1407  0.1343 -0.1535
  541loPI   C2B 8654   5.991  13.831   8.838 -0.0222  0.2148 -0.2616
  541loPI   C3B 8655   5.993  13.885   8.405  0.1607  0.2043 -0.1659
  541loPI   C4B 8656   6.042  13.911   8.041 -0.0394 -0.0788 -0.2124
  542loPI    C1 8657   3.420   1.331  10.212 -0.1004 -0.1021  0.1164
  542loPI    C2 8658   3.299   1.130  10.536 -0.2039  0.1392  0.2302
  542loPI    C3 8659   3.570   1.421  10.571 -0.0950  0.0581  0.0744
  542loPI   PO4 8660   3.203   1.403  10.121 -0.0172  0.0114  0.3340
  542loPI   GL1 8661   3.172   1.588   9.709 -0.2145  0.1052  0.0514
  542loPI   GL2 8662   3.479   1.571   9.718 -0.1710 -0.3491  0.2217
  542loPI   C1A 8663   3.167   1.695   9.341  0.0185 -0.1877 -0.2807
  542loPI   C2A 8664   3.170   1.764   8.870 -0.1332  0.0894 -0.2059
  542loPI   C3A 8665   3.076   1.684   8.361 -0.0649  0.1108  0.3455
  542loPI   C4A 8666   3.086   1.583   7.904 -0.0982  0.2318  0.1799
  542loPI   C5A 8667   2.850   1.414   7.575  0.0677 -0.1370  0.1591
  542loPI   C6A 8668   2.706   1.008   7.645 -0.0710  0.0232 -0.1862
  542loPI   C1B 8669   3.625   1.477   9.300  0.2684 -0.0540 -0.0707
  542loPI   C2B 8670   3.607   1.350   8.805 -0.1389  0.0110 -0.1954
  542loPI   C3B 8671   3.595   1.412   8.363  0.2312 -0.2350  0.2431
  542loPI   C4B 8672   3.494   1.345   8.011  0.0977  0.0422  0.0633
  543loPI    C1 8673  16.613   3.782   9.854 -0.1178  0.0006 -0.1110
  543loPI    C2 8674  16.854   3.849  10.166 -0.2498  0.3313 -0.0756
  543loPI    C3 8675  16.543   3.600  10.203  0.0735 -0.0892 -0.1185
  543loPI   PO4 8676  16.596   4.002   9.732  0.1602 -0.1048  0.0856
  543loPI   GL1 8677  16.480   4.156   9.350 -0.3181 -0.0175 -0.1461
  543loPI   GL2 8678  16.405   4.481   9.266  0.0846  0.1257  0.0668
  543loPI   C1A 8679  16.604   4.137   8.921 -0.0764 -0.3287  0.1148
  543loPI   C2A 8680  16.673   4.111   8.446 -0.0895  0.3162  0.2259
  543loPI   C3A 8681  16.906   4.001   8.113 -0.1887 -0.2114 -0.1466
  543loPI   C4A 8682  16.790   3.971   7.716 -0.0448  0.3337  0.5095
  543loPI   C5A 8683  16.493   3.795   7.398 -0.1193 -0.2504 -0.1456
  543loPI   C6A 8684  16.022   3.734   7.480  0.0662 -0.2777 -0.3524
  543loPI   C1B 8685  16.217   4.444   8.767 -0.2606  0.0913  0.0496
  543loPI   C2B 8686  16.212   4.268   8.352 -0.0416 -0.0153 -0.1137
  543loPI   C3B 8687  15.944   4.288   7.982 -0.0472 -0.0357  0.0367
  543loPI   C4B 8688  15.715   4.438   7.583 -0.1716 -0.1723  0.0515
  544loPI    C1 8689   8.242   6.462  10.534 -0.1868  0.1695  0.0625
  544loPI    C2 8690   8.380   6.363  10.896 -0.0140 -0.1685 -0.0916
  544loPI    C3 8691   7.998   6.294  10.802 -0.0262 -0.2013 -0.0184
  544loPI   PO4 8692   8.466   6.590  10.457 -0.2730 -0.0339  0.2488
  544loPI   GL1 8693   8.745   6.455  10.091  0.1034  0.0395  0.0470
  544loPI   GL2 8694   8.550   6.665   9.904  0.1317  0.2017  0.1375
  544loPI   C1A 8695   8.784   6.334   9.648  0.0901 -0.2839  0.0950
  544loPI   C2A 8696   8.674   6.367   9.232 -0.0291 -0.0487 -0.2144
  544loPI   C3A 8697   8.532   6.452   8.760 -0.1743 -0.2775 -0.0287
  544loPI   C4A 8698   8.495   6.554   8.319  0.1970  0.2926  0.1130
  544loPI   C5A 8699   8.587   6.724   7.898  0.2037  0.2516 -0.4004
  544loPI   C6A 8700   8.687   6.981   7.583  0.1444  0.0605 -0.1982
  544loPI   C1B 8701   8.629   6.849   9.556 -0.0503 -0.0162 -0.2459
  544loPI   C2B 8702   8.546   6.865   9.075 -0.2461  0.1680 -0.0168
  544loPI   C3B 8703   8.449   6.907   8.646 -0.0050 -0.2587  0.1733
  544loPI   C4B 8704   8.118   6.953   8.294  0.1181 -0.2698 -0.0134
  545loPI    C1 8705   1.919  13.375  10.194  0.1665 -0.1508  0.1107
  545loPI    C2 8706   1.703  13.360  10.530  0.1825  0.1428  0.1370
  545loPI    C3 8707   1.805  13.022  10.343 -0.2188 -0.0049  0.1745
  545loPI   PO4 8708   1.816  13.462  10.025 -0.3550 -0.1173 -0.0776
  545loPI   GL1 8709   1.891  13.409   9.638 -0.1053  0.0598  0.1623
  545loPI   GL2 8710   1.808  13.691   9.554 -0.0972  0.0335  0.0009
  545loPI   C1A 8711   2.047  13.109   9.197  0.1983 -0.0042 -0.0314
  545loPI   C2A 8712   2.154  12.811   8.862  0.0052 -0.0389  0.1070
  545loPI   C3A 8713   2.362  12.494   8.636 -0.0985 -0.2804 -0.1400
  545loPI   C4A 8714   2.611  12.281   8.244  0.0241  0.3490  0.2217
  545loPI   C5A 8715   2.939  12.325   7.848 -0.2905  0.0652 -0.1819
  545loPI   C6A 8716   3.339  12.102   7.873 -0.2525  0.3877 -0.0734
  545loPI   C1B 8717   1.928  13.864   9.123 -0.1760  0.1434 -0.0483
  545loPI   C2B 8718   2.063  13.947   8.731 -0.2101  0.0691 -0.0593
  545loPI   C3B 8719   2.174  13.697   8.424  0.0089 -0.4676 -0.0825
  545loPI   C4B 8720   2.254  13.598   7.993  0.2152 -0.2685  0.2849
  546loPI    C1 8721   2.884   0.322  10.119 -0.1485 -0.2521 -0.0211
  546loPI    C2 8722   2.551   0.353  10.339 -0.1395 -0.1022 -0.0279
  546loPI    C3 8723   2.868   0.157  10.483 -0.0563  0.1844  0.1873
  546loPI   PO4 8724   2.770   0.326   9.821 -0.1974  0.1907  0.0964
  546loPI   GL1 8725   2.858   0.504   9.494 -0.2741  0.2399  0.3586
  546loPI   GL2 8726   2.966   0.776   9.547  0.2813  0.0350  0.1262
  546loPI   C1A 8727   2.723   0.526   9.105  0.2880 -0.0242  0.1030
  546loPI   C2A 8728   2.747   0.438   8.613  0.0440 -0.1078  0.1998
  546loPI   C3A 8729   2.682   0.336   8.139 -0.0190  0.0812 -0.0530
  546loPI   C4A 8730   2.581   0.353   7.750  0.1111  0.2283  0.0057
  546loPI   C5A 8731   2.851   0.481   7.434  0.1861  0.1425 -0.1026
  546loPI   C6A 8732   2.828   0.386   6.976 -0.1806  0.0113 -0.0988
  546loPI   C1B 8733   3.221   0.654   9.230 -0.2178  0.0351 -0.1084
  546loPI   C2B 8734   3.151   0.662   8.806 -0.0273 -0.0532 -0.0305
  546loPI   C3B 8735   3.031   0.677   8.332 -0.0339 -0.0079 -0.3593
  546loPI   C4B 8736   3.046   0.619   7.888 -0.0924  0.2425  0.3194
  547loPI    C1 8737  13.514  15.432   9.582 -0.1775 -0.0586  0.0345
  547loPI    C2 8738  13.140  15.509   9.463 -0.1398  0.1640  0.0557
  547loPI    C3 8739  13.448  15.689   9.282 -0.0358 -0.0934 -0.0274
  547loPI   PO4 8740  13.609  15.225   9.576  0.0504 -0.1013  0.2045
  547loPI   GL1 8741  13.920  15.131   9.228 -0.2337 -0.0860  0.0756
  547loPI   GL2 8742  13.828  15.319   9.118  0.1244 -0.1866 -0.0073
  547loPI   C1A 8743  14.157  15.036   8.836  0.1557  0.0602 -0.0549
  547loPI   C2A 8744  14.208  14.854   8.372 -0.2351  0.1389 -0.1060
  547loPI   C3A 8745  13.946  14.827   8.015 -0.1231  0.1408 -0.0879
  547loPI   C4A 8746  13.942  14.957   7.615  0.0754 -0.0524  0.0155
  547loPI   C5A 8747  13.550  15.057   7.303  0.3388  0.1628 -0.2930
  547loPI   C6A 8748  13.575  14.764   6.998 -0.0296 -0.1849 -0.1678
  547loPI   C1B 8749  13.917  15.439   8.724 -0.0342 -0.0071  0.0931
  547loPI   C2B 8750  13.937  15.378   8.243 -0.0071  0.0528 -0.1675
  547loPI   C3B 8751  14.210  15.295   7.909 -0.1313  0.0121  0.0846
  547loPI   C4B 8752  14.637  15.184   7.946 -0.2600 -0.1357 -0.1170
  548loPI    C1 8753   6.142   1.834  10.693 -0.2005  0.2499  0.1162
  548loPI    C2 8754   6.405   2.102  10.832  0.1180 -0.0876  0.1819
  548loPI    C3 8755   6.382   1.739  10.999 -0.3455 -0.0884  0.1300
  548loPI   PO4 8756   6.205   1.882  10.375  0.0704  0.0230  0.0885
  548loPI   GL1 8757   6.032   2.029  10.006  0.1466 -0.1637  0.1366
  548loPI   GL2 8758   5.846   2.370  10.117  0.0900 -0.0465 -0.0738
  548loPI   C1A 8759   6.261   1.960   9.701 -0.0584  0.4023 -0.2257
  548loPI   C2A 8760   6.388   1.768   9.350  0.1332  0.0498 -0.2481
  548loPI   C3A 8761   6.303   1.754   8.928  0.0201 -0.2299 -0.1648
  548loPI   C4A 8762   6.263   1.861   8.528 -0.2352  0.2067  0.0994
  548loPI   C5A 8763   6.451   1.781   8.079  0.2365 -0.1958  0.0783
  548loPI   C6A 8764   6.813   1.941   7.872  0.0518  0.3282 -0.1601
  548loPI   C1B 8765   5.867   2.320   9.642  0.1783 -0.1346 -0.1274
  548loPI   C2B 8766   5.868   2.123   9.187  0.1662 -0.1222 -0.0410
  548loPI   C3B 8767   5.890   2.110   8.758 -0.1593 -0.0488  0.3726
  548loPI   C4B 8768   5.841   2.087   8.285  0.2180  0.1785 -0.2725
  549loPI    C1 8769   2.794   4.529  10.820  0.3972 -0.2030 -0.1892
  549loPI    C2 8770   3.099   4.787  10.814  0.0253  0.2545 -0.0660
  549loPI    C3 8771   2.880   4.745  11.146 -0.0680 -0.0452 -0.1628
  549loPI   PO4 8772   2.827   4.492  10.437  0.3533 -0.1103  0.1112
  549loPI   GL1 8773   2.917   4.622   9.976  0.2692  0.2410 -0.3168
  549loPI   GL2 8774   2.649   4.368   9.864  0.0530 -0.1227 -0.0084
  549loPI   C1A 8775   3.046   4.815   9.567 -0.0809  0.0720  0.1595
  549loPI   C2A 8776   3.165   4.912   9.091 -0.0077 -0.0385 -0.1312
  549loPI   C3A 8777   3.171   4.870   8.644 -0.1987 -0.0746  0.1386
  549loPI   C4A 8778   3.207   4.807   8.318 -0.0967  0.1091  0.1480
  549loPI   C5A 8779   2.983   4.841   7.862  0.0829  0.3640  0.1244
  549loPI   C6A 8780   2.916   4.671   7.542  0.1740  0.0402 -0.1507
  549loPI   C1B 8781   2.682   4.440   9.495 -0.2178  0.2245 -0.0802
  549loPI   C2B 8782   2.740   4.651   9.132 -0.0013  0.1009 -0.4128
  549loPI   C3B 8783   2.685   4.632   8.714 -0.0894  0.0644  0.0777
  549loPI   C4B 8784   2.778   4.478   8.233  0.0473 -0.2211  0.0964
  550loPI    C1 8785  11.720   2.381  10.973  0.0140 -0.0448  0.0678
  550loPI    C2 8786  12.119   2.373  10.946  0.0125 -0.0633  0.0500
  550loPI    C3 8787  11.941   2.284  11.293  0.0166 -0.2526  0.0046
  550loPI   PO4 8788  11.646   2.518  10.704 -0.1541 -0.1765 -0.1796
  550loPI   GL1 8789  11.630   2.465  10.356  0.2465  0.1921 -0.1699
  550loPI   GL2 8790  11.858   2.305  10.194  0.0585  0.1666 -0.1409
  550loPI   C1A 8791  11.532   2.668   9.941 -0.2352  0.1849  0.2686
  550loPI   C2A 8792  11.440   2.685   9.440  0.2084 -0.1783 -0.4927
  550loPI   C3A 8793  11.458   2.718   9.003  0.1130 -0.0764  0.1299
  550loPI   C4A 8794  11.353   2.722   8.621 -0.0561  0.0792 -0.1225
  550loPI   C5A 8795  11.181   2.597   8.206 -0.2236  0.1575 -0.0940
  550loPI   C6A 8796  11.011   2.314   7.877  0.0215  0.1334 -0.0344
  550loPI   C1B 8797  11.750   2.117   9.740 -0.1371  0.0886  0.2273
  550loPI   C2B 8798  11.459   2.191   9.374  0.1705  0.2580  0.0128
  550loPI   C3B 8799  11.372   2.239   9.002  0.2985 -0.0535  0.0065
  550loPI   C4B 8800  11.553   2.276   8.636  0.0301  0.0520  0.2247
  551loPI    C1 8801  11.299   3.798  10.372  0.2232 -0.1465 -0.0291
  551loPI    C2 8802  11.337   3.804  10.770 -0.0600 -0.1388  0.0004
  551loPI    C3 8803  11.421   3.470  10.566  0.0644 -0.1495  0.0679
  551loPI   PO4 8804  11.427   4.024  10.251 -0.1752  0.0712 -0.2135
  551loPI   GL1 8805  11.400   4.281   9.979 -0.2416 -0.1695  0.1775
  551loPI   GL2 8806  11.258   4.617  10.032 -0.0150  0.0098 -0.3790
  551loPI   C1A 8807  11.264   4.278   9.604 -0.1893  0.0194 -0.1350
  551loPI   C2A 8808  11.143   4.231   9.276 -0.0245 -0.0551 -0.0049
  551loPI   C3A 8809  11.248   4.215   8.858  0.1535  0.1028 -0.2901
  551loPI   C4A 8810  11.128   4.229   8.509 -0.1984 -0.0860  0.2325
  551loPI   C5A 8811  11.007   4.238   8.099  0.1067  0.1042 -0.0356
  551loPI   C6A 8812  10.870   3.928   7.899 -0.0255 -0.0907  0.2264
  551loPI   C1B 8813  11.160   4.835   9.699  0.1339 -0.1480  0.0282
  551loPI   C2B 8814  11.253   4.749   9.332 -0.0058 -0.1105  0.1794
  551loPI   C3B 8815  11.182   4.744   8.901  0.2030 -0.0712 -0.0050
  551loPI   C4B 8816  11.071   4.753   8.519  0.0632 -0.1075 -0.1974
  552loPI    C1 8817  13.581  16.144   9.495  0.0700  0.0700  0.1144
  552loPI    C2 8818  13.423  16.479   9.646  0.0043 -0.0256  0.2603
  552loPI    C3 8819  13.343  16.127   9.817 -0.0028 -0.1268  0.0512
  552loPI   PO4 8820  13.490  16.193   9.205 -0.2009  0.1385  0.1786
  552loPI   GL1 8821  13.270  16.074   8.897 -0.1043 -0.2216  0.0882
  552loPI   GL2 8822  13.097  15.878   8.910 -0.2040 -0.0061 -0.1657
  552loPI   C1A 8823  13.434  16.091   8.535  0.1938  0.1418  0.1551
  552loPI   C2A 8824  13.668  16.240   8.172 -0.1485  0.1564 -0.0282
  552loPI   C3A 8825  13.785  16.666   8.026  0.1720 -0.2297  0.2089
  552loPI   C4A 8826  13.980  16.889   7.838 -0.0890  0.1364  0.1603
  552loPI   C5A 8827  14.384  17.149   7.540  0.3898  0.2305 -0.2178
  552loPI   C6A 8828  14.242  17.351   7.098 -0.0904  0.0363  0.0613
  552loPI   C1B 8829  12.987  15.810   8.486  0.0262  0.2369 -0.3828
  552loPI   C2B 8830  12.658  15.747   8.025  0.0162  0.0828  0.0487
  552loPI   C3B 8831  12.452  15.748   7.693 -0.3695  0.0271 -0.0115
  552loPI   C4B 8832  12.488  15.543   7.314  0.1518  0.0672  0.0665
  553loPI    C1 8833  14.569  13.423   9.973 -0.0392  0.0088 -0.0390
  553loPI    C2 8834  14.509  13.816  10.015 -0.0022  0.0069  0.0339
  553loPI    C3 8835  14.556  13.586  10.338 -0.0706 -0.0651 -0.0069
  553loPI   PO4 8836  14.682  13.510   9.663  0.0045  0.1906  0.1819
  553loPI   GL1 8837  14.976  13.657   9.373 -0.0953  0.2253 -0.2223
  553loPI   GL2 8838  14.716  13.656   9.185  0.2488  0.0762  0.1889
  553loPI   C1A 8839  15.383  13.782   9.129 -0.0526  0.2863 -0.1194
  553loPI   C2A 8840  15.389  13.581   8.789  0.0344  0.1189 -0.0406
  553loPI   C3A 8841  15.573  13.596   8.404 -0.2549  0.1291  0.0044
  553loPI   C4A 8842  15.804  13.396   8.097 -0.2244 -0.1475  0.1492
  553loPI   C5A 8843  15.956  13.730   7.806 -0.1069 -0.0946  0.0061
  553loPI   C6A 8844  16.302  14.031   7.795 -0.0971  0.2182  0.2193
  553loPI   C1B 8845  14.866  13.672   8.754 -0.2908 -0.0108  0.0591
  553loPI   C2B 8846  15.072  13.460   8.432  0.0768 -0.1736 -0.0195
  553loPI   C3B 8847  15.159  13.431   8.031  0.3194 -0.2506 -0.3470
  553loPI   C4B 8848  15.055  13.435   7.621  0.3637 -0.1128  0.0554
  554loPI    C1 8849   7.675  13.621  10.183  0.1977 -0.0212  0.0593
  554loPI    C2 8850   7.727  13.327  10.449 -0.0226 -0.1349 -0.0198
  554loPI    C3 8851   7.783  13.708  10.558  0.2461 -0.2028  0.0885
  554loPI   PO4 8852   7.793  13.425   9.965  0.1235 -0.0349  0.3195
  554loPI   GL1 8853   7.511  13.258   9.564  0.0601  0.1813 -0.0819
  554loPI   GL2 8854   7.599  12.980   9.559 -0.0198 -0.0799  0.3473
  554loPI   C1A 8855   7.273  13.520   9.170  0.2278  0.0181  0.1401
  554loPI   C2A 8856   7.320  13.462   8.720 -0.1161 -0.1807 -0.0379
  554loPI   C3A 8857   7.418  13.547   8.325  0.0714  0.1415 -0.1148
  554loPI   C4A 8858   7.293  13.806   8.022 -0.5689  0.2616  0.2963
  554loPI   C5A 8859   7.314  13.876   7.578  0.2413  0.0415 -0.0747
  554loPI   C6A 8860   7.558  13.608   7.244 -0.0162 -0.0330  0.2527
  554loPI   C1B 8861   7.681  12.722   9.292 -0.0272  0.0007  0.0108
  554loPI   C2B 8862   7.576  12.650   8.965  0.3136  0.1795 -0.0569
  554loPI   C3B 8863   7.578  12.455   8.566 -0.1176  0.1704 -0.2570
  554loPI   C4B 8864   7.398  12.462   8.251 -0.2527 -0.1833  0.0057
  555loPI    C1 8865   6.574  12.728  10.100 -0.0006 -0.2265 -0.1760
  555loPI    C2 8866   6.749  12.479  10.359 -0.1393  0.1436  0.2887
  555loPI    C3 8867   6.367  12.584  10.410 -0.1767  0.2032 -0.0869
  555loPI   PO4 8868   6.609  12.643   9.903 -0.0307  0.2201  0.1370
  555loPI   GL1 8869   6.610  12.325   9.556  0.0275 -0.3996 -0.2736
  555loPI   GL2 8870   6.367  12.610   9.464  0.1782  0.1528  0.0263
  555loPI   C1A 8871   6.568  12.059   9.241  0.2665 -0.2511  0.0516
  555loPI   C2A 8872   6.423  12.075   8.830 -0.2373 -0.0530  0.1060
  555loPI   C3A 8873   6.282  12.118   8.411  0.0768 -0.4141  0.0295
  555loPI   C4A 8874   6.406  12.039   8.002  0.3345 -0.3889 -0.1915
  555loPI   C5A 8875   6.439  11.798   7.673 -0.2624 -0.0739 -0.0110
  555loPI   C6A 8876   6.760  11.613   7.593 -0.1397  0.1286 -0.0514
  555loPI   C1B 8877   6.686  12.663   9.212  0.1923 -0.2354 -0.0456
  555loPI   C2B 8878   6.600  12.556   8.800  0.1829  0.0185  0.1528
  555loPI   C3B 8879   6.499  12.647   8.426 -0.0855  0.2536 -0.1452
  555loPI   C4B 8880   6.597  12.980   8.082 -0.0494  0.0044 -0.0226
  556loPI    C1 8881   8.145   4.902  11.090 -0.0764  0.0207 -0.0401
  556loPI    C2 8882   8.477   5.059  11.250 -0.2303  0.3706 -0.0561
  556loPI    C3 8883   8.311   4.734  11.413  0.0314  0.2855  0.0449
  556loPI   PO4 8884   8.198   4.986  10.833 -0.3198  0.0425  0.0268
  556loPI   GL1 8885   8.209   5.247  10.501 -0.2116 -0.1821 -0.0038
  556loPI   GL2 8886   8.240   5.505  10.575  0.0306  0.0109  0.0198
  556loPI   C1A 8887   8.431   5.092  10.174  0.0021 -0.0632  0.0924
  556loPI   C2A 8888   8.434   4.985   9.746 -0.1036 -0.0458 -0.1039
  556loPI   C3A 8889   8.471   4.996   9.355 -0.1621 -0.1421  0.3106
  556loPI   C4A 8890   8.363   4.712   8.966  0.1787  0.2318  0.2151
  556loPI   C5A 8891   8.328   4.809   8.439 -0.4058 -0.4367 -0.3307
  556loPI   C6A 8892   8.609   4.938   8.139  0.4030  0.2022 -0.0169
  556loPI   C1B 8893   8.368   5.592  10.170  0.3981  0.1207  0.2368
  556loPI   C2B 8894   8.511   5.462   9.724  0.5101 -0.1524 -0.0863
  556loPI   C3B 8895   8.338   5.484   9.291 -0.0892  0.1264 -0.1885
  556loPI   C4B 8896   8.314   5.647   8.892  0.0016 -0.3090  0.1533
  557loPI    C1 8897  13.049   1.993  10.429 -0.0755 -0.0001  0.2051
  557loPI    C2 8898  13.144   1.636  10.583 -0.1003 -0.1655 -0.1522
  557loPI    C3 8899  13.062   1.943  10.825  0.0044 -0.3784  0.1592
  557loPI   PO4 8900  12.990   1.891  10.177  0.1462 -0.2312  0.1292
  557loPI   GL1 8901  12.774   2.041   9.778  0.1553  0.1749  0.2838
  557loPI   GL2 8902  13.073   2.187   9.701  0.1360 -0.3081  0.0076
  557loPI   C1A 8903  12.607   1.779   9.536  0.4383 -0.0284 -0.2038
  557loPI   C2A 8904  12.516   1.712   9.162  0.1970 -0.2165 -0.1970
  557loPI   C3A 8905  12.486   1.631   8.742 -0.0688  0.0922  0.1529
  557loPI   C4A 8906  12.367   1.765   8.440 -0.0538 -0.0100 -0.1388
  557loPI   C5A 8907  12.314   1.626   8.031  0.0637 -0.2516  0.1354
  557loPI   C6A 8908  11.934   1.575   7.743 -0.1362  0.0181 -0.0499
  557loPI   C1B 8909  12.915   2.077   9.281 -0.0408 -0.0294 -0.2478
  557loPI   C2B 8910  12.810   1.997   8.892  0.0676  0.1204 -0.1005
  557loPI   C3B 8911  12.850   1.939   8.544  0.2098  0.0374 -0.0367
  557loPI   C4B 8912  12.643   2.154   8.204 -0.2832  0.0568 -0.0033
  558loPI    C1 8913  17.894  11.571   9.946 -0.2161 -0.0514 -0.0415
  558loPI    C2 8914  18.012  11.828  10.229  0.0566 -0.2209  0.0031
  558loPI    C3 8915  17.625  11.730  10.195 -0.0104 -0.0180  0.1628
  558loPI   PO4 8916  17.951  11.668   9.767 -0.0164 -0.3683 -0.2335
  558loPI   GL1 8917  18.126  11.624   9.346  0.0137 -0.1247 -0.1323
  558loPI   GL2 8918  18.414  11.835   9.359  0.2234 -0.2956  0.3355
  558loPI   C1A 8919  18.310  11.479   8.987 -0.2937  0.0598 -0.0968
  558loPI   C2A 8920  18.399  11.424   8.587  0.1755  0.0724  0.2151
  558loPI   C3A 8921  18.437  11.317   8.183 -0.0164 -0.1083 -0.0766
  558loPI   C4A 8922  18.518  11.169   7.785  0.2197 -0.0314  0.2039
  558loPI   C5A 8923  18.587  10.761   7.588  0.1334  0.0645  0.0383
  558loPI   C6A 8924  18.417  10.574   7.276 -0.1618 -0.0175  0.2727
  558loPI   C1B 8925  18.342  12.089   9.017 -0.0559 -0.0092  0.1190
  558loPI   C2B 8926  18.320  12.162   8.597 -0.1161  0.0660 -0.3132
  558loPI   C3B 8927  18.279  12.134   8.163  0.0869 -0.0346 -0.2958
  558loPI   C4B 8928  18.284  12.169   7.661 -0.1417  0.1214 -0.2679
  559loPI    C1 8929   3.740   6.716  10.727  0.1320  0.0889  0.1003
  559loPI    C2 8930   3.341   6.692  10.716  0.1225  0.2564  0.0548
  559loPI    C3 8931   3.527   6.777  11.060  0.1207  0.1580  0.0806
  559loPI   PO4 8932   3.770   6.641  10.411  0.1649 -0.1274 -0.0818
  559loPI   GL1 8933   3.806   6.305  10.219  0.3239  0.1685  0.0435
  559loPI   GL2 8934   3.804   6.008  10.122  0.0099  0.3771 -0.0580
  559loPI   C1A 8935   3.575   6.345   9.782 -0.0729  0.0326 -0.0352
  559loPI   C2A 8936   3.623   6.289   9.345 -0.1011 -0.2790 -0.2568
  559loPI   C3A 8937   3.602   6.225   8.901  0.2043 -0.0997 -0.0647
  559loPI   C4A 8938   3.685   6.121   8.501  0.2490 -0.0183  0.1219
  559loPI   C5A 8939   3.783   5.935   8.155 -0.2885 -0.0181 -0.1820
  559loPI   C6A 8940   3.788   5.490   7.944  0.0497 -0.1362 -0.0286
  559loPI   C1B 8941   3.998   6.095   9.671  0.0777  0.1726 -0.0815
  559loPI   C2B 8942   4.095   6.017   9.281  0.1076 -0.0919  0.0518
  559loPI   C3B 8943   4.178   5.906   8.851 -0.0031 -0.0339 -0.5225
  559loPI   C4B 8944   4.273   5.760   8.443  0.2376  0.0440  0.3943
  560loPI    C1 8945  10.684   2.677  10.930 -0.2823  0.1197  0.1502
  560loPI    C2 8946  10.566   2.340  11.112  0.2982 -0.2166 -0.0682
  560loPI    C3 8947  10.934   2.484  11.176  0.1174  0.2879 -0.1145
  560loPI   PO4 8948  10.629   2.651  10.706 -0.0410  0.2271 -0.1167
  560loPI   GL1 8949  10.602   2.578  10.376 -0.2387  0.0061  0.3691
  560loPI   GL2 8950  10.759   2.821  10.262  0.0682 -0.0098  0.1060
  560loPI   C1A 8951  10.291   2.428   9.943 -0.2070  0.0803 -0.1984
  560loPI   C2A 8952  10.109   2.333   9.580 -0.1327  0.3229 -0.2346
  560loPI   C3A 8953  10.101   2.311   9.153  0.1961  0.3515  0.0964
  560loPI   C4A 8954  10.137   2.369   8.783  0.0317  0.2296  0.1345
  560loPI   C5A 8955   9.905   2.292   8.434  0.0182 -0.0077  0.2024
  560loPI   C6A 8956   9.705   2.048   8.131  0.3117  0.0562 -0.2628
  560loPI   C1B 8957  10.671   2.679   9.875 -0.0430  0.1386  0.2305
  560loPI   C2B 8958  10.532   2.577   9.515 -0.2626 -0.0630  0.2938
  560loPI   C3B 8959  10.512   2.654   9.069  0.0142 -0.2177  0.1347
  560loPI   C4B 8960  10.483   2.655   8.620 -0.1615  0.0875  0.1797
  561loPI    C1 8961  10.349  12.143   9.899 -0.2161  0.0104 -0.3613
  561loPI    C2 8962  10.493  12.474   9.728  0.3750  0.0090  0.1029
  561loPI    C3 8963  10.339  12.490  10.097 -0.4243 -0.0808 -0.2073
  561loPI   PO4 8964  10.578  11.970   9.907 -0.0779  0.1207 -0.2134
  561loPI   GL1 8965  10.798  11.870   9.515 -0.1398 -0.1978 -0.0191
  561loPI   GL2 8966  10.914  12.104   9.370  0.2109  0.3355 -0.0943
  561loPI   C1A 8967  10.530  11.732   9.084 -0.1083  0.2716  0.1877
  561loPI   C2A 8968  10.488  11.590   8.705 -0.2335 -0.0794  0.1675
  561loPI   C3A 8969  10.233  11.623   8.393 -0.1483  0.0070  0.0902
  561loPI   C4A 8970  10.164  11.933   8.123  0.1857  0.1374 -0.0933
  561loPI   C5A 8971  10.345  12.207   7.786  0.3185  0.1142  0.2564
  561loPI   C6A 8972  10.563  12.438   7.492 -0.1088 -0.1854  0.0673
  561loPI   C1B 8973  10.963  12.033   8.926  0.0583  0.0986  0.1994
  561loPI   C2B 8974  10.802  11.908   8.455  0.0077  0.1604 -0.0867
  561loPI   C3B 8975  10.652  11.824   7.962  0.0089  0.1131  0.4175
  561loPI   C4B 8976  10.763  11.961   7.584  0.1257 -0.1184  0.2134
  562loPI    C1 8977  15.348  16.732   9.965 -0.1442  0.1160 -0.0467
  562loPI    C2 8978  15.490  16.919  10.289  0.0391 -0.2649  0.0984
  562loPI    C3 8979  15.379  16.535  10.311 -0.2311 -0.2099 -0.2203
  562loPI   PO4 8980  15.515  16.770   9.819  0.0271  0.0531  0.0282
  562loPI   GL1 8981  15.608  16.810   9.399 -0.0482  0.0472  0.2126
  562loPI   GL2 8982  15.624  17.138   9.440 -0.0362 -0.1006  0.1286
  562loPI   C1A 8983  15.627  16.852   8.943  0.0252  0.0123  0.0223
  562loPI   C2A 8984  15.934  16.602   8.656 -0.2184 -0.2307  0.0467
  562loPI   C3A 8985  16.211  16.539   8.363 -0.0909 -0.0330  0.0029
  562loPI   C4A 8986  16.281  16.580   7.903  0.1945  0.0299 -0.2106
  562loPI   C5A 8987  16.505  16.724   7.585 -0.1280  0.0625 -0.1505
  562loPI   C6A 8988  16.788  16.892   7.223  0.2029  0.2189  0.4630
  562loPI   C1B 8989  15.935  17.201   9.120 -0.1073  0.2909  0.2571
  562loPI   C2B 8990  16.347  17.338   8.875 -0.0201  0.0649  0.1838
  562loPI   C3B 8991  16.599  17.484   8.511  0.2204 -0.1721  0.0461
  562loPI   C4B 8992  16.778  17.235   8.228 -0.2218 -0.0570 -0.1167
  563loPI    C1 8993  15.831   7.416   9.968  0.1735 -0.0307 -0.2249
  563loPI    C2 8994  15.518   7.300   9.747 -0.0278 -0.0162  0.0476
  563loPI    C3 8995  15.518   7.238  10.142  0.2407  0.1373  0.0741
  563loPI   PO4 8996  16.035   7.318   9.644  0.0630 -0.4338 -0.0869
  563loPI   GL1 8997  16.086   7.523   9.272  0.0910 -0.2573  0.0651
  563loPI   GL2 8998  15.785   7.598   9.257  0.2318  0.1747 -0.0872
  563loPI   C1A 8999  16.076   7.518   8.752 -0.0036  0.0924 -0.0363
  563loPI   C2A 9000  16.220   7.414   8.341 -0.1033  0.0157 -0.0571
  563loPI   C3A 9001  16.369   7.039   8.191  0.2413 -0.5456  0.0245
  563loPI   C4A 9002  16.651   6.894   7.984  0.0138  0.1942  0.2383
  563loPI   C5A 9003  16.862   6.788   7.555 -0.1057  0.0259  0.2479
  563loPI   C6A 9004  17.223   6.666   7.321 -0.2070 -0.0796  0.0526
  563loPI   C1B 9005  15.478   7.813   8.953 -0.1045 -0.0166  0.1143
  563loPI   C2B 9006  15.631   7.885   8.583  0.0349 -0.3572 -0.1209
  563loPI   C3B 9007  16.050   7.907   8.477  0.1674  0.0150  0.0124
  563loPI   C4B 9008  16.362   8.056   8.234  0.0448  0.0499 -0.1715
  564loPI    C1 9009  12.085   1.999  10.548  0.1318 -0.0195  0.1130
  564loPI    C2 9010  11.689   1.972  10.603  0.1312 -0.2110  0.0245
  564loPI    C3 9011  11.938   1.887  10.904  0.1028  0.1751  0.1635
  564loPI   PO4 9012  12.106   1.845  10.295  0.2264 -0.0342  0.0158
  564loPI   GL1 9013  12.047   1.801   9.911  0.1274 -0.1447 -0.6912
  564loPI   GL2 9014  12.294   2.031   9.858  0.1522  0.3200  0.2684
  564loPI   C1A 9015  12.102   1.517   9.522  0.2964  0.0267  0.0116
  564loPI   C2A 9016  12.086   1.532   9.147 -0.0292  0.2976 -0.0290
  564loPI   C3A 9017  12.049   1.372   8.707  0.0767  0.2976  0.2677
  564loPI   C4A 9018  11.992   1.361   8.336 -0.1799  0.4637 -0.1833
  564loPI   C5A 9019  11.987   1.090   7.909  0.0458  0.0736 -0.0070
  564loPI   C6A 9020  12.088   1.056   7.465  0.1631  0.3833  0.0843
  564loPI   C1B 9021  12.133   2.068   9.450  0.4227  0.1454  0.0427
  564loPI   C2B 9022  11.996   2.018   9.092  0.3176 -0.1431 -0.1428
  564loPI   C3B 9023  11.919   1.965   8.657  0.3668 -0.0611 -0.2291
  564loPI   C4B 9024  11.879   1.984   8.211 -0.0176  0.1301  0.0696
  565loPI    C1 9025   8.512   4.310  11.291  0.0733 -0.0060 -0.0228
  565loPI    C2 9026   8.309   4.206  11.619 -0.0152  0.2619  0.0102
  565loPI    C3 9027   8.702   4.276  11.642  0.0784 -0.2076 -0.0440
  565loPI   PO4 9028   8.506   4.078  11.128 -0.2844  0.0608 -0.4599
  565loPI   GL1 9029   8.745   4.045  10.708 -0.1933  0.1715  0.3423
  565loPI   GL2 9030   8.840   4.272  10.763 -0.0705  0.1677 -0.0959
  565loPI   C1A 9031   8.574   4.167  10.289 -0.1754 -0.0501 -0.0494
  565loPI   C2A 9032   8.620   3.973   9.808 -0.2160  0.1030  0.0136
  565loPI   C3A 9033   8.596   3.923   9.333  0.2571  0.1017  0.0027
  565loPI   C4A 9034   8.606   3.959   9.045 -0.1050 -0.2782 -0.2204
  565loPI   C5A 9035   8.701   4.409   8.797  0.1474  0.3460  0.1630
  565loPI   C6A 9036   8.792   4.785   8.581 -0.3581  0.0446  0.2349
  565loPI   C1B 9037   8.959   4.423  10.363 -0.1351 -0.0548 -0.0761
  565loPI   C2B 9038   8.988   4.367  10.001 -0.1378 -0.0248 -0.0954
  565loPI   C3B 9039   9.027   4.269   9.528  0.2855  0.1404  0.1549
  565loPI   C4B 9040   9.084   4.273   9.145 -0.0085 -0.4929  0.1795
  566loPI    C1 9041   3.912  18.370   9.943 -0.0652  0.2021 -0.0439
  566loPI    C2 9042   3.660  18.240  10.225  0.1116 -0.2584 -0.0888
  566loPI    C3 9043   4.050  18.152  10.249  0.2452  0.2862 -0.1195
  566loPI   PO4 9044   3.889  18.514   9.796 -0.1325  0.3018  0.0225
  566loPI   GL1 9045   3.723  18.564   9.346 -0.2446  0.0486 -0.2376
  566loPI   GL2 9046   3.483  18.762   9.322  0.0454  0.1691 -0.0387
  566loPI   C1A 9047   3.883  18.386   8.959  0.1394  0.4809  0.1992
  566loPI   C2A 9048   4.002  18.427   8.478  0.1596 -0.1949 -0.4074
  566loPI   C3A 9049   3.872  18.388   8.072  0.1250  0.2995  0.0591
  566loPI   C4A 9050   3.804  18.321   7.548 -0.3114  0.0295 -0.3332
  566loPI   C5A 9051   3.686  18.450   7.097  0.2332  0.0694  0.0332
  566loPI   C6A 9052   3.641  18.401   6.627  0.0998 -0.0444 -0.5115
  566loPI   C1B 9053   3.482  18.675   8.859  0.1078  0.0595 -0.3405
  566loPI   C2B 9054   3.573  18.586   8.461  0.1631  0.0888  0.0757
  566loPI   C3B 9055   3.456  18.671   8.052 -0.0259 -0.1150 -0.3202
  566loPI   C4B 9056   3.433  18.677   7.635  0.1872  0.0881 -0.1596
  567loPI    C1 9057   0.810  14.266  10.096  0.0894 -0.0830  0.0050
  567loPI    C2 9058   0.967  13.935  10.258  0.2883  0.0059 -0.0029
  567loPI    C3 9059   1.207  14.228  10.129  0.1154  0.1279 -0.0518
  567loPI   PO4 9060   0.659  14.201   9.914  0.1223 -0.0886  0.0414
  567loPI   GL1 9061   0.392  14.047   9.586  0.1421 -0.2635  0.2341
  567loPI   GL2 9062   0.248  13.739   9.540  0.0807  0.0873 -0.1144
  567loPI   C1A 9063   0.755  13.924   9.350 -0.1084 -0.3055  0.2207
  567loPI   C2A 9064   0.740  14.029   8.873  0.2387 -0.1260 -0.3838
  567loPI   C3A 9065   0.717  14.110   8.422 -0.3019  0.5643  0.1577
  567loPI   C4A 9066   0.848  13.986   8.042  0.2181 -0.1195 -0.3442
  567loPI   C5A 9067   0.540  13.840   7.704 -0.1643 -0.2459  0.1914
  567loPI   C6A 9068   0.427  13.496   7.568  0.0682 -0.0880  0.1871
  567loPI   C1B 9069   0.371  13.765   9.055 -0.2406  0.1644 -0.0607
  567loPI   C2B 9070   0.355  13.766   8.653  0.1217  0.1030 -0.1207
  567loPI   C3B 9071   0.213  13.867   8.299 -0.1387 -0.0652 -0.1613
  567loPI   C4B 9072   0.142  13.773   8.028  0.3447 -0.1270 -0.0906
  568loPI    C1 9073   2.042  12.368  10.017  0.1606  0.0665 -0.0967
  568loPI    C2 9074   1.941  12.558  10.354  0.0876 -0.0068 -0.0772
  568loPI    C3 9075   2.326  12.515  10.257  0.1058  0.1107 -0.0584
  568loPI   PO4 9076   1.812  12.312   9.890  0.2178  0.0925  0.0287
  568loPI   GL1 9077   1.636  12.390   9.460  0.0312 -0.1013  0.0571
  568loPI   GL2 9078   1.545  11.972   9.526  0.2563 -0.2516  0.1038
  568loPI   C1A 9079   1.757  12.733   9.241  0.1295 -0.0890 -0.1143
  568loPI   C2A 9080   1.658  13.023   8.844  0.0241 -0.2384 -0.2438
  568loPI   C3A 9081   1.865  12.892   8.415  0.1648  0.2579  0.2857
  568loPI   C4A 9082   1.886  12.785   8.000 -0.1799 -0.2754  0.1456
  568loPI   C5A 9083   1.894  12.898   7.566  0.0071  0.0240 -0.2414
  568loPI   C6A 9084   1.760  12.702   7.151  0.0891  0.2771 -0.0274
  568loPI   C1B 9085   1.736  11.742   9.126 -0.0019  0.0190 -0.0184
  568loPI   C2B 9086   1.830  11.619   8.738  0.2483 -0.3169  0.1927
  568loPI   C3B 9087   1.795  11.859   8.253  0.0190  0.4181 -0.1287
  568loPI   C4B 9088   1.929  11.764   7.775 -0.0098 -0.0127 -0.0177
  569loPI    C1 9089   0.154  14.810  10.367  0.2061  0.1658 -0.1660
  569loPI    C2 9090   0.421  14.528  10.464 -0.0133  0.1690  0.5008
  569loPI    C3 9091   0.031  14.442  10.463 -0.0438  0.2703 -0.0789
  569loPI   PO4 9092   0.225  14.933  10.126 -0.3064  0.1149  0.1720
  569loPI   GL1 9093   0.322  14.798   9.657 -0.1539  0.2186 -0.0873
  569loPI   GL2 9094   0.531  14.548   9.542 -0.1825 -0.1261 -0.1586
  569loPI   C1A 9095   0.122  14.737   9.287  0.0320  0.0704 -0.0945
  569loPI   C2A 9096   0.231  14.741   8.939 -0.1261  0.0469 -0.0309
  569loPI   C3A 9097   0.217  14.811   8.479 -0.2413 -0.1998 -0.2312
  569loPI   C4A 9098   0.119  14.802   8.040  0.0072  0.1977 -0.1895
  569loPI   C5A 9099   0.272  14.727   7.672 -0.3639  0.0318 -0.4488
  569loPI   C6A 9100   0.578  14.513   7.354  0.1252 -0.1548 -0.0058
  569loPI   C1B 9101   0.610  14.454   9.139 -0.0662 -0.2484 -0.0462
  569loPI   C2B 9102   0.710  14.520   8.746  0.0701  0.2382  0.1041
  569loPI   C3B 9103   0.744  14.588   8.241 -0.0630  0.3149 -0.2028
  569loPI   C4B 9104   0.898  14.405   7.778 -0.2874  0.0436 -0.5936
  570loPI    C1 9105   3.902   9.909  10.625  0.1059  0.0151  0.0139
  570loPI    C2 9106   3.627   9.618  10.634  0.1740 -0.0619 -0.2884
  570loPI    C3 9107   3.539   9.982  10.777  0.0795 -0.2205  0.0678
  570loPI   PO4 9108   4.059   9.846  10.311 -0.0725  0.0193  0.2738
  570loPI   GL1 9109   4.075   9.687   9.896  0.1321  0.1899 -0.1159
  570loPI   GL2 9110   3.917   9.974   9.820  0.1732  0.3007 -0.0500
  570loPI   C1A 9111   4.067   9.732   9.435 -0.1124  0.1007 -0.1172
  570loPI   C2A 9112   3.773   9.717   8.990  0.0781 -0.1746 -0.0002
  570loPI   C3A 9113   3.843   9.665   8.657  0.3060 -0.2148  0.2124
  570loPI   C4A 9114   4.114   9.517   8.263  0.1390 -0.1442  0.1954
  570loPI   C5A 9115   4.368   9.468   7.829 -0.2528 -0.0495 -0.1621
  570loPI   C6A 9116   4.236   9.147   7.426 -0.1962 -0.2031  0.1200
  570loPI   C1B 9117   3.734  10.093   9.510 -0.0109  0.1244 -0.2235
  570loPI   C2B 9118   3.590  10.150   9.055 -0.0431  0.0572  0.0938
  570loPI   C3B 9119   3.616  10.204   8.686  0.0649 -0.0943  0.1887
  570loPI   C4B 9120   3.725   9.986   8.288 -0.1170  0.0617  0.0620
  571loPI    C1 9121  16.786  10.051  10.111  0.3722 -0.0660  0.0577
  571loPI    C2 9122  17.115   9.936  10.307  0.1276 -0.0821  0.4702
  571loPI    C3 9123  16.830  10.142  10.498 -0.0207  0.0938  0.0695
  571loPI   PO4 9124  16.776  10.096   9.930  0.3402 -0.3410 -0.1188
  571loPI   GL1 9125  16.699  10.120   9.572 -0.3684  0.0116 -0.1691
  571loPI   GL2 9126  16.514  10.417   9.628  0.2513  0.3104 -0.3253
  571loPI   C1A 9127  16.779  10.223   9.158 -0.1889 -0.1992 -0.0401
  571loPI   C2A 9128  16.839  10.220   8.743 -0.0437  0.0459  0.0108
  571loPI   C3A 9129  16.950  10.253   8.297  0.0421  0.1791 -0.3820
  571loPI   C4A 9130  17.088  10.317   7.947 -0.1895 -0.1158  0.1020
  571loPI   C5A 9131  17.372  10.179   7.626 -0.1330  0.1696  0.0680
  571loPI   C6A 9132  17.729  10.164   7.302  0.4704  0.0385 -0.3610
  571loPI   C1B 9133  16.431  10.614   9.313  0.2450 -0.0570  0.0718
  571loPI   C2B 9134  16.461  10.537   8.837  0.0527 -0.3505 -0.2730
  571loPI   C3B 9135  16.348  10.535   8.362  0.1255 -0.1427 -0.2035
  571loPI   C4B 9136  16.565  10.442   7.998  0.0307 -0.3257 -0.2009
  572loPI    C1 9137   7.367  12.420  10.469 -0.1197 -0.1789  0.0888
  572loPI    C2 9138   7.215  12.057  10.397 -0.2576 -0.1583  0.2697
  572loPI    C3 9139   7.080  12.273  10.706 -0.0554 -0.0237  0.2658
  572loPI   PO4 9140   7.373  12.475  10.143 -0.2901  0.2984 -0.1845
  572loPI   GL1 9141   7.397  12.470   9.777  0.1243 -0.1548  0.1363
  572loPI   GL2 9142   7.732  12.327   9.729 -0.1261  0.3560  0.4083
  572loPI   C1A 9143   7.162  12.458   9.372 -0.1104  0.0887 -0.3648
  572loPI   C2A 9144   7.106  12.629   8.880 -0.0709  0.1629 -0.0289
  572loPI   C3A 9145   7.035  12.696   8.447 -0.2407 -0.2328  0.1361
  572loPI   C4A 9146   6.806  12.487   8.065 -0.3492 -0.2200  0.2221
  572loPI   C5A 9147   6.340  12.492   7.908  0.0579  0.3363 -0.0075
  572loPI   C6A 9148   6.001  12.346   7.745  0.0971  0.1459  0.3969
  572loPI   C1B 9149   7.683  12.140   9.278 -0.2293 -0.0444  0.0645
  572loPI   C2B 9150   7.546  12.038   8.859  0.0522  0.2176  0.0996
  572loPI   C3B 9151   7.330  11.810   8.650 -0.1211 -0.1445  0.1280
  572loPI   C4B 9152   7.390  11.984   8.309  0.2483 -0.0568 -0.0896
  573loPI    C1 9153  13.924  17.902   9.994  0.3109  0.1333 -0.0040
  573loPI    C2 9154  13.805  17.690  10.312 -0.2115  0.4280  0.0086
  573loPI    C3 9155  14.166  17.862  10.310 -0.0585  0.1211  0.2844
  573loPI   PO4 9156  13.713  18.114  10.010  0.0959 -0.0329  0.1403
  573loPI   GL1 9157  13.475  18.280   9.611  0.0143 -0.0592  0.0523
  573loPI   GL2 9158  13.515  17.960   9.514  0.1603 -0.1266 -0.2433
  573loPI   C1A 9159  13.211  18.278   9.244  0.0130  0.4686  0.1667
  573loPI   C2A 9160  13.184  18.254   8.761 -0.1214  0.2272 -0.1902
  573loPI   C3A 9161  13.234  18.216   8.292  0.1712 -0.0614  0.2182
  573loPI   C4A 9162  13.139  18.089   7.892  0.0923  0.0032 -0.0968
  573loPI   C5A 9163  12.770  18.090   7.612 -0.2866 -0.1444 -0.0177
  573loPI   C6A 9164  12.521  18.447   7.351  0.2938 -0.2017 -0.4052
  573loPI   C1B 9165  13.665  18.091   9.079  0.1549  0.3409 -0.1065
  573loPI   C2B 9166  13.619  18.117   8.652 -0.1022  0.0333  0.4083
  573loPI   C3B 9167  13.742  17.883   8.311 -0.2319 -0.1492  0.0026
  573loPI   C4B 9168  13.580  17.835   7.857 -0.0553 -0.1537 -0.0748
  574loPI    C1 9169   3.462  10.232  10.012 -0.2134 -0.2965 -0.1456
  574loPI    C2 9170   3.301  10.207  10.377 -0.0399  0.0957 -0.0378
  574loPI    C3 9171   3.552   9.923  10.250  0.1635  0.1267  0.2819
  574loPI   PO4 9172   3.307  10.381   9.883  0.4323  0.2378  0.1377
  574loPI   GL1 9173   3.297  10.393   9.363  0.0262  0.2952 -0.0830
  574loPI   GL2 9174   3.509  10.543   9.464 -0.1358  0.3354  0.0030
  574loPI   C1A 9175   3.313  10.557   8.963 -0.3770 -0.2171  0.2226
  574loPI   C2A 9176   3.188  10.480   8.460 -0.1921 -0.0565 -0.3525
  574loPI   C3A 9177   3.324  10.335   8.128 -0.2988 -0.4175  0.0747
  574loPI   C4A 9178   3.443  10.553   7.876 -0.4727  0.0650 -0.3952
  574loPI   C5A 9179   3.674  10.716   7.506  0.0066  0.2914 -0.0692
  574loPI   C6A 9180   4.092  10.703   7.310 -0.2779  0.1626  0.2321
  574loPI   C1B 9181   3.800  10.627   9.156  0.1011  0.0470  0.0232
  574loPI   C2B 9182   4.021  10.657   8.744 -0.2963  0.2095 -0.1847
  574loPI   C3B 9183   3.998  10.983   8.392 -0.1262  0.1163  0.0138
  574loPI   C4B 9184   3.694  11.031   8.049 -0.2337  0.2745  0.4496
  575loPI    C1 9185   0.291  14.030  10.261  0.1418  0.1984  0.1073
  575loPI    C2 9186   0.144  13.894  10.607  0.1933 -0.1948 -0.0206
  575loPI    C3 9187   0.524  14.016  10.585  0.0846  0.1904  0.1482
  575loPI   PO4 9188   0.084  13.915  10.016 -0.1900 -0.0608 -0.2875
  575loPI   GL1 9189  -0.165  14.025   9.636  0.0251  0.0596  0.0653
  575loPI   GL2 9190  -0.183  14.310   9.456  0.1939 -0.1415  0.1312
  575loPI   C1A 9191  -0.133  13.783   9.235 -0.0917  0.1761  0.1166
  575loPI   C2A 9192  -0.130  13.648   8.746  0.0574 -0.3804 -0.0092
  575loPI   C3A 9193  -0.234  13.561   8.296  0.0502  0.2169 -0.2724
  575loPI   C4A 9194  -0.330  13.456   7.783  0.3617  0.2849  0.0546
  575loPI   C5A 9195  -0.286  13.482   7.301 -0.2068  0.0831 -0.0982
  575loPI   C6A 9196  -0.091  13.341   6.928  0.2748 -0.2735 -0.0962
  575loPI   C1B 9197   0.156  14.184   9.184  0.1147 -0.0086 -0.0571
  575loPI   C2B 9198   0.163  14.277   8.804 -0.3384  0.3829 -0.0791
  575loPI   C3B 9199   0.287  14.342   8.354 -0.0812  0.2317  0.0547
  575loPI   C4B 9200   0.443  14.317   7.934 -0.4604 -0.1142 -0.1420
  576loPI    C1 9201  14.520  11.749  10.209  0.0946 -0.1575  0.3540
  576loPI    C2 9202  14.624  12.106  10.062 -0.1772 -0.2552 -0.0971
  576loPI    C3 9203  14.724  12.007  10.437  0.2975  0.1112 -0.1166
  576loPI   PO4 9204  14.383  11.641  10.018  0.3945  0.2099  0.1400
  576loPI   GL1 9205  14.409  11.555   9.600 -0.2364 -0.1395  0.3108
  576loPI   GL2 9206  14.554  11.197   9.603 -0.1185  0.0069  0.0968
  576loPI   C1A 9207  14.326  11.710   9.106  0.0444  0.0652 -0.1023
  576loPI   C2A 9208  14.385  11.692   8.603 -0.1399 -0.0977  0.0522
  576loPI   C3A 9209  14.638  11.589   8.275  0.1327 -0.1717 -0.0861
  576loPI   C4A 9210  14.731  11.610   7.737  0.0500  0.0503  0.0813
  576loPI   C5A 9211  15.032  11.784   7.330 -0.0046  0.1309  0.1925
  576loPI   C6A 9212  15.183  11.971   6.897 -0.1238 -0.1258 -0.5348
  576loPI   C1B 9213  14.580  11.162   9.126  0.1669  0.3440  0.0309
  576loPI   C2B 9214  14.623  11.149   8.692  0.0956 -0.0973  0.0912
  576loPI   C3B 9215  14.733  11.014   8.381  0.0848 -0.1842  0.0604
  576loPI   C4B 9216  14.919  10.821   8.001  0.3178  0.1789  0.0231
  577loPI    C1 9217   4.963  16.066  10.612 -0.0848 -0.1182  0.0982
  577loPI    C2 9218   5.044  15.678  10.665 -0.0200 -0.1154  0.0223
  577loPI    C3 9219   4.885  15.892  10.963 -0.0003 -0.1859  0.0839
  577loPI   PO4 9220   5.086  16.077  10.334  0.0969  0.0269  0.1241
  577loPI   GL1 9221   5.252  16.084   9.968  0.1584  0.4020 -0.0059
  577loPI   GL2 9222   4.940  15.971   9.848 -0.3049  0.1276  0.0294
  577loPI   C1A 9223   5.388  16.230   9.602  0.1107  0.1856 -0.1002
  577loPI   C2A 9224   5.487  16.327   9.292 -0.3146  0.0922  0.1064
  577loPI   C3A 9225   5.625  16.169   8.939  0.1535 -0.0200 -0.0838
  577loPI   C4A 9226   5.692  16.166   8.431 -0.1328  0.2417  0.0126
  577loPI   C5A 9227   5.853  16.330   7.955  0.2226  0.1943 -0.2018
  577loPI   C6A 9228   5.904  16.288   7.419 -0.0242 -0.1919 -0.0607
  577loPI   C1B 9229   5.092  15.937   9.385 -0.1428  0.2256 -0.0847
  577loPI   C2B 9230   5.139  15.987   8.951  0.0942 -0.0972  0.2479
  577loPI   C3B 9231   5.269  15.995   8.531 -0.0279 -0.2266 -0.1350
  577loPI   C4B 9232   5.353  15.922   8.054  0.1018 -0.2190  0.1539
  578loPI    C1 9233   3.782   2.162  10.520  0.2937 -0.1610  0.3427
  578loPI    C2 9234   3.498   1.918  10.660 -0.1130  0.0413 -0.1017
  578loPI    C3 9235   3.494   2.306  10.756 -0.0293  0.0594 -0.1697
  578loPI   PO4 9236   3.872   2.010  10.304 -0.1911 -0.1352 -0.1692
  578loPI   GL1 9237   4.141   2.192   9.974 -0.1826  0.1508 -0.1380
  578loPI   GL2 9238   3.982   1.875   9.836 -0.1789 -0.3326 -0.1738
  578loPI   C1A 9239   4.093   2.218   9.487 -0.0685  0.3170 -0.0955
  578loPI   C2A 9240   4.078   2.240   9.086 -0.0431  0.1785  0.0209
  578loPI   C3A 9241   4.094   2.047   8.747  0.0009 -0.0674 -0.1243
  578loPI   C4A 9242   4.048   2.035   8.259 -0.1783  0.1577  0.2695
  578loPI   C5A 9243   4.168   2.214   7.847 -0.0488 -0.1459 -0.1682
  578loPI   C6A 9244   4.156   2.608   7.608 -0.3737 -0.0646 -0.1839
  578loPI   C1B 9245   4.107   1.688   9.391 -0.1867 -0.2149 -0.2657
  578loPI   C2B 9246   4.088   1.580   8.973 -0.0511  0.0730 -0.1777
  578loPI   C3B 9247   4.097   1.576   8.522  0.0473 -0.2200 -0.3148
  578loPI   C4B 9248   3.989   1.585   8.157  0.1988  0.3338 -0.2364
  579loPI    C1 9249   2.461  17.000  10.340  0.1689  0.0337  0.1991
  579loPI    C2 9250   2.068  16.949  10.283  0.2557 -0.1334 -0.2948
  579loPI    C3 9251   2.217  16.954  10.654 -0.1977 -0.1676 -0.1059
  579loPI   PO4 9252   2.558  16.859  10.154  0.2517  0.0392  0.0714
  579loPI   GL1 9253   2.480  16.620   9.667  0.1756 -0.0686  0.0475
  579loPI   GL2 9254   2.771  16.687   9.651  0.0484 -0.3629 -0.1932
  579loPI   C1A 9255   2.565  16.435   9.276  0.1553 -0.0033 -0.0074
  579loPI   C2A 9256   2.826  16.476   8.864  0.2802 -0.0804 -0.2513
  579loPI   C3A 9257   2.909  16.482   8.433  0.1546  0.2014 -0.1366
  579loPI   C4A 9258   3.018  16.325   8.055 -0.1700  0.1477  0.0936
  579loPI   C5A 9259   3.247  16.252   7.640 -0.0538  0.2185 -0.0031
  579loPI   C6A 9260   3.571  16.409   7.416 -0.2239 -0.2155 -0.0156
  579loPI   C1B 9261   3.024  16.695   9.366  0.1548  0.0488  0.0609
  579loPI   C2B 9262   3.187  16.801   8.948  0.3427  0.0334  0.0830
  579loPI   C3B 9263   3.255  16.909   8.545  0.0650 -0.0280  0.1307
  579loPI   C4B 9264   3.584  17.008   8.275 -0.1498  0.3479  0.3888
  580loPI    C1 9265   7.054  12.832  10.261  0.0998 -0.0108  0.1841
  580loPI    C2 9266   7.367  12.977  10.463  0.1051  0.1173  0.0847
  580loPI    C3 9267   7.033  12.876  10.658  0.0849  0.3065  0.1501
  580loPI   PO4 9268   7.105  12.841  10.006  0.2275  0.0662  0.2145
  580loPI   GL1 9269   7.049  12.910   9.533  0.1339 -0.1110  0.0091
  580loPI   GL2 9270   7.004  13.287   9.637  0.3192 -0.1922 -0.1375
  580loPI   C1A 9271   7.254  13.020   9.116 -0.0473 -0.1259  0.0059
  580loPI   C2A 9272   7.424  12.985   8.655  0.1919  0.2418  0.1319
  580loPI   C3A 9273   7.417  13.076   8.195 -0.0837  0.1660  0.1512
  580loPI   C4A 9274   7.572  12.862   7.825 -0.3719 -0.0306 -0.2007
  580loPI   C5A 9275   7.815  12.590   7.536 -0.0689  0.1114  0.1292
  580loPI   C6A 9276   8.030  12.630   7.115  0.1555 -0.2011  0.1859
  580loPI   C1B 9277   6.773  13.163   9.262  0.0768 -0.0025 -0.1753
  580loPI   C2B 9278   6.904  13.175   8.844  0.1545  0.1031  0.0626
  580loPI   C3B 9279   6.918  13.276   8.391  0.4131 -0.0095 -0.1025
  580loPI   C4B 9280   7.012  13.378   7.992  0.0674 -0.2576 -0.3971
  581loPI    C1 9281   1.373  18.305  10.148 -0.0435  0.1539 -0.0134
  581loPI    C2 9282   1.361  18.600   9.877 -0.0661  0.1924  0.0295
  581loPI    C3 9283   1.083  18.580  10.165  0.0926  0.2872  0.1913
  581loPI   PO4 9284   1.465  18.092  10.019  0.2229  0.1348  0.4065
  581loPI   GL1 9285   1.424  17.878   9.623 -0.0797 -0.2395 -0.2167
  581loPI   GL2 9286   1.239  17.605   9.535  0.2090 -0.0012  0.0781
  581loPI   C1A 9287   1.506  18.006   9.369 -0.2462 -0.0268  0.3531
  581loPI   C2A 9288   1.675  18.136   8.928 -0.0776  0.0900  0.0602
  581loPI   C3A 9289   1.658  18.215   8.508 -0.0974 -0.0233 -0.1891
  581loPI   C4A 9290   1.689  18.199   8.126 -0.0674 -0.3922 -0.0331
  581loPI   C5A 9291   1.555  18.286   7.786  0.0519 -0.1988 -0.0018
  581loPI   C6A 9292   1.818  18.128   7.408 -0.3594 -0.3824  0.2157
  581loPI   C1B 9293   1.127  17.768   9.163 -0.0280  0.2531 -0.3134
  581loPI   C2B 9294   1.159  17.745   8.674 -0.1531  0.2452 -0.3441
  581loPI   C3B 9295   1.004  17.525   8.296  0.0174  0.1991  0.2874
  581loPI   C4B 9296   1.096  17.258   7.893  0.0175 -0.2286  0.1387
  582loPI    C1 9297   4.532  11.920  10.539  0.0455 -0.0011 -0.1334
  582loPI    C2 9298   4.779  11.858  10.848 -0.0873 -0.1133 -0.0485
  582loPI    C3 9299   4.446  12.074  10.898  0.0063  0.0608 -0.1691
  582loPI   PO4 9300   4.766  12.084  10.359 -0.2325  0.0296  0.3085
  582loPI   GL1 9301   4.786  11.878   9.894  0.0455  0.1663 -0.2071
  582loPI   GL2 9302   4.857  11.600   9.918 -0.0723  0.2148 -0.3676
  582loPI   C1A 9303   4.871  11.787   9.490  0.3169  0.2839  0.0143
  582loPI   C2A 9304   4.725  11.717   9.048 -0.2990 -0.1061 -0.1562
  582loPI   C3A 9305   4.812  11.683   8.658 -0.0013  0.0080 -0.1320
  582loPI   C4A 9306   4.905  11.709   8.129 -0.1378 -0.0453 -0.2213
  582loPI   C5A 9307   5.179  11.693   7.777  0.2569  0.1377 -0.1152
  582loPI   C6A 9308   5.442  11.861   7.557 -0.0073 -0.0516  0.0454
  582loPI   C1B 9309   5.301  11.509   9.696 -0.0764 -0.0009  0.0192
  582loPI   C2B 9310   5.140  11.455   9.243  0.0160 -0.2011 -0.1638
  582loPI   C3B 9311   4.927  11.272   8.921 -0.0699  0.1860 -0.0022
  582loPI   C4B 9312   4.982  11.097   8.425 -0.2570 -0.1142  0.3941
  583loPI    C1 9313   3.446   2.735  10.443 -0.0676  0.0254 -0.1157
  583loPI    C2 9314   3.126   2.930  10.583 -0.1545 -0.1583 -0.0540
  583loPI    C3 9315   3.426   2.834  10.830  0.0467  0.1959 -0.1523
  583loPI   PO4 9316   3.374   2.788  10.125 -0.0369  0.1236  0.2841
  583loPI   GL1 9317   3.176   2.776   9.809 -0.4541 -0.0449  0.1480
  583loPI   GL2 9318   2.852   2.700   9.686  0.0672  0.0877 -0.0366
  583loPI   C1A 9319   3.125   2.742   9.267  0.0602 -0.3312  0.0960
  583loPI   C2A 9320   3.170   2.706   8.792 -0.3346  0.0205  0.0679
  583loPI   C3A 9321   3.331   2.786   8.433  0.1470  0.1530  0.2073
  583loPI   C4A 9322   3.256   2.687   8.067  0.0023 -0.2560  0.2930
  583loPI   C5A 9323   3.257   2.668   7.581  0.0914  0.1820  0.1947
  583loPI   C6A 9324   3.319   2.721   7.125 -0.1179 -0.5139 -0.2165
  583loPI   C1B 9325   2.636   2.894   9.372 -0.0133  0.1001 -0.3883
  583loPI   C2B 9326   2.651   2.996   8.936 -0.0874 -0.3807  0.3499
  583loPI   C3B 9327   2.747   2.996   8.515  0.2411 -0.4434 -0.1539
  583loPI   C4B 9328   2.773   2.919   8.186 -0.1962 -0.0789 -0.1760
  584loPI    C1 9329   1.548   7.939  10.641 -0.3353 -0.0162 -0.0291
  584loPI    C2 9330   1.731   8.291  10.693 -0.1254 -0.1280 -0.0004
  584loPI    C3 9331   1.705   8.032  10.997 -0.0489 -0.2440 -0.0918
  584loPI   PO4 9332   1.477   8.037  10.396  0.4300  0.1116 -0.0637
  584loPI   GL1 9333   1.444   7.911   9.945 -0.1774  0.1450  0.0302
  584loPI   GL2 9334   1.726   8.090   9.909  0.0185  0.0852  0.1896
  584loPI   C1A 9335   1.344   7.955   9.477 -0.2274  0.1321 -0.2340
  584loPI   C2A 9336   1.311   8.090   9.095 -0.2951  0.2339 -0.1010
  584loPI   C3A 9337   1.290   7.940   8.630 -0.1446  0.1344  0.3873
  584loPI   C4A 9338   1.099   7.949   8.183 -0.1414 -0.0835  0.0701
  584loPI   C5A 9339   0.883   7.937   7.768  0.0251 -0.0362 -0.1432
  584loPI   C6A 9340   0.348   7.986   7.690  0.0081 -0.0196 -0.1663
  584loPI   C1B 9341   1.779   8.281   9.516  0.2936  0.3168 -0.1776
  584loPI   C2B 9342   2.045   8.441   9.227  0.1195  0.0980 -0.2636
  584loPI   C3B 9343   2.175   8.374   8.816 -0.0872 -0.0603  0.2752
  584loPI   C4B 9344   2.171   8.298   8.297 -0.2085 -0.3704 -0.0164
  585loPI    C1 9345   0.608  17.444   9.864  0.2219  0.0424  0.0872
  585loPI    C2 9346   0.453  17.172   9.615 -0.0037  0.1772  0.0783
  585loPI    C3 9347   0.314  17.203   9.989  0.1332  0.1726  0.1303
  585loPI   PO4 9348   0.818  17.432   9.804 -0.1310 -0.0556 -0.2709
  585loPI   GL1 9349   0.938  17.179   9.418  0.0164  0.2303  0.2537
  585loPI   GL2 9350   1.271  16.988   9.328 -0.3880  0.2674  0.2539
  585loPI   C1A 9351   0.974  17.285   9.008 -0.4668 -0.6020  0.0193
  585loPI   C2A 9352   0.944  17.078   8.629 -0.0536  0.1305  0.0478
  585loPI   C3A 9353   0.943  16.840   8.261  0.1567 -0.1114  0.2298
  585loPI   C4A 9354   0.786  16.665   7.931  0.1515  0.1826  0.2651
  585loPI   C5A 9355   0.809  16.581   7.490  0.1374  0.1310 -0.0347
  585loPI   C6A 9356   0.624  16.838   7.116  0.1765  0.0873  0.1823
  585loPI   C1B 9357   1.412  17.278   8.865  0.0593  0.0066 -0.1384
  585loPI   C2B 9358   1.389  17.202   8.392  0.1100  0.2479 -0.0951
  585loPI   C3B 9359   1.566  17.122   7.938 -0.0321  0.1101 -0.3130
  585loPI   C4B 9360   1.486  17.205   7.557 -0.3032  0.0124 -0.2450
  586loPI    C1 9361   8.815   0.238  10.747 -0.1449 -0.1462  0.0390
  586loPI    C2 9362   8.884  -0.100  10.950 -0.1774 -0.0025  0.2942
  586loPI    C3 9363   8.800   0.238  11.147 -0.2948  0.1222  0.0358
  586loPI   PO4 9364   8.748   0.148  10.535 -0.0353  0.0444 -0.2678
  586loPI   GL1 9365   8.869   0.120  10.172  0.0365 -0.1492 -0.1397
  586loPI   GL2 9366   8.600   0.015  10.059 -0.0109 -0.0244 -0.1265
  586loPI   C1A 9367   9.068   0.229   9.861  0.4207 -0.1341  0.2957
  586loPI   C2A 9368   9.110   0.248   9.450 -0.1952  0.1617 -0.0594
  586loPI   C3A 9369   9.079   0.113   9.101  0.1489 -0.3628  0.1467
  586loPI   C4A 9370   9.062   0.301   8.781 -0.0541 -0.2232 -0.0861
  586loPI   C5A 9371   8.977   0.480   8.347 -0.3915  0.4290  0.0024
  586loPI   C6A 9372   8.805   0.431   7.901  0.0254 -0.0327 -0.3344
  586loPI   C1B 9373   8.654   0.031   9.638  0.0006  0.0346 -0.1217
  586loPI   C2B 9374   8.547   0.095   9.185  0.3743  0.0074  0.1025
  586loPI   C3B 9375   8.668  -0.130   8.772 -0.0102  0.0641  0.0705
  586loPI   C4B 9376   8.543  -0.518   8.447 -0.2260  0.1898 -0.0953
  587loPI    C1 9377  12.963  16.382   9.802 -0.0644 -0.0678 -0.0295
  587loPI    C2 9378  12.722  16.465  10.111 -0.2263 -0.3129 -0.0871
  587loPI    C3 9379  12.959  16.143  10.123 -0.0160 -0.1614 -0.0982
  587loPI   PO4 9380  12.812  16.516   9.598 -0.0739 -0.1851 -0.0500
  587loPI   GL1 9381  12.772  16.354   9.143  0.0123 -0.0809 -0.0075
  587loPI   GL2 9382  13.068  16.459   9.132  0.3123 -0.1478  0.3203
  587loPI   C1A 9383  12.883  16.332   8.680  0.2903 -0.0465 -0.2789
  587loPI   C2A 9384  12.949  16.305   8.364 -0.2744  0.0648 -0.0274
  587loPI   C3A 9385  13.157  16.021   8.003 -0.1694  0.2389 -0.5376
  587loPI   C4A 9386  13.550  15.966   7.800 -0.2076 -0.3762 -0.4473
  587loPI   C5A 9387  13.689  16.050   7.408  0.2614 -0.0148 -0.1624
  587loPI   C6A 9388  14.013  15.937   7.087 -0.0847 -0.1211  0.2073
  587loPI   C1B 9389  13.358  16.572   8.714 -0.3604  0.2746 -0.0865
  587loPI   C2B 9390  13.345  16.615   8.274 -0.1669  0.4343  0.0537
  587loPI   C3B 9391  13.158  16.506   7.829  0.1891  0.4020 -0.1578
  587loPI   C4B 9392  13.200  16.274   7.391 -0.1153 -0.2168  0.0771
  588loPI    C1 9393   9.006   1.775  10.885 -0.1040  0.1584 -0.1967
  588loPI    C2 9394   9.046   2.172  10.914  0.0382  0.1365 -0.0815
  588loPI    C3 9395   8.716   1.993  11.054  0.1694  0.1674  0.2782
  588loPI   PO4 9396   9.093   1.843  10.527 -0.0133  0.2183 -0.0839
  588loPI   GL1 9397   8.848   1.826  10.159  0.1102  0.3226  0.1423
  588loPI   GL2 9398   8.955   1.522  10.115 -0.0604 -0.3136 -0.0398
  588loPI   C1A 9399   8.934   1.942   9.823  0.1292 -0.0786 -0.2212
  588loPI   C2A 9400   8.840   1.975   9.394  0.1295  0.0352  0.1376
  588loPI   C3A 9401   8.769   1.813   9.020 -0.1753 -0.1484 -0.2066
  588loPI   C4A 9402   8.642   1.884   8.635 -0.3347 -0.1759  0.0315
  588loPI   C5A 9403   8.563   2.048   8.335  0.1995 -0.0473  0.4629
  588loPI   C6A 9404   8.293   1.956   8.067  0.1533  0.0847  0.0747
  588loPI   C1B 9405   8.904   1.356   9.834 -0.0653 -0.2541 -0.0177
  588loPI   C2B 9406   8.885   1.368   9.469  0.1015 -0.3755 -0.1668
  588loPI   C3B 9407   8.838   1.265   9.140  0.2329  0.0420  0.2043
  588loPI   C4B 9408   8.760   1.394   8.684  0.0408 -0.0466 -0.0013
  589loPI    C1 9409   3.569   5.616  10.598  0.3205 -0.1014  0.1775
  589loPI    C2 9410   3.712   5.803  10.921  0.1821  0.0414  0.1576
  589loPI    C3 9411   3.317   5.770  10.867  0.1978  0.3517 -0.1835
  589loPI   PO4 9412   3.754   5.650  10.453  0.0942 -0.2782 -0.0180
  589loPI   GL1 9413   3.890   5.519  10.059  0.0293 -0.1081 -0.0412
  589loPI   GL2 9414   3.475   5.547   9.988 -0.0078 -0.3151 -0.4014
  589loPI   C1A 9415   4.047   5.574   9.590  0.0982 -0.1177  0.2218
  589loPI   C2A 9416   4.088   5.464   9.220  0.0558  0.0110  0.1428
  589loPI   C3A 9417   4.150   5.330   8.829 -0.1443 -0.0578  0.2095
  589loPI   C4A 9418   4.206   5.185   8.339 -0.3106 -0.0697  0.1781
  589loPI   C5A 9419   4.505   5.492   8.113 -0.0313  0.2299 -0.2643
  589loPI   C6A 9420   4.804   5.283   7.824 -0.0064 -0.3589 -0.3245
  589loPI   C1B 9421   3.614   5.749   9.677  0.2658  0.0835  0.1934
  589loPI   C2B 9422   3.563   5.757   9.337 -0.1162 -0.3128 -0.0909
  589loPI   C3B 9423   3.676   5.778   8.921 -0.3779 -0.1555 -0.0630
  589loPI   C4B 9424   3.589   5.587   8.522 -0.2240 -0.0894 -0.3535
  590loPI    C1 9425   0.866   8.721  10.182  0.2088  0.0993  0.0405
  590loPI    C2 9426   1.032   8.535  10.494  0.1076 -0.1399 -0.0464
  590loPI    C3 9427   0.636   8.590  10.481  0.1499  0.2057  0.0425
  590loPI   PO4 9428   0.972   8.654   9.966 -0.0913 -0.4970 -0.1414
  590loPI   GL1 9429   1.106   8.386   9.627 -0.1794 -0.3931  0.3062
  590loPI   GL2 9430   1.350   8.611   9.642  0.0413  0.3081  0.0336
  590loPI   C1A 9431   0.939   8.363   9.232  0.1091  0.0107  0.0616
  590loPI   C2A 9432   1.045   8.424   8.803 -0.1041  0.3596 -0.0357
  590loPI   C3A 9433   1.134   8.434   8.361  0.0178  0.1426  0.1162
  590loPI   C4A 9434   1.107   8.400   7.939 -0.4197 -0.4627  0.2844
  590loPI   C5A 9435   0.782   8.388   7.715 -0.0580 -0.2592 -0.1567
  590loPI   C6A 9436   0.504   8.477   7.348 -0.0701 -0.0532  0.2719
  590loPI   C1B 9437   1.408   8.582   9.246 -0.3597 -0.1788  0.0178
  590loPI   C2B 9438   1.668   8.490   8.852 -0.0919 -0.0557 -0.2492
  590loPI   C3B 9439   1.591   8.293   8.431  0.3626 -0.0628  0.1843
  590loPI   C4B 9440   1.532   8.149   8.006 -0.0496  0.2896  0.3139
  591loPI    C1 9441   1.321   5.542  10.324  0.0568 -0.0659 -0.0526
  591loPI    C2 9442   1.239   5.158  10.252 -0.1323 -0.0632  0.1369
  591loPI    C3 9443   1.446   5.260  10.579  0.1957 -0.0272 -0.0770
  591loPI   PO4 9444   1.107   5.710  10.347 -0.1526 -0.3677 -0.0424
  591loPI   GL1 9445   0.849   5.915   9.998 -0.2313 -0.1994 -0.1728
  591loPI   GL2 9446   1.223   6.021   9.896 -0.0672  0.2699  0.2120
  591loPI   C1A 9447   0.834   5.977   9.583 -0.2606  0.0055  0.0033
  591loPI   C2A 9448   0.603   5.964   9.187  0.3248 -0.0443 -0.4191
  591loPI   C3A 9449   0.487   5.932   8.712 -0.2021  0.2107  0.1530
  591loPI   C4A 9450   0.545   6.069   8.312 -0.2114  0.1183  0.2345
  591loPI   C5A 9451   0.723   5.949   7.937 -0.2497  0.1254  0.0849
  591loPI   C6A 9452   0.536   5.947   7.606  0.2747 -0.2159  0.0507
  591loPI   C1B 9453   1.296   5.809   9.422  0.4114  0.0996  0.1212
  591loPI   C2B 9454   1.454   5.917   8.952  0.0841  0.1250 -0.1201
  591loPI   C3B 9455   1.443   5.906   8.574  0.1546 -0.0793 -0.0886
  591loPI   C4B 9456   1.601   5.911   8.104 -0.1413  0.0169 -0.1224
  592loPI    C1 9457   6.948  18.825  11.066 -0.1166 -0.0938 -0.0659
  592loPI    C2 9458   7.341  18.893  11.033 -0.1317  0.1605  0.2283
  592loPI    C3 9459   7.208  18.615  11.287 -0.1349 -0.0782 -0.0296
  592loPI   PO4 9460   6.897  18.716  10.826  0.2277 -0.0868  0.2091
  592loPI   GL1 9461   6.982  18.591  10.276  0.0756  0.1141 -0.0786
  592loPI   GL2 9462   6.655  18.443  10.205 -0.3121 -0.1685 -0.0773
  592loPI   C1A 9463   7.269  18.436   9.986 -0.1445 -0.1530 -0.1513
  592loPI   C2A 9464   7.322  18.456   9.595 -0.0136  0.1727 -0.2157
  592loPI   C3A 9465   7.236  18.483   9.185  0.1021 -0.0189  0.2320
  592loPI   C4A 9466   7.123  18.491   8.802  0.3484  0.1273 -0.0160
  592loPI   C5A 9467   7.084  18.505   8.365  0.0048 -0.0666 -0.1532
  592loPI   C6A 9468   7.281  18.501   8.061 -0.4170  0.1547 -0.0081
  592loPI   C1B 9469   6.837  18.600   9.798 -0.1803 -0.0073 -0.0702
  592loPI   C2B 9470   6.739  18.671   9.412  0.1673 -0.2465  0.2407
  592loPI   C3B 9471   6.733  18.763   8.926 -0.2399  0.1270 -0.2818
  592loPI   C4B 9472   6.655  18.795   8.475  0.2255  0.3148  0.0336
  593loPI    C1 9473   1.520   1.706  10.158  0.0157 -0.0787 -0.0042
  593loPI    C2 9474   1.408   2.067  10.288  0.1397 -0.0044 -0.1018
  593loPI    C3 9475   1.303   1.739  10.492  0.0739  0.0903  0.0176
  593loPI   PO4 9476   1.534   1.725   9.899 -0.1204  0.0028 -0.1572
  593loPI   GL1 9477   1.726   1.626   9.537 -0.1556 -0.0284 -0.0240
  593loPI   GL2 9478   1.675   1.984   9.459  0.1048  0.3257  0.1755
  593loPI   C1A 9479   1.847   1.507   9.111 -0.0884  0.1788  0.1413
  593loPI   C2A 9480   1.847   1.556   8.678  0.2247  0.3728 -0.4170
  593loPI   C3A 9481   1.703   1.448   8.217 -0.0460  0.1793  0.3814
  593loPI   C4A 9482   1.805   1.371   7.813 -0.0445 -0.0580 -0.3576
  593loPI   C5A 9483   1.739   1.626   7.413 -0.2065  0.0834  0.0212
  593loPI   C6A 9484   1.535   1.676   7.034  0.0743 -0.0847 -0.3456
  593loPI   C1B 9485   1.777   1.951   9.018 -0.4479  0.0403  0.1171
  593loPI   C2B 9486   1.869   2.060   8.637  0.3477  0.1073 -0.0433
  593loPI   C3B 9487   1.824   1.940   8.223  0.1537  0.0505 -0.0926
  593loPI   C4B 9488   1.854   1.946   7.847  0.0856 -0.0724  0.0592
  594loPI    C1 9489   5.140   6.425  10.923  0.0066 -0.2339  0.2499
  594loPI    C2 9490   5.187   6.784  11.094  0.1963 -0.1359 -0.0013
  594loPI    C3 9491   5.054   6.475  11.310  0.1142  0.0639  0.2383
  594loPI   PO4 9492   4.992   6.462  10.718 -0.0628  0.2252  0.1961
  594loPI   GL1 9493   5.204   6.315  10.358  0.3197 -0.1106 -0.5882
  594loPI   GL2 9494   4.882   6.255  10.206  0.2218  0.1466 -0.0123
  594loPI   C1A 9495   5.433   6.278  10.131  0.1088  0.0382 -0.2051
  594loPI   C2A 9496   5.404   6.202   9.760  0.0404 -0.2571  0.3350
  594loPI   C3A 9497   5.434   6.018   9.334  0.0096 -0.0348 -0.0851
  594loPI   C4A 9498   5.503   6.145   8.866 -0.0082 -0.2121  0.1246
  594loPI   C5A 9499   5.773   5.943   8.470  0.1628 -0.2317 -0.1427
  594loPI   C6A 9500   5.975   5.734   8.153  0.0313  0.2286  0.0582
  594loPI   C1B 9501   4.929   6.402   9.765 -0.0638  0.0444 -0.4167
  594loPI   C2B 9502   5.039   6.358   9.295  0.0901  0.0187  0.2167
  594loPI   C3B 9503   4.981   6.418   8.842  0.0593 -0.1750  0.0584
  594loPI   C4B 9504   5.034   6.315   8.391 -0.0858  0.0633  0.1353
  595loPI    C1 9505   6.932   0.746  10.722  0.2139 -0.1059 -0.0495
  595loPI    C2 9506   7.071   0.493  10.998  0.0725  0.0867  0.2018
  595loPI    C3 9507   6.765   0.736  11.085  0.0332  0.1572 -0.1218
  595loPI   PO4 9508   7.194   0.678  10.509  0.1743  0.0928  0.1471
  595loPI   GL1 9509   7.421   0.576  10.222  0.0829  0.1342  0.4437
  595loPI   GL2 9510   7.136   0.489  10.016  0.0271  0.0084  0.5210
  595loPI   C1A 9511   7.652   0.422   9.823 -0.0480 -0.1302 -0.0256
  595loPI   C2A 9512   7.694   0.412   9.483 -0.1813  0.1541  0.1763
  595loPI   C3A 9513   7.671   0.445   9.079 -0.1557  0.0487  0.1374
  595loPI   C4A 9514   7.579   0.363   8.682  0.0803 -0.2718 -0.0492
  595loPI   C5A 9515   7.745   0.412   8.228 -0.3607 -0.0150  0.0683
  595loPI   C6A 9516   7.781   0.348   7.827  0.1533  0.2317  0.1477
  595loPI   C1B 9517   7.183   0.603   9.617  0.0284  0.0419  0.2911
  595loPI   C2B 9518   7.206   0.638   9.176  0.1054 -0.2684 -0.1120
  595loPI   C3B 9519   7.163   0.679   8.675  0.0753  0.1505 -0.2144
  595loPI   C4B 9520   7.196   0.675   8.238 -0.0053  0.3326  0.0184
  596loPI    C1 9521  11.544   4.788  10.676 -0.2153 -0.0680  0.0500
  596loPI    C2 9522  11.881   4.996  10.731 -0.1896 -0.1222  0.0987
  596loPI    C3 9523  11.862   4.613  10.845 -0.2945 -0.0957  0.1721
  596loPI   PO4 9524  11.439   4.848  10.445  0.0238  0.3455 -0.3639
  596loPI   GL1 9525  11.325   5.062  10.138  0.1015  0.0051 -0.1474
  596loPI   GL2 9526  11.183   5.299   9.922 -0.1722  0.2123  0.1330
  596loPI   C1A 9527  11.610   5.019   9.762 -0.4197  0.3525  0.2905
  596loPI   C2A 9528  11.585   5.118   9.265  0.0105 -0.1090  0.3704
  596loPI   C3A 9529  11.572   5.097   8.737  0.0072 -0.1377 -0.0199
  596loPI   C4A 9530  11.443   4.978   8.365  0.2050  0.0213 -0.0921
  596loPI   C5A 9531  11.612   4.608   8.069 -0.1774  0.1248  0.0244
  596loPI   C6A 9532  11.549   4.323   7.891 -0.1805  0.2538  0.0422
  596loPI   C1B 9533  11.110   5.238   9.425  0.1570  0.0641  0.1062
  596loPI   C2B 9534  11.111   5.352   9.034  0.1545  0.1732 -0.0547
  596loPI   C3B 9535  10.998   5.332   8.587 -0.0052 -0.4160  0.0703
  596loPI   C4B 9536  11.120   5.289   8.117  0.0033  0.2231 -0.0307
  597loPI    C1 9537   8.700  13.282  10.299 -0.0605  0.2233 -0.0159
  597loPI    C2 9538   8.896  12.949  10.402 -0.2185  0.0823 -0.1652
  597loPI    C3 9539   8.834  13.236  10.673 -0.1459 -0.0419 -0.0154
  597loPI   PO4 9540   8.596  13.277   9.997 -0.1174  0.0015 -0.0766
  597loPI   GL1 9541   8.697  13.314   9.630  0.1559  0.0279  0.0549
  597loPI   GL2 9542   9.057  13.227   9.525  0.1547  0.1414 -0.1172
  597loPI   C1A 9543   8.456  13.205   9.294  0.1444 -0.0776 -0.2220
  597loPI   C2A 9544   8.353  13.184   8.814 -0.0942 -0.4352 -0.1965
  597loPI   C3A 9545   8.275  13.110   8.411 -0.2136 -0.0339  0.0538
  597loPI   C4A 9546   8.536  13.252   8.126  0.2210  0.0153  0.0860
  597loPI   C5A 9547   8.630  13.407   7.722 -0.1059  0.1136 -0.0721
  597loPI   C6A 9548   8.463  13.480   7.279  0.0514  0.1068  0.0886
  597loPI   C1B 9549   8.957  13.282   9.009  0.2021  0.1215 -0.0433
  597loPI   C2B 9550   8.719  13.476   8.619  0.3871 -0.2629 -0.0727
  597loPI   C3B 9551   8.853  13.583   8.130  0.0166  0.0149 -0.0361
  597loPI   C4B 9552   9.121  13.418   7.791 -0.0207 -0.1673  0.2106
  598loPI    C1 9553   3.789  10.326  10.350  0.1677  0.1057 -0.0243
  598loPI    C2 9554   3.906  10.384  10.728 -0.0364 -0.2930  0.1057
  598loPI    C3 9555   3.566  10.548  10.597  0.1398  0.0191  0.0286
  598loPI   PO4 9556   4.034  10.331  10.213  0.0028  0.0550  0.0885
  598loPI   GL1 9557   4.226  10.446   9.751  0.0251 -0.0413 -0.0161
  598loPI   GL2 9558   4.459  10.746   9.669  0.1707 -0.0969  0.1085
  598loPI   C1A 9559   4.377  10.129   9.432  0.0129  0.0578 -0.1454
  598loPI   C2A 9560   4.564  10.168   8.914  0.3038 -0.0778 -0.1435
  598loPI   C3A 9561   4.659  10.142   8.537  0.0129 -0.1786  0.0464
  598loPI   C4A 9562   4.899  10.165   8.161 -0.2148  0.1008  0.0436
  598loPI   C5A 9563   5.267  10.298   7.915 -0.1220 -0.0130  0.0301
  598loPI   C6A 9564   5.354  10.598   7.651  0.2410 -0.0151 -0.1520
  598loPI   C1B 9565   4.297  10.585   9.294 -0.0778 -0.1135  0.0882
  598loPI   C2B 9566   4.063  10.182   9.026  0.1186  0.2028  0.0414
  598loPI   C3B 9567   4.121  10.153   8.569 -0.0282  0.1170  0.1223
  598loPI   C4B 9568   4.326  10.432   8.246  0.1098  0.0880  0.3311
  599loPI    C1 9569  13.696  11.242  10.283  0.0248  0.0753 -0.0637
  599loPI    C2 9570  13.638  11.621  10.170 -0.0515  0.0627 -0.0669
  599loPI    C3 9571  13.998  11.504  10.298 -0.0975  0.2055  0.2019
  599loPI   PO4 9572  13.638  11.031  10.039  0.0743 -0.0654 -0.0385
  599loPI   GL1 9573  13.729  10.907   9.566  0.4650  0.1496 -0.2126
  599loPI   GL2 9574  13.534  10.996   9.536  0.2413  0.3680 -0.1674
  599loPI   C1A 9575  13.690  10.653   9.163  0.1283  0.2918 -0.1353
  599loPI   C2A 9576  13.767  10.548   8.678  0.1817 -0.0123  0.1892
  599loPI   C3A 9577  13.885  10.574   8.266 -0.0601  0.1734  0.2174
  599loPI   C4A 9578  13.572  10.846   8.002  0.0485 -0.1441 -0.0351
  599loPI   C5A 9579  13.206  10.887   7.722 -0.4300  0.2415  0.1591
  599loPI   C6A 9580  13.018  10.621   7.507 -0.1672 -0.0365  0.1518
  599loPI   C1B 9581  13.570  11.143   9.097  0.0095 -0.1558 -0.0596
  599loPI   C2B 9582  13.756  11.055   8.814 -0.1450  0.1000 -0.0592
  599loPI   C3B 9583  13.675  11.148   8.381  0.1003  0.1922 -0.3219
  599loPI   C4B 9584  13.879  11.241   8.072  0.0586 -0.2649 -0.0383
  600loPI    C1 9585  15.585  11.339  10.109  0.0877 -0.2022  0.0539
  600loPI    C2 9586  15.384  11.651  10.260 -0.1332 -0.2027 -0.2309
  600loPI    C3 9587  15.449  11.326  10.485 -0.0074 -0.0017  0.0278
  600loPI   PO4 9588  15.582  11.378   9.808 -0.0929  0.0921  0.2931
  600loPI   GL1 9589  15.530  11.273   9.436  0.0244 -0.0036  0.1223
  600loPI   GL2 9590  15.490  11.585   9.353  0.0693  0.0773  0.0810
  600loPI   C1A 9591  15.708  11.164   9.062 -0.1339 -0.0824 -0.0043
  600loPI   C2A 9592  15.774  11.305   8.643 -0.1067 -0.0078 -0.0730
  600loPI   C3A 9593  15.740  11.450   8.174  0.0773  0.0394  0.1061
  600loPI   C4A 9594  15.926  11.494   7.793 -0.1163 -0.1800  0.0155
  600loPI   C5A 9595  16.166  11.694   7.653  0.0670  0.0309  0.0025
  600loPI   C6A 9596  16.289  12.068   7.325  0.0918 -0.1387  0.2854
  600loPI   C1B 9597  15.511  11.713   8.910  0.1317 -0.0627  0.1399
  600loPI   C2B 9598  15.590  11.805   8.468 -0.2420  0.0071  0.1140
  600loPI   C3B 9599  15.904  12.027   8.176  0.3876  0.0268 -0.1020
  600loPI   C4B 9600  16.151  12.157   7.820  0.1182 -0.4156 -0.1415
  601loPI    C1 9601  18.690   1.878   9.705  0.0862  0.1020 -0.0720
  601loPI    C2 9602  18.695   1.629  10.018  0.0146 -0.0511 -0.1915
  601loPI    C3 9603  18.682   2.025  10.077  0.0046 -0.0791 -0.0015
  601loPI   PO4 9604  18.487   1.851   9.515 -0.1974 -0.0912 -0.0215
  601loPI   GL1 9605  18.149   1.773   9.233  0.0580  0.0144  0.1416
  601loPI   GL2 9606  18.419   1.815   8.978 -0.2257  0.2249 -0.1203
  601loPI   C1A 9607  17.997   1.554   8.818  0.1850  0.4098  0.0274
  601loPI   C2A 9608  17.848   1.428   8.363  0.1684  0.0509 -0.0966
  601loPI   C3A 9609  17.811   1.398   7.900  0.1152  0.0069  0.1593
  601loPI   C4A 9610  18.104   1.586   7.542 -0.2960 -0.0349  0.0921
  601loPI   C5A 9611  18.241   1.905   7.308  0.1547  0.2116  0.1531
  601loPI   C6A 9612  18.367   1.915   6.773  0.0481  0.1705  0.3298
  601loPI   C1B 9613  18.580   1.478   8.718 -0.1558 -0.3557  0.0642
  601loPI   C2B 9614  18.625   1.365   8.337  0.1070  0.1581 -0.1469
  601loPI   C3B 9615  18.751   1.660   8.128 -0.1552  0.1959  0.1553
  601loPI   C4B 9616  18.611   1.707   7.622 -0.1821  0.0410 -0.0850
  602loPI    C1 9617   6.822  14.601  10.499  0.0483 -0.0878 -0.0438
  602loPI    C2 9618   6.514  14.377  10.620  0.0544 -0.0564  0.0301
  602loPI    C3 9619   6.760  14.542  10.889  0.1571 -0.1109 -0.0299
  602loPI   PO4 9620   6.811  14.479  10.219  0.2740  0.0103  0.2129
  602loPI   GL1 9621   6.644  14.376   9.855 -0.1078  0.3497  0.1157
  602loPI   GL2 9622   6.710  14.132   9.732 -0.1869 -0.1520  0.0003
  602loPI   C1A 9623   6.350  14.417   9.489  0.1130 -0.2274  0.1667
  602loPI   C2A 9624   6.342  14.623   9.164 -0.0681  0.4264  0.2423
  602loPI   C3A 9625   6.409  14.645   8.839  0.0670 -0.1304 -0.1589
  602loPI   C4A 9626   6.498  14.540   8.347  0.1481 -0.0567  0.0191
  602loPI   C5A 9627   6.682  14.770   7.993  0.1323  0.0717 -0.1139
  602loPI   C6A 9628   6.937  15.056   7.769  0.0777  0.0706  0.0466
  602loPI   C1B 9629   6.761  14.263   9.400 -0.1744 -0.0048  0.4248
  602loPI   C2B 9630   6.927  14.266   9.047 -0.2692  0.1221  0.4167
  602loPI   C3B 9631   6.887  14.330   8.569 -0.1188  0.5715  0.1331
  602loPI   C4B 9632   7.148  14.247   8.162  0.1398 -0.0620  0.0387
  603loPI    C1 9633   1.962   1.926  10.139  0.0816 -0.0492  0.0312
  603loPI    C2 9634   2.251   2.103  10.352  0.1239  0.1255 -0.1678
  603loPI    C3 9635   1.868   2.202  10.413  0.1207  0.0391 -0.0438
  603loPI   PO4 9636   2.038   1.932   9.864  0.3319  0.0986 -0.0750
  603loPI   GL1 9637   2.147   2.174   9.598 -0.2606 -0.0944  0.4985
  603loPI   GL2 9638   2.159   1.978   9.375 -0.3438  0.1403 -0.1773
  603loPI   C1A 9639   2.503   2.378   9.398  0.3135  0.1070 -0.1825
  603loPI   C2A 9640   2.706   2.529   9.011  0.1340  0.2567 -0.0275
  603loPI   C3A 9641   2.796   2.421   8.577  0.2195 -0.0472 -0.0839
  603loPI   C4A 9642   2.720   2.404   8.096  0.2931  0.0519  0.1330
  603loPI   C5A 9643   2.801   2.493   7.669  0.3148 -0.2300  0.2955
  603loPI   C6A 9644   2.970   2.221   7.327  0.1651 -0.0079 -0.1758
  603loPI   C1B 9645   2.214   2.211   9.041 -0.3931 -0.3097 -0.0137
  603loPI   C2B 9646   2.321   2.312   8.679 -0.3191  0.0503 -0.0472
  603loPI   C3B 9647   2.283   2.135   8.268  0.0100  0.1610  0.1871
  603loPI   C4B 9648   2.363   2.186   7.782 -0.1741 -0.0230 -0.0884
  604loPI    C1 9649  11.076   6.707  10.820  0.0715 -0.2045 -0.0012
  604loPI    C2 9650  11.354   6.981  10.911 -0.2603  0.0950  0.1343
  604loPI    C3 9651  11.343   6.633  11.108  0.1012  0.0216  0.0311
  604loPI   PO4 9652  11.088   6.614  10.495  0.0474 -0.2584  0.1437
  604loPI   GL1 9653  10.813   6.501  10.113 -0.1423  0.0858  0.1005
  604loPI   GL2 9654  10.628   6.495  10.035 -0.0413 -0.0696 -0.2161
  604loPI   C1A 9655  11.009   6.306   9.756 -0.0222 -0.4899 -0.0716
  604loPI   C2A 9656  10.939   6.425   9.228 -0.1230  0.1736 -0.3754
  604loPI   C3A 9657  10.950   6.367   8.788  0.0525 -0.2589  0.2725
  604loPI   C4A 9658  10.818   6.277   8.364 -0.3384 -0.0135  0.0704
  604loPI   C5A 9659  10.740   6.095   7.956 -0.1632 -0.1459 -0.2723
  604loPI   C6A 9660  10.840   6.132   7.534  0.2066 -0.3729 -0.4083
  604loPI   C1B 9661  10.549   6.465   9.537 -0.0455  0.0950 -0.1334
  604loPI   C2B 9662  10.419   6.547   9.160 -0.1157 -0.0679 -0.2511
  604loPI   C3B 9663  10.403   6.509   8.726  0.2997  0.0633 -0.0077
  604loPI   C4B 9664  10.331   6.538   8.260 -0.0778  0.0161  0.1033
  605loPI    C1 9665  12.844   2.780  10.374 -0.0144  0.0855  0.0639
  605loPI    C2 9666  13.055   2.504  10.572  0.0200 -0.0487 -0.1559
  605loPI    C3 9667  13.020   2.874  10.721  0.0977 -0.1289  0.0667
  605loPI   PO4 9668  12.979   2.788  10.111  0.0610  0.0691  0.1124
  605loPI   GL1 9669  12.999   2.683   9.684 -0.0964 -0.1922 -0.0703
  605loPI   GL2 9670  13.303   2.696   9.646  0.3459  0.1187  0.0737
  605loPI   C1A 9671  12.894   2.603   9.250 -0.1954  0.0292  0.1638
  605loPI   C2A 9672  12.792   2.458   8.848 -0.0577 -0.1370 -0.2560
  605loPI   C3A 9673  12.710   2.591   8.431  0.0578  0.0598 -0.2587
  605loPI   C4A 9674  12.759   2.607   8.012  0.2043  0.3936 -0.2000
  605loPI   C5A 9675  12.932   2.618   7.611  0.1633  0.1340  0.2870
  605loPI   C6A 9676  13.319   2.796   7.367 -0.0794 -0.1652 -0.0585
  605loPI   C1B 9677  13.327   2.849   9.127 -0.1672 -0.1186 -0.0011
  605loPI   C2B 9678  13.193   2.838   8.779 -0.2373  0.1523 -0.0604
  605loPI   C3B 9679  13.128   2.823   8.380 -0.3487 -0.1357 -0.4413
  605loPI   C4B 9680  13.108   2.966   7.975  0.0695 -0.1965  0.0426
  606loPI    C1 9681  10.827   5.893  10.852  0.1544 -0.0961 -0.0922
  606loPI    C2 9682  10.507   5.683  10.969 -0.0099  0.1781 -0.0406
  606loPI    C3 9683  10.864   5.612  11.135 -0.1240  0.1522  0.1985
  606loPI   PO4 9684  10.909   5.885  10.629 -0.1197  0.3571 -0.2412
  606loPI   GL1 9685  10.699   5.676  10.227  0.0988  0.1016 -0.1109
  606loPI   GL2 9686  10.635   6.008  10.173 -0.0278 -0.1530 -0.0328
  606loPI   C1A 9687  10.710   5.483   9.839 -0.1829  0.0619 -0.1606
  606loPI   C2A 9688  10.623   5.496   9.381  0.2415 -0.2356  0.5087
  606loPI   C3A 9689  10.640   5.554   8.885 -0.1977  0.0546 -0.0466
  606loPI   C4A 9690  10.517   5.562   8.474  0.1711  0.1508  0.0436
  606loPI   C5A 9691  10.523   5.457   8.037 -0.0586  0.1130 -0.2553
  606loPI   C6A 9692  10.242   5.415   7.692 -0.1466  0.5413 -0.0316
  606loPI   C1B 9693  10.598   5.986   9.748 -0.1775 -0.2127  0.0556
  606loPI   C2B 9694  10.478   6.023   9.282 -0.0006 -0.1778 -0.2706
  606loPI   C3B 9695  10.457   6.013   8.859 -0.0099 -0.2065  0.4023
  606loPI   C4B 9696  10.334   6.058   8.379  0.1596 -0.2157 -0.0762
  607loPI    C1 9697  10.137  11.102  10.129  0.1926  0.1804 -0.1448
  607loPI    C2 9698  10.309  11.343  10.398 -0.0091  0.0926  0.0667
  607loPI    C3 9699   9.993  11.122  10.502  0.0757 -0.1447 -0.1700
  607loPI   PO4 9700  10.429  10.995   9.993  0.0875 -0.1566  0.3308
  607loPI   GL1 9701  10.416  10.866   9.513 -0.0374  0.1471  0.2392
  607loPI   GL2 9702  10.411  10.565   9.326 -0.0713 -0.2334 -0.0607
  607loPI   C1A 9703  10.097  10.882   9.106 -0.1659  0.1945  0.0086
  607loPI   C2A 9704  10.093  11.274   8.751  0.1427 -0.0871  0.0081
  607loPI   C3A 9705   9.794  11.296   8.424 -0.1220  0.0152  0.1137
  607loPI   C4A 9706   9.479  11.244   8.039  0.0119  0.0781  0.1591
  607loPI   C5A 9707   9.328  11.319   7.659  0.0631  0.1321  0.0811
  607loPI   C6A 9708   9.174  11.372   7.261  0.1756  0.0111 -0.0716
  607loPI   C1B 9709  10.507  10.478   8.921 -0.0977  0.3741  0.1974
  607loPI   C2B 9710  10.534  10.375   8.531 -0.0504 -0.0024 -0.3584
  607loPI   C3B 9711  10.629  10.568   8.269 -0.0895 -0.0150  0.3862
  607loPI   C4B 9712  10.918  10.548   7.862 -0.0419 -0.0901  0.4384
  608loPI    C1 9713  12.197   9.873   9.812 -0.0416  0.1428  0.0429
  608loPI    C2 9714  11.911   9.998  10.062  0.1026  0.2730  0.1453
  608loPI    C3 9715  12.205   9.762  10.196 -0.0755 -0.0439 -0.0094
  608loPI   PO4 9716  12.228  10.185   9.721 -0.2131 -0.2481 -0.1973
  608loPI   GL1 9717  12.090  10.375   9.401 -0.0050  0.0820 -0.1020
  608loPI   GL2 9718  12.379  10.480   9.331  0.2212 -0.1336 -0.0349
  608loPI   C1A 9719  11.887  10.260   8.957  0.0835 -0.1550 -0.1605
  608loPI   C2A 9720  11.773  10.150   8.536 -0.1966 -0.4365  0.3641
  608loPI   C3A 9721  11.934  10.170   8.238 -0.1513  0.1692 -0.1854
  608loPI   C4A 9722  12.410   9.907   8.151 -0.0203 -0.0038 -0.4277
  608loPI   C5A 9723  12.548   9.803   8.425  0.5433  0.1629 -0.0295
  608loPI   C6A 9724  12.572   9.645   8.893  0.0011  0.3584 -0.0325
  608loPI   C1B 9725  12.472  10.206   9.045 -0.3194 -0.0067 -0.2384
  608loPI   C2B 9726  12.405  10.334   8.538  0.1472  0.2782  0.1183
  608loPI   C3B 9727  12.303  10.522   8.154  0.0284 -0.2266 -0.0174
  608loPI   C4B 9728  12.132  10.164   7.763 -0.3583 -0.1578  0.2158
  609POPI    C1 9729   9.567  16.267  10.744 -0.3548 -0.2337 -0.2241
  609POPI    C2 9730   9.285  16.402  10.994  0.1049  0.0560  0.1560
  609POPI    C3 9731   9.508  16.086  11.096 -0.0209 -0.1207 -0.1057
  609POPI   PO4 9732   9.409  16.346  10.507  0.0095 -0.2370  0.3119
  609POPI   GL1 9733   9.563  16.472  10.021  0.1348 -0.1540  0.0671
  609POPI   GL2 9734   9.833  16.369   9.857 -0.3079  0.1699  0.0500
  609POPI   C1A 9735   9.246  16.355   9.743 -0.0986 -0.0961 -0.0597
  609POPI   D2A 9736   8.951  16.517   9.524 -0.2292 -0.0353  0.0797
  609POPI   C3A 9737   8.837  16.934   9.443 -0.1883  0.2137 -0.1636
  609POPI   C4A 9738   8.710  17.301   9.268 -0.0174 -0.3189 -0.2188
  609POPI   C1B 9739   9.731  16.327   9.486  0.2532 -0.2312 -0.0616
  609POPI   C2B 9740   9.513  16.378   9.121  0.1171  0.1603  0.2915
  609POPI   C3B 9741   9.334  16.424   8.687  0.2872  0.0277  0.1460
  609POPI   C4B 9742   9.147  16.762   8.422  0.1390  0.0355 -0.0365
  610POPI    C1 9743  13.393   7.570  10.146  0.1581  0.1782 -0.1267
  610POPI    C2 9744  13.253   7.682  10.503 -0.0597 -0.0437 -0.1395
  610POPI    C3 9745  13.630   7.767  10.401 -0.0097  0.0622  0.1233
  610POPI   PO4 9746  13.255   7.614   9.973 -0.2016 -0.2662 -0.1301
  610POPI   GL1 9747  13.092   7.532   9.567  0.1482  0.4397 -0.2780
  610POPI   GL2 9748  12.865   7.194   9.653  0.3473  0.1877  0.0524
  610POPI   C1A 9749  12.804   7.577   9.252 -0.1199  0.1616  0.3877
  610POPI   D2A 9750  12.492   7.640   8.816  0.2661  0.1749  0.0156
  610POPI   C3A 9751  12.520   7.781   8.376 -0.2286  0.2461 -0.3853
  610POPI   C4A 9752  12.926   7.514   8.158  0.0095  0.0025 -0.2475
  610POPI   C1B 9753  12.676   7.060   9.295  0.3768  0.1184 -0.0483
  610POPI   C2B 9754  12.615   7.125   8.914  0.0724  0.0488  0.0832
  610POPI   C3B 9755  12.696   7.206   8.479  0.0512 -0.0531 -0.1747
  610POPI   C4B 9756  12.771   7.006   8.163 -0.3639 -0.2113  0.0838
  611POPI    C1 9757   5.628   0.966  10.731 -0.1813  0.2026  0.0283
  611POPI    C2 9758   5.892   0.758  10.948 -0.0292  0.3487 -0.0145
  611POPI    C3 9759   5.515   0.801  11.077 -0.0199  0.1799  0.0707
  611POPI   PO4 9760   5.722   1.013  10.495  0.1479 -0.1930 -0.1201
  611POPI   GL1 9761   5.777   1.157  10.085  0.2199  0.1673 -0.0693
  611POPI   GL2 9762   5.726   1.032   9.857  0.0476 -0.3084 -0.1295
  611POPI   C1A 9763   5.981   1.522   9.757 -0.2592 -0.0216  0.0490
  611POPI   D2A 9764   5.818   1.638   9.331  0.0073 -0.1232  0.0096
  611POPI   C3A 9765   5.836   1.560   8.935 -0.0812  0.0737  0.2831
  611POPI   C4A 9766   5.877   1.565   8.508  0.2523 -0.1255 -0.2085
  611POPI   C1B 9767   5.809   1.002   9.442 -0.1335 -0.5917 -0.2077
  611POPI   C2B 9768   5.810   0.984   8.897 -0.1212 -0.1797  0.1752
  611POPI   C3B 9769   5.866   1.067   8.478  0.1504 -0.2900  0.0576
  611POPI   C4B 9770   5.899   1.003   7.946  0.2119 -0.0877  0.0981
  612POPI    C1 9771  13.286  13.188   9.747  0.2794  0.1247 -0.0852
  612POPI    C2 9772  13.467  13.363  10.057  0.2431 -0.0217  0.0198
  612POPI    C3 9773  13.465  12.965  10.026 -0.0746 -0.0239  0.0291
  612POPI   PO4 9774  13.384  13.227   9.477  0.1335  0.1690 -0.1496
  612POPI   GL1 9775  13.160  13.315   9.091  0.1520  0.0896 -0.1543
  612POPI   GL2 9776  13.412  13.565   8.962  0.1355 -0.0195  0.4007
  612POPI   C1A 9777  12.715  13.522   8.903  0.0549  0.0172 -0.0117
  612POPI   D2A 9778  12.539  13.638   8.504  0.1410  0.0685  0.0088
  612POPI   C3A 9779  12.471  13.432   8.291  0.3815  0.0524 -0.0304
  612POPI   C4A 9780  12.477  13.302   7.878  0.0024 -0.0241 -0.0249
  612POPI   C1B 9781  13.265  13.427   8.593 -0.6140  0.0415  0.1780
  612POPI   C2B 9782  13.052  13.369   8.169  0.1114  0.1673  0.1331
  612POPI   C3B 9783  12.978  13.332   7.722 -0.2369 -0.1075  0.1260
  612POPI   C4B 9784  13.260  13.126   7.487  0.0873  0.0862  0.1713
  613POPI    C1 9785   8.225   7.249  10.894  0.1665 -0.1812 -0.1025
  613POPI    C2 9786   8.128   6.871  10.804 -0.1364 -0.1914  0.2417
  613POPI    C3 9787   8.353   6.949  11.126  0.0791 -0.0870  0.0692
  613POPI   PO4 9788   8.275   7.351  10.696  0.0449  0.0953  0.0278
  613POPI   GL1 9789   8.150   7.440  10.316 -0.1016  0.3129  0.1284
  613POPI   GL2 9790   8.363   7.630  10.249 -0.0068  0.1820  0.3345
  613POPI   C1A 9791   7.822   7.329  10.012 -0.1655  0.0692  0.2391
  613POPI   D2A 9792   7.576   7.420   9.639 -0.1820  0.0915  0.0315
  613POPI   C3A 9793   7.644   7.248   9.290 -0.0322  0.0749  0.0002
  613POPI   C4A 9794   7.550   7.225   8.898 -0.2159  0.0109  0.1426
  613POPI   C1B 9795   8.376   7.497   9.893 -0.4201  0.3988  0.2864
  613POPI   C2B 9796   8.570   7.420   9.518  0.0609  0.0231  0.0347
  613POPI   C3B 9797   8.522   7.461   9.017  0.3586 -0.0633 -0.1748
  613POPI   C4B 9798   8.373   7.418   8.674 -0.1021  0.1162  0.2699
  614POPI    C1 9799  16.522   4.831   9.666 -0.0114  0.2842  0.1064
  614POPI    C2 9800  16.752   4.504   9.689 -0.1912  0.1671  0.2690
  614POPI    C3 9801  16.629   4.686  10.023 -0.1922  0.3306  0.1804
  614POPI   PO4 9802  16.618   4.954   9.451  0.3362 -0.4785 -0.0102
  614POPI   GL1 9803  16.467   5.082   9.068 -0.2091 -0.2291 -0.1282
  614POPI   GL2 9804  16.212   4.949   9.125  0.0413 -0.1273  0.2221
  614POPI   C1A 9805  16.647   5.143   8.606 -0.0274  0.2046 -0.1699
  614POPI   D2A 9806  16.930   5.054   8.250  0.0909  0.0197 -0.2681
  614POPI   C3A 9807  17.205   5.375   8.077 -0.2595  0.2402 -0.1976
  614POPI   C4A 9808  17.251   5.821   8.241  0.0283  0.2369  0.0370
  614POPI   C1B 9809  16.212   4.949   8.679  0.3217  0.1670  0.2672
  614POPI   C2B 9810  16.268   5.078   8.180 -0.3072 -0.3515  0.2565
  614POPI   C3B 9811  16.542   4.940   7.955  0.0097 -0.3527  0.0973
  614POPI   C4B 9812  16.675   5.017   7.590 -0.1435  0.0901 -0.1882
  615POPI    C1 9813  17.690   2.075  10.002  0.2065 -0.0466  0.0294
  615POPI    C2 9814  17.950   2.364  10.097  0.1025 -0.0309  0.2729
  615POPI    C3 9815  17.761   2.162  10.386 -0.0802 -0.1118  0.0995
  615POPI   PO4 9816  17.644   2.154   9.756  0.2800  0.1953  0.1201
  615POPI   GL1 9817  17.657   1.979   9.387  0.0892  0.2141  0.1677
  615POPI   GL2 9818  17.267   2.009   9.393 -0.0766  0.0953  0.0782
  615POPI   C1A 9819  17.836   2.026   8.960  0.0817 -0.1208  0.0232
  615POPI   D2A 9820  18.129   2.063   8.635 -0.1974 -0.0538  0.0725
  615POPI   C3A 9821  18.263   1.714   8.343 -0.0982  0.0400 -0.2329
  615POPI   C4A 9822  18.294   1.611   7.995  0.1938  0.0420  0.2027
  615POPI   C1B 9823  17.260   2.006   8.894 -0.0031 -0.0751  0.1905
  615POPI   C2B 9824  16.963   2.092   8.469  0.0293 -0.0008  0.1382
  615POPI   C3B 9825  16.916   1.952   8.038  0.2293  0.0702 -0.1529
  615POPI   C4B 9826  16.745   1.921   7.640 -0.4197  0.2042  0.0068
  616POPI    C1 9827  12.164  15.419  10.043  0.0473 -0.0001  0.1130
  616POPI    C2 9828  12.450  15.309  10.301  0.0402  0.2287  0.2205
  616POPI    C3 9829  12.175  15.578  10.410 -0.3176 -0.1102  0.1755
  616POPI   PO4 9830  12.116  15.272   9.875  0.1021  0.1618  0.2977
  616POPI   GL1 9831  12.222  15.265   9.491 -0.2104  0.2773 -0.0297
  616POPI   GL2 9832  12.249  15.407   9.228 -0.1296  0.3866  0.0154
  616POPI   C1A 9833  11.811  15.138   9.285 -0.0293 -0.1037  0.1936
  616POPI   D2A 9834  11.449  15.006   9.040  0.4159  0.2655 -0.0143
  616POPI   C3A 9835  11.440  15.185   8.606  0.1848  0.0336 -0.0382
  616POPI   C4A 9836  11.234  15.512   8.411  0.0254  0.2458 -0.5605
  616POPI   C1B 9837  12.292  15.408   8.761 -0.0114  0.1718 -0.2679
  616POPI   C2B 9838  12.370  15.576   8.425 -0.5202  0.2600  0.0866
  616POPI   C3B 9839  12.138  15.388   8.066 -0.1268 -0.1507  0.0031
  616POPI   C4B 9840  12.019  15.231   7.617  0.3862 -0.0762 -0.1433
  617POPI    C1 9841   1.116  16.544  10.155  0.2320 -0.0262  0.0653
  617POPI    C2 9842   0.829  16.420  10.404  0.0730 -0.0330 -0.1187
  617POPI    C3 9843   1.009  16.772  10.466 -0.0654  0.0310 -0.0750
  617POPI   PO4 9844   1.031  16.277   9.970  0.2496 -0.0202  0.2260
  617POPI   GL1 9845   1.267  16.047   9.711  0.1417 -0.1553 -0.0787
  617POPI   GL2 9846   1.514  16.087   9.559  0.0966  0.1221 -0.4383
  617POPI   C1A 9847   1.030  15.929   9.286  0.0714 -0.3607 -0.1668
  617POPI   D2A 9848   0.943  15.776   8.846  0.1263 -0.0309  0.0157
  617POPI   C3A 9849   1.119  15.887   8.429  0.0486  0.2908 -0.1743
  617POPI   C4A 9850   1.068  16.361   8.270  0.1149  0.4205  0.0589
  617POPI   C1B 9851   1.424  16.083   9.030  0.2984  0.0299 -0.1182
  617POPI   C2B 9852   1.515  15.810   8.731  0.3215 -0.1735  0.2367
  617POPI   C3B 9853   1.661  15.800   8.322 -0.1636  0.0712  0.2035
  617POPI   C4B 9854   1.836  15.450   8.051  0.0403  0.0665  0.1076
  618POPI    C1 9855  10.544  16.814  10.345 -0.1471  0.2330  0.0994
  618POPI    C2 9856  10.152  16.757  10.404 -0.0424 -0.1911  0.4304
  618POPI    C3 9857  10.390  16.850  10.713  0.1076  0.1547  0.2163
  618POPI   PO4 9858  10.711  16.688  10.204 -0.3605  0.1428  0.0803
  618POPI   GL1 9859  10.920  16.885   9.855  0.0568  0.2124  0.2116
  618POPI   GL2 9860  10.683  16.654   9.648 -0.4619  0.1549 -0.1179
  618POPI   C1A 9861  10.973  16.824   9.265  0.0565  0.0838  0.0913
  618POPI   D2A 9862  11.012  16.685   8.801  0.1403 -0.0345 -0.1828
  618POPI   C3A 9863  11.262  16.320   8.633 -0.1329 -0.0039 -0.0053
  618POPI   C4A 9864  11.740  16.243   8.622  0.1777 -0.0869  0.1573
  618POPI   C1B 9865  10.458  16.743   9.357 -0.0641 -0.3110 -0.0034
  618POPI   C2B 9866  10.411  16.976   8.940 -0.1148 -0.2208  0.2395
  618POPI   C3B 9867  10.597  16.831   8.601  0.1476 -0.0390  0.1476
  618POPI   C4B 9868  10.701  16.836   8.144 -0.1186 -0.0833  0.1304
  619POPI    C1 9869  17.673   3.910   9.882 -0.0079  0.3397 -0.2757
  619POPI    C2 9870  17.298   3.914  10.020  0.0199  0.1239 -0.1898
  619POPI    C3 9871  17.605   3.934  10.275  0.0702 -0.1413 -0.2269
  619POPI   PO4 9872  17.600   4.071   9.617 -0.0351  0.1237  0.0379
  619POPI   GL1 9873  17.523   3.940   9.239  0.0772  0.1500  0.0706
  619POPI   GL2 9874  17.261   3.789   9.222  0.3804  0.2464  0.1561
  619POPI   C1A 9875  17.641   3.720   8.864  0.1529 -0.0219 -0.0217
  619POPI   D2A 9876  17.540   3.317   8.620 -0.1752 -0.1182  0.2241
  619POPI   C3A 9877  17.725   3.282   8.204 -0.1126 -0.1473  0.3357
  619POPI   C4A 9878  18.045   3.521   7.842 -0.2638 -0.3444  0.1385
  619POPI   C1B 9879  17.131   3.984   8.740  0.1251  0.0672 -0.0093
  619POPI   C2B 9880  17.043   4.415   8.539  0.0333 -0.0191  0.2231
  619POPI   C3B 9881  17.050   4.599   8.142 -0.1586  0.0724 -0.1212
  619POPI   C4B 9882  17.199   4.898   7.847  0.3463  0.3999  0.2205
  620POPI    C1 9883   5.180  10.184  10.135 -0.0812 -0.2349 -0.0261
  620POPI    C2 9884   4.848  10.147  10.356  0.0631  0.0551  0.2463
  620POPI    C3 9885   5.198  10.229  10.532  0.1779  0.3162 -0.0908
  620POPI   PO4 9886   5.110   9.888   9.975 -0.1117 -0.1369  0.0759
  620POPI   GL1 9887   5.183   9.582   9.636  0.2915 -0.0719  0.1145
  620POPI   GL2 9888   4.967   9.366   9.764 -0.1048  0.0404  0.0826
  620POPI   C1A 9889   5.072   9.559   9.215  0.1575 -0.0498  0.1205
  620POPI   D2A 9890   4.935   9.748   8.892  0.0673 -0.0361  0.2336
  620POPI   C3A 9891   4.949   9.635   8.397  0.0969  0.2025  0.2304
  620POPI   C4A 9892   4.878   9.667   8.001 -0.2655 -0.0157  0.1480
  620POPI   C1B 9893   4.860   9.171   9.469  0.0666 -0.0281  0.2853
  620POPI   C2B 9894   4.735   9.240   9.034  0.0345 -0.0330  0.2565
  620POPI   C3B 9895   4.721   9.215   8.552  0.0110  0.3840 -0.1711
  620POPI   C4B 9896   4.576   9.230   8.214  0.0769 -0.3330 -0.2767
  621POPI    C1 9897   0.360  16.126  10.080  0.0241  0.1370 -0.0173
  621POPI    C2 9898   0.073  16.059  10.350  0.0752 -0.1605 -0.0342
  621POPI    C3 9899   0.369  16.314  10.433 -0.0013 -0.1213  0.1233
  621POPI   PO4 9900   0.254  16.236   9.891 -0.2346  0.1908  0.0488
  621POPI   GL1 9901   0.118  16.282   9.545  0.1816 -0.0540  0.0512
  621POPI   GL2 9902  -0.137  16.532   9.396 -0.2162 -0.1581  0.0086
  621POPI   C1A 9903   0.031  16.140   9.143  0.2337 -0.1741  0.2282
  621POPI   D2A 9904  -0.298  16.060   8.757  0.1625  0.1866 -0.1343
  621POPI   C3A 9905  -0.276  16.262   8.385  0.3263 -0.3606  0.0583
  621POPI   C4A 9906  -0.165  16.582   8.038 -0.3011 -0.1556 -0.0967
  621POPI   C1B 9907  -0.371  16.484   9.070 -0.0485 -0.3130  0.0774
  621POPI   C2B 9908  -0.339  16.613   8.736  0.1751 -0.0541  0.0179
  621POPI   C3B 9909  -0.004  16.773   8.519  0.1278  0.0798 -0.1761
  621POPI   C4B 9910   0.411  16.827   8.261  0.2091 -0.0031  0.0569
  622POPI    C1 9911  11.718   6.328  10.376  0.1022  0.0003  0.1576
  622POPI    C2 9912  11.663   6.508  10.729  0.1655  0.3235  0.0065
  622POPI    C3 9913  12.034   6.428  10.601  0.1392  0.1190  0.0538
  622POPI   PO4 9914  11.586   6.480  10.228 -0.1660 -0.0486  0.0122
  622POPI   GL1 9915  11.392   6.550   9.934 -0.2444 -0.1674 -0.3904
  622POPI   GL2 9916  11.240   6.850  10.015 -0.2634  0.0620  0.0597
  622POPI   C1A 9917  11.356   6.658   9.464  0.1665 -0.3124 -0.3725
  622POPI   D2A 9918  11.383   6.587   8.980 -0.0753  0.1694 -0.0700
  622POPI   C3A 9919  11.402   6.682   8.619  0.1630 -0.0871  0.1325
  622POPI   C4A 9920  11.301   6.630   8.264  0.0736  0.1718  0.2911
  622POPI   C1B 9921  11.355   7.205   9.655  0.0054  0.1485 -0.0672
  622POPI   C2B 9922  11.347   7.128   9.207 -0.4444  0.1497  0.3269
  622POPI   C3B 9923  11.310   7.146   8.697  0.0117  0.0530 -0.0220
  622POPI   C4B 9924  11.291   7.169   8.242 -0.2243  0.1432  0.0069
  623POPI    C1 9925   8.147  18.108  10.791 -0.0160 -0.1086 -0.1379
  623POPI    C2 9926   8.022  17.749  10.667 -0.0796 -0.0943 -0.1161
  623POPI    C3 9927   7.906  17.889  11.023 -0.0903 -0.0335 -0.1435
  623POPI   PO4 9928   8.085  18.277  10.590  0.1285 -0.0282  0.1932
  623POPI   GL1 9929   8.133  18.603  10.149  0.0733 -0.0514  0.0561
  623POPI   GL2 9930   8.331  18.446  10.015  0.0562 -0.1660  0.3784
  623POPI   C1A 9931   8.116  18.976   9.796  0.0338  0.0110 -0.1234
  623POPI   D2A 9932   8.104  19.006   9.335  0.0502  0.0712 -0.1397
  623POPI   C3A 9933   8.101  19.060   8.959 -0.2819  0.1167  0.1174
  623POPI   C4A 9934   8.085  18.933   8.571 -0.2125 -0.1721  0.2776
  623POPI   C1B 9935   8.165  18.532   9.652  0.3341 -0.0537 -0.2932
  623POPI   C2B 9936   8.203  18.581   9.170  0.0039  0.2693  0.0109
  623POPI   C3B 9937   8.126  18.467   8.729  0.0812 -0.0352 -0.0414
  623POPI   C4B 9938   8.024  18.412   8.380 -0.3209  0.0716 -0.0322
  624POPI    C1 9939  13.625  16.932  10.109  0.1002 -0.0393 -0.0406
  624POPI    C2 9940  13.842  17.152  10.363  0.0731 -0.0438 -0.0135
  624POPI    C3 9941  13.870  16.753  10.370 -0.0944 -0.0546  0.1340
  624POPI   PO4 9942  13.576  17.012   9.741 -0.1612  0.1931 -0.0582
  624POPI   GL1 9943  13.533  17.227   9.430  0.0811 -0.1328  0.0557
  624POPI   GL2 9944  13.477  17.521   9.298  0.2519  0.0428  0.4582
  624POPI   C1A 9945  13.746  17.119   8.983 -0.0108  0.0303  0.1866
  624POPI   D2A 9946  14.077  17.121   8.825 -0.2690 -0.1955 -0.0503
  624POPI   C3A 9947  14.451  16.960   9.010 -0.2358 -0.2619 -0.3236
  624POPI   C4A 9948  14.722  16.713   9.216  0.1781 -0.0533  0.0382
  624POPI   C1B 9949  13.327  17.760   8.950  0.3039 -0.0336 -0.0431
  624POPI   C2B 9950  13.235  17.773   8.512 -0.0804  0.5861 -0.0684
  624POPI   C3B 9951  13.126  17.655   8.127  0.1074 -0.2661 -0.0702
  624POPI   C4B 9952  12.925  17.415   7.767 -0.0115  0.1178 -0.0058
  625DPPI    C1 9953  15.378   0.794  10.160 -0.0329  0.0429  0.0822
  625DPPI    C2 9954  15.000   0.920  10.193 -0.0458  0.0898 -0.2184
  625DPPI    C3 9955  15.232   0.897  10.518 -0.2827  0.1333 -0.0434
  625DPPI   PO4 9956  15.445   0.910   9.843 -0.1069 -0.1271  0.0464
  625DPPI   GL1 9957  15.412   0.910   9.522 -0.1073  0.2427 -0.4402
  625DPPI   GL2 9958  15.077   0.728   9.425  0.0112  0.1540  0.0955
  625DPPI   C1A 9959  15.282   1.093   9.121  0.1272 -0.1937  0.2454
  625DPPI   C2A 9960  15.269   0.902   8.741 -0.2723  0.0983  0.2763
  625DPPI   C3A 9961  15.348   0.980   8.324  0.2640 -0.3722  0.0365
  625DPPI   C4A 9962  15.248   1.015   7.907  0.2257  0.1814 -0.1739
  625DPPI   C1B 9963  14.904   0.706   9.009 -0.0406 -0.0210 -0.0560
  625DPPI   C2B 9964  14.750   0.717   8.614  0.3339 -0.1859 -0.0486
  625DPPI   C3B 9965  14.883   0.784   8.263  0.0346  0.1404  0.2065
  625DPPI   C4B 9966  14.793   0.798   7.801 -0.1855  0.2961 -0.0167
  626DPPI    C1 9967  13.967  11.957  10.053 -0.1399 -0.0896 -0.1891
  626DPPI    C2 9968  14.120  12.322   9.993  0.1828 -0.2009 -0.0639
  626DPPI    C3 9969  13.895  12.250  10.316  0.2438 -0.1503 -0.0098
  626DPPI   PO4 9970  13.930  11.835   9.775 -0.1913 -0.4805  0.2255
  626DPPI   GL1 9971  13.872  11.754   9.383 -0.1279 -0.0570  0.3586
  626DPPI   GL2 9972  13.614  11.995   9.389  0.1917 -0.2525 -0.0576
  626DPPI   C1A 9973  13.731  11.628   9.002  0.0077  0.1211  0.0547
  626DPPI   C2A 9974  13.903  11.601   8.571  0.1408  0.2393 -0.1311
  626DPPI   C3A 9975  14.072  11.689   8.125  0.2417 -0.0620  0.0067
  626DPPI   C4A 9976  14.150  11.537   7.699 -0.0027  0.0128  0.1143
  626DPPI   C1B 9977  13.851  12.083   8.929 -0.0452  0.0511 -0.2000
  626DPPI   C2B 9978  14.096  12.080   8.549  0.3279  0.3027  0.2546
  626DPPI   C3B 9979  14.103  12.185   8.124 -0.0001 -0.2651  0.1781
  626DPPI   C4B 9980  14.191  11.981   7.722 -0.0086 -0.3016  0.1118
  627DPPI    C1 9981   9.597  17.873  10.383  0.1904 -0.1607 -0.0532
  627DPPI    C2 9982   9.841  17.638  10.595  0.0416 -0.3769 -0.1178
  627DPPI    C3 9983   9.445  17.595  10.627  0.0127 -0.1278 -0.1250
  627DPPI   PO4 9984   9.699  17.900  10.164 -0.1808 -0.0721 -0.0411
  627DPPI   GL1 9985   9.763  17.749   9.760  0.1177  0.3093 -0.0456
  627DPPI   GL2 9986   9.621  17.409   9.653  0.2038 -0.4231  0.4567
  627DPPI   C1A 9987   9.998  17.720   9.375 -0.1131  0.3197  0.0408
  627DPPI   C2A 9988  10.179  17.486   9.016  0.1154 -0.2922  0.0677
  627DPPI   C3A 9989  10.181  17.274   8.625 -0.0701  0.2981 -0.2211
  627DPPI   C4A 9990   9.883  17.412   8.258 -0.0886 -0.2128  0.0146
  627DPPI   C1B 9991   9.246  17.276   9.436 -0.2540 -0.1570  0.0247
  627DPPI   C2B 9992   9.198  17.316   8.949  0.0257 -0.0924 -0.0212
  627DPPI   C3B 9993   8.989  17.233   8.533 -0.1231  0.1697 -0.0645
  627DPPI   C4B 9994   8.761  17.118   8.075 -0.0970 -0.0476 -0.1576
  628DPPI    C1 9995  11.710  18.432  10.616  0.1157 -0.1146  0.2424
  628DPPI    C2 9996  11.630  18.045  10.678  0.0814 -0.1660 -0.1024
  628DPPI    C3 9997  11.344  18.320  10.731 -0.0458 -0.2449 -0.3640
  628DPPI   PO4 9998  11.711  18.421  10.281  0.1381  0.0385 -0.0391
  628DPPI   GL1 9999  11.792  18.736   9.930  0.2373  0.1343  0.2485
  628DPPI   GL210000  11.455  18.779   9.887 -0.1017  0.3096  0.0434
  628DPPI   C1A10001  11.764  18.931   9.563  0.1624 -0.1975  0.1123
  628DPPI   C2A10002  11.590  18.988   9.212 -0.3141  0.1209 -0.1683
  628DPPI   C3A10003  11.696  19.009   8.809 -0.3247 -0.0377 -0.2135
  628DPPI   C4A10004  11.796  18.811   8.418  0.0302  0.0989  0.1909
  628DPPI   C1B10005  11.317  18.710   9.518  0.0074  0.0340  0.0033
  628DPPI   C2B10006  10.890  18.781   9.254 -0.0057  0.1396 -0.3287
  628DPPI   C3B10007  10.664  18.951   8.933 -0.2660  0.0836  0.3235
  628DPPI   C4B10008  10.684  18.841   8.384  0.2176  0.1240 -0.0310
  629DPPI    C110009   8.117  10.749  10.606 -0.4806  0.1924  0.2348
  629DPPI    C210010   8.382  10.913  10.856 -0.1183  0.0710 -0.0592
  629DPPI    C310011   8.018  11.074  10.817 -0.0104  0.3830  0.1750
  629DPPI   PO410012   8.240  10.686  10.348 -0.0132 -0.1011 -0.3756
  629DPPI   GL110013   8.121  10.701   9.911 -0.1278 -0.1860 -0.0797
  629DPPI   GL210014   8.194  10.476   9.702 -0.4078 -0.0879 -0.2149
  629DPPI   C1A10015   7.922  11.015   9.582  0.1429  0.1615 -0.0476
  629DPPI   C2A10016   7.860  11.104   9.032  0.0989 -0.1303 -0.2660
  629DPPI   C3A10017   7.714  11.118   8.767 -0.2259 -0.0567 -0.0216
  629DPPI   C4A10018   7.561  11.322   8.480  0.1389 -0.0895  0.2642
  629DPPI   C1B10019   7.896  10.501   9.348  0.1232 -0.0800 -0.1632
  629DPPI   C2B10020   7.869  10.595   8.937 -0.0260 -0.2971 -0.0419
  629DPPI   C3B10021   7.714  10.715   8.520  0.1591 -0.2535  0.2520
  629DPPI   C4B10022   7.713  10.782   8.176 -0.0483  0.2492  0.0050
  630DPPI    C110023   1.744  17.597  10.076 -0.0003 -0.1575 -0.0324
  630DPPI    C210024   1.561  17.747  10.398 -0.1135  0.0242 -0.1789
  630DPPI    C310025   1.908  17.903  10.274 -0.0776 -0.0358 -0.1547
  630DPPI   PO410026   1.760  17.282  10.015 -0.4517 -0.0319 -0.1715
  630DPPI   GL110027   1.753  16.983   9.603 -0.0223 -0.0730 -0.1417
  630DPPI   GL210028   1.625  17.335   9.536 -0.0448  0.0529  0.0830
  630DPPI   C1A10029   2.109  16.806   9.350  0.0165  0.3395 -0.0510
  630DPPI   C2A10030   2.228  16.792   8.850 -0.1772 -0.1124  0.0267
  630DPPI   C3A10031   2.294  17.056   8.414  0.0613 -0.2382 -0.1757
  630DPPI   C4A10032   2.294  17.037   8.006  0.0573 -0.2601 -0.3041
  630DPPI   C1B10033   1.671  17.617   9.179 -0.0678 -0.0766 -0.1082
  630DPPI   C2B10034   1.656  17.678   8.733 -0.0187 -0.1060 -0.2596
  630DPPI   C3B10035   1.530  17.776   8.338 -0.1270 -0.1786  0.0305
  630DPPI   C4B10036   1.556  17.619   7.964 -0.1369 -0.1740 -0.0347
  631DPPI    C110037  15.376  10.840   9.916  0.0893  0.0233  0.0965
  631DPPI    C210038  15.601  10.581  10.122  0.1081  0.0304  0.0847
  631DPPI    C310039  15.367  10.842  10.316  0.1303  0.0408  0.0973
  631DPPI   PO410040  15.452  10.830   9.698 -0.1076 -0.3116 -0.0463
  631DPPI   GL110041  15.330  10.834   9.395  0.0564 -0.1162 -0.0155
  631DPPI   GL210042  15.008  10.910   9.249  0.0115  0.0618  0.2033
  631DPPI   C1A10043  15.422  10.698   9.001 -0.0726  0.2086 -0.1747
  631DPPI   C2A10044  15.435  10.411   8.667 -0.1284  0.2072  0.2385
  631DPPI   C3A10045  15.439  10.056   8.386  0.0207 -0.1739  0.1646
  631DPPI   C4A10046  15.655  10.002   8.007  0.0439  0.2559  0.0480
  631DPPI   C1B10047  14.857  10.682   8.714 -0.0229  0.3295 -0.0635
  631DPPI   C2B10048  15.167  10.706   8.427  0.2370  0.1204  0.0842
  631DPPI   C3B10049  15.408  10.529   8.157 -0.0340  0.1575 -0.2246
  631DPPI   C4B10050  15.583  10.450   7.691  0.0676  0.0875 -0.0492
  632DPPI    C110051  14.822  15.043   9.773 -0.0972  0.3200  0.0335
  632DPPI    C210052  14.474  14.852   9.823  0.0248  0.0879  0.0128
  632DPPI    C310053  14.565  15.166  10.054 -0.0889 -0.0074  0.1892
  632DPPI   PO410054  14.859  15.085   9.449 -0.1837 -0.0334  0.0929
  632DPPI   GL110055  14.725  15.548   9.153  0.0132  0.1989 -0.0125
  632DPPI   GL210056  14.368  15.435   9.092 -0.1267 -0.0391 -0.3715
  632DPPI   C1A10057  14.936  15.470   8.775 -0.3620 -0.1232 -0.2067
  632DPPI   C2A10058  14.970  15.459   8.392 -0.0473  0.0276  0.0494
  632DPPI   C3A10059  15.105  15.511   8.030  0.1945 -0.2374 -0.0500
  632DPPI   C4A10060  14.977  15.305   7.626  0.2324  0.0568  0.2474
  632DPPI   C1B10061  14.386  15.580   8.735 -0.1380  0.2614 -0.3552
  632DPPI   C2B10062  14.480  15.573   8.281 -0.1259  0.2071  0.0476
  632DPPI   C3B10063  14.601  15.685   7.779  0.0155 -0.1709 -0.0462
  632DPPI   C4B10064  14.853  15.771   7.407  0.0201 -0.1172  0.0368
  633DPPI    C110065   4.504   5.372  10.858 -0.0068 -0.0106 -0.0135
  633DPPI    C210066   4.136   5.520  10.907 -0.0257 -0.0892  0.0831
  633DPPI    C310067   4.356   5.421  11.226  0.0945 -0.0052  0.0269
  633DPPI   PO410068   4.665   5.576  10.620  0.0387  0.2411 -0.0502
  633DPPI   GL110069   4.671   5.812  10.192  0.3703  0.0895  0.1734
  633DPPI   GL210070   4.474   5.619   9.927  0.0207  0.2539 -0.3133
  633DPPI   C1A10071   4.862   5.915   9.780  0.0748 -0.0536 -0.1523
  633DPPI   C2A10072   4.961   5.833   9.317 -0.3235 -0.2386 -0.0113
  633DPPI   C3A10073   5.131   5.881   8.807  0.3105 -0.0937  0.0113
  633DPPI   C4A10074   5.263   5.899   8.326 -0.0943  0.1828  0.0609
  633DPPI   C1B10075   4.541   5.620   9.485  0.1425  0.1034 -0.3350
  633DPPI   C2B10076   4.530   5.559   9.052 -0.1858 -0.0730  0.4089
  633DPPI   C3B10077   4.697   5.609   8.705  0.0405 -0.0322 -0.1966
  633DPPI   C4B10078   4.960   5.524   8.251  0.1675  0.0557  0.2349
  634DPPI    C110079   0.756   3.320  10.052  0.1071 -0.1117 -0.0993
  634DPPI    C210080   0.489   3.618  10.030  0.0968 -0.1030  0.1231
  634DPPI    C310081   0.474   3.357  10.333  0.0005 -0.4341 -0.1599
  634DPPI   PO410082   0.802   3.221   9.739  0.2017 -0.2074 -0.1507
  634DPPI   GL110083   1.066   2.933   9.473  0.1183  0.2880 -0.3325
  634DPPI   GL210084   1.354   3.051   9.443  0.3372 -0.1979  0.3671
  634DPPI   C1A10085   1.273   2.804   8.991  0.0365  0.0165 -0.1950
  634DPPI   C2A10086   1.369   2.772   8.635 -0.0689 -0.1057  0.1477
  634DPPI   C3A10087   1.436   2.765   8.180  0.2855  0.1118 -0.1099
  634DPPI   C4A10088   1.583   2.804   7.734  0.0179  0.0582  0.1753
  634DPPI   C1B10089   1.301   3.306   9.091  0.4103 -0.2265 -0.0707
  634DPPI   C2B10090   1.396   3.253   8.700 -0.0405  0.1844 -0.0154
  634DPPI   C3B10091   1.461   3.306   8.281 -0.0188 -0.0366  0.2900
  634DPPI   C4B10092   1.517   3.352   7.792  0.0478  0.0633 -0.1384
  635PYPI    C110093   5.803  12.093  10.462 -0.4397 -0.3108 -0.0765
  635PYPI    C210094   5.852  12.423  10.683  0.0497 -0.1600 -0.3921
  635PYPI    C310095   5.490  12.256  10.649 -0.0858 -0.0335  0.2925
  635PYPI   PO410096   6.017  12.138  10.319  0.1183  0.1673 -0.2396
  635PYPI   GL110097   5.992  12.326   9.904 -0.2300  0.0721 -0.2345
  635PYPI   GL210098   6.077  12.576   9.988  0.1410  0.0841 -0.2743
  635PYPI   C1A10099   6.083  12.239   9.528  0.0194 -0.0578 -0.2545
  635PYPI   C2A10100   6.082  12.290   9.164 -0.1569  0.2301  0.0692
  635PYPI   D3A10101   6.097  12.468   8.806 -0.0678  0.4614 -0.0821
  635PYPI   C4A10102   5.910  12.894   8.670 -0.3252  0.4260 -0.1240
  635PYPI   C1B10103   5.897  12.701   9.511  0.0559 -0.2961  0.1169
  635PYPI   C2B10104   6.016  12.812   9.136  0.2084  0.1446 -0.4029
  635PYPI   C3B10105   6.397  12.981   8.924 -0.0779  0.1563  0.2246
  635PYPI   C4B10106   6.372  13.099   8.538 -0.2084  0.0594 -0.0065
  636PYPI    C110107   3.654  11.344   9.609 -0.3040  0.1409  0.1604
  636PYPI    C210108   3.653  11.155   9.961 -0.1695  0.1459  0.1642
  636PYPI    C310109   3.506  10.974   9.636  0.0598 -0.0098  0.1454
  636PYPI   PO410110   3.584  11.591   9.686 -0.0309  0.4002  0.0768
  636PYPI   GL110111   3.533  11.955   9.397  0.1837 -0.0092  0.0819
  636PYPI   GL210112   3.422  11.651   9.158  0.0325 -0.5762  0.2417
  636PYPI   C1A10113   3.853  11.853   9.125  0.3834  0.4797 -0.1559
  636PYPI   C2A10114   3.834  11.939   8.752  0.3607 -0.1169  0.1666
  636PYPI   D3A10115   4.256  11.913   8.517  0.2479  0.2025  0.2389
  636PYPI   C4A10116   4.380  11.774   8.077 -0.1606  0.0529  0.2639
  636PYPI   C1B10117   3.065  11.439   8.835  0.2586  0.1829  0.0047
  636PYPI   C2B10118   3.046  11.363   8.357 -0.0391 -0.1429  0.5017
  636PYPI   C3B10119   2.671  11.383   8.207 -0.3531 -0.0938  0.2565
  636PYPI   C4B10120   2.487  11.430   7.871 -0.4289 -0.2884  0.4508
  637PYPI    C110121  10.508  18.475  10.706 -0.2633  0.1219 -0.0113
  637PYPI    C210122  10.584  18.860  10.629 -0.0127  0.0609 -0.0763
  637PYPI    C310123  10.514  18.742  11.005 -0.0649  0.1657 -0.0528
  637PYPI   PO410124  10.394  18.442  10.420 -0.1454 -0.2752 -0.0938
  637PYPI   GL110125  10.247  18.303   9.984  0.1304 -0.2547 -0.0999
  637PYPI   GL210126   9.963  18.182   9.861  0.1760  0.0926  0.1166
  637PYPI   C1A10127  10.155  18.761   9.776  0.1177 -0.3199  0.2022
  637PYPI   C2A10128  10.416  19.022   9.497 -0.2229 -0.3130  0.2260
  637PYPI   D3A10129  10.709  19.302   9.321 -0.1824  0.1994 -0.0454
  637PYPI   C4A10130  10.724  19.514   8.879 -0.1942 -0.0773  0.2313
  637PYPI   C1B10131   9.858  18.332   9.437  0.1558 -0.1374 -0.2111
  637PYPI   C2B10132   9.833  18.455   9.044 -0.2709  0.1801 -0.0942
  637PYPI   C3B10133   9.883  18.460   8.604  0.2393 -0.2414  0.3019
  637PYPI   C4B10134   9.576  18.457   8.502 -0.1715 -0.0107 -0.2507
  638PYPI    C110135  16.679   0.548  10.215 -0.1659  0.1233  0.4279
  638PYPI    C210136  16.699   0.174  10.353  0.1782  0.0356  0.1547
  638PYPI    C310137  16.352   0.318  10.217  0.0912 -0.2598  0.0566
  638PYPI   PO410138  16.827   0.764   9.953  0.1973 -0.1565  0.1164
  638PYPI   GL110139  16.960   0.976   9.621 -0.0988 -0.0596  0.2348
  638PYPI   GL210140  16.675   0.897   9.417 -0.1934 -0.4066 -0.1542
  638PYPI   C1A10141  17.147   0.914   9.175  0.0541  0.3369  0.1609
  638PYPI   C2A10142  17.147   0.823   8.666  0.0927 -0.1060 -0.1905
  638PYPI   D3A10143  17.229   0.875   8.330  0.2236  0.1652  0.0397
  638PYPI   C4A10144  17.315   1.199   8.010 -0.0919  0.2514  0.0204
  638PYPI   C1B10145  16.800   0.661   8.975 -0.0528  0.0930 -0.0984
  638PYPI   C2B10146  16.743   0.484   8.480  0.0438  0.3362  0.5363
  638PYPI   C3B10147  16.799   0.714   8.093 -0.1555  0.1248  0.0220
  638PYPI   C4B10148  16.992   0.865   7.720 -0.0012  0.0339 -0.0388
  639PYPI    C110149   0.628   0.813   9.879 -0.0303 -0.1246  0.0925
  639PYPI    C210150   0.246   0.744   9.783 -0.0548  0.0898  0.0288
  639PYPI    C310151   0.412   0.553  10.093 -0.2300  0.0380  0.0919
  639PYPI   PO410152   0.842   0.815   9.724 -0.2313 -0.3355  0.4160
  639PYPI   GL110153   1.026   0.653   9.405 -0.3064 -0.4105 -0.1366
  639PYPI   GL210154   1.408   0.583   9.352 -0.0057  0.0772 -0.1978
  639PYPI   C1A10155   0.805   0.413   9.073 -0.2177 -0.0554 -0.1522
  639PYPI   C2A10156   0.819   0.466   8.610 -0.1140  0.2052 -0.3177
  639PYPI   D3A10157   0.743   0.486   8.203 -0.0643  0.1171  0.0204
  639PYPI   C4A10158   0.948   0.259   7.885 -0.2018  0.2403  0.0796
  639PYPI   C1B10159   1.299   0.544   8.966  0.0937  0.1441  0.0695
  639PYPI   C2B10160   1.245   0.633   8.570  0.0624  0.2484 -0.1154
  639PYPI   C3B10161   1.267   0.533   8.150  0.0418  0.1581  0.3802
  639PYPI   C4B10162   1.153   0.723   7.779  0.1479 -0.0841  0.2182
  640PYPI    C110163  15.417  12.411  10.034  0.0781  0.2101  0.0317
  640PYPI    C210164  15.608  12.077  10.143 -0.4014 -0.1095 -0.0748
  640PYPI    C310165  15.664  12.415  10.348  0.2086 -0.2099 -0.0583
  640PYPI   PO410166  15.370  12.387   9.752  0.1055  0.0151  0.0266
  640PYPI   GL110167  15.480  12.339   9.397 -0.2704 -0.0056  0.2824
  640PYPI   GL210168  15.726  12.152   9.543 -0.3952  0.1548 -0.0923
  640PYPI   C1A10169  15.762  12.247   9.076 -0.2045  0.1252 -0.0951
  640PYPI   C2A10170  15.887  12.079   8.716  0.1224  0.0522 -0.0520
  640PYPI   D3A10171  16.160  11.873   8.595 -0.1733  0.0735  0.0756
  640PYPI   C4A10172  16.300  11.777   8.132 -0.0530 -0.2610  0.1177
  640PYPI   C1B10173  16.212  12.165   9.274  0.2830 -0.1827 -0.1637
  640PYPI   C2B10174  16.446  12.189   8.909  0.1710  0.2612  0.1741
  640PYPI   C3B10175  16.582  12.527   8.745  0.1558 -0.0803 -0.4790
  640PYPI   C4B10176  16.622  12.831   8.403 -0.0917  0.0160 -0.0954
  641ERGO   ROH10177   8.875   0.674  10.323 -0.1523  0.2954 -0.0623
  641ERGO    R110178   8.922   0.815  10.081  0.0475  0.1349 -0.1200
  641ERGO    R210179   9.109   0.733   9.894 -0.0397 -0.1861 -0.0706
  641ERGO    R310180   8.897   0.744   9.725 -0.0145  0.0137 -0.0927
  641ERGO    R410181   9.130   0.769   9.551  0.0254 -0.0306 -0.0520
  641ERGO    R510182   8.960   0.904   9.559  0.0970  0.0620 -0.0077
  641ERGO    C110183   8.943   0.799   9.193  0.0870  0.2475 -0.0618
  641ERGO    C210184   8.949   0.812   8.871  0.2728  0.1858 -0.2420
  642ERGO   ROH10185  11.444   3.827   9.747  0.1638 -0.0186 -0.0093
  642ERGO    R110186  11.459   3.724   9.484 -0.0670 -0.1212  0.0153
  642ERGO    R210187  11.237   3.692   9.325 -0.1650  0.1831  0.0859
  642ERGO    R310188  11.379   3.842   9.149  0.0296 -0.0905  0.0021
  642ERGO    R410189  11.211   3.667   8.981 -0.3340  0.1483  0.1003
  642ERGO    R510190  11.429   3.690   8.969 -0.2906 -0.2199  0.0154
  642ERGO    C110191  11.330   3.793   8.615 -0.2498 -0.1289  0.0301
  642ERGO    C210192  11.240   3.806   8.234 -0.3608  0.0779  0.2030
  643ERGO   ROH10193   2.081  12.161   9.462 -0.0351 -0.0849 -0.0901
  643ERGO    R110194   1.940  12.146   9.217 -0.0302  0.0918 -0.1058
  643ERGO    R210195   1.920  12.360   9.044  0.1540  0.1556 -0.0536
  643ERGO    R310196   2.019  12.183   8.864  0.0261  0.1212 -0.0901
  643ERGO    R410197   1.924  12.407   8.702 -0.1661  0.0543 -0.0741
  643ERGO    R510198   1.870  12.197   8.677 -0.1477  0.0356  0.0390
  643ERGO    C110199   2.019  12.268   8.333 -0.4725 -0.0370 -0.1201
  643ERGO    C210200   2.066  12.303   8.037  0.2850 -0.2036 -0.0499
  644ERGO   ROH10201  11.623   8.584   9.658 -0.2346  0.2103  0.0811
  644ERGO    R110202  11.457   8.377   9.561 -0.0324  0.0816  0.0044
  644ERGO    R210203  11.261   8.420   9.371 -0.1119 -0.0275  0.0616
  644ERGO    R310204  11.390   8.220   9.239  0.0785  0.1745 -0.0648
  644ERGO    R410205  11.185   8.313   9.051 -0.2088 -0.0902  0.1049
  644ERGO    R510206  11.217   8.108   9.117  0.1406 -0.0590  0.0550
  644ERGO    C110207  11.263   8.064   8.741 -0.0866  0.0630  0.0114
  644ERGO    C210208  11.135   8.258   8.455 -0.1321  0.0997  0.3828
  645ERGO   ROH10209  16.506  11.551   9.597 -0.1569  0.1793 -0.0029
  645ERGO    R110210  16.527  11.667   9.340  0.1736  0.1443  0.0031
  645ERGO    R210211  16.755  11.646   9.186  0.2213 -0.2647  0.1088
  645ERGO    R310212  16.582  11.549   9.000  0.1267  0.0378  0.0335
  645ERGO    R410213  16.808  11.650   8.844  0.1974 -0.0264  0.1066
  645ERGO    R510214  16.598  11.702   8.817  0.2427  0.1749  0.1603
  645ERGO    C110215  16.677  11.560   8.472  0.0945  0.3962  0.0346
  645ERGO    C210216  16.666  11.462   8.216  0.0018  0.1267  0.0538
  646ERGO   ROH10217   8.099  14.366   9.779 -0.0794  0.0354 -0.0008
  646ERGO    R110218   8.009  14.240   9.542 -0.1975 -0.0093  0.0654
  646ERGO    R210219   7.793  14.332   9.397 -0.1249  0.1112  0.0180
  646ERGO    R310220   7.972  14.331   9.192 -0.1213 -0.1518  0.0215
  646ERGO    R410221   7.710  14.359   9.062 -0.0707  0.1636  0.0096
  646ERGO    R510222   7.861  14.209   9.018 -0.2668 -0.0350  0.0382
  646ERGO    C110223   7.829  14.373   8.675 -0.0357 -0.0529  0.0081
  646ERGO    C210224   7.945  14.550   8.366 -0.1532 -0.2484 -0.0683
  647ERGO   ROH10225  13.516  14.523   9.092 -0.0170 -0.3303 -0.0938
  647ERGO    R110226  13.480  14.756   8.936  0.0786 -0.2071  0.0627
  647ERGO    R210227  13.678  14.859   8.774  0.0784 -0.2597  0.0202
  647ERGO    R310228  13.487  14.841   8.583 -0.0374 -0.0061  0.1083
  647ERGO    R410229  13.698  15.004   8.461  0.1383 -0.3146 -0.0013
  647ERGO    R510230  13.487  15.056   8.478  0.2176 -0.0146  0.0900
  647ERGO    C110231  13.529  15.071   8.099  0.0644 -0.1087  0.0688
  647ERGO    C210232  13.509  15.026   7.808  0.1622 -0.2546 -0.1817
  648ERGO   ROH10233   4.285  18.051   9.807 -0.2014  0.0106 -0.0732
  648ERGO    R110234   4.401  18.078   9.550 -0.2330  0.3469 -0.0571
  648ERGO    R210235   4.351  17.899   9.345  0.2944  0.2017 -0.0676
  648ERGO    R310236   4.281  18.123   9.209 -0.3245  0.0239 -0.0731
  648ERGO    R410237   4.381  17.939   9.003  0.6186  0.4031 -0.0202
  648ERGO    R510238   4.448  18.144   9.038 -0.1375  0.6619  0.1513
  648ERGO    C110239   4.332  18.173   8.676  0.2264  0.3538  0.0023
  648ERGO    C210240   4.464  18.139   8.376  0.0622  0.2027 -0.0516
  649ERGO   ROH10241   4.486   2.985   9.719  0.2861 -0.2900 -0.1381
  649ERGO    R110242   4.449   3.047   9.446  0.2159 -0.2250 -0.1129
  649ERGO    R210243   4.659   3.057   9.266  0.1577 -0.2352 -0.1696
  649ERGO    R310244   4.506   2.880   9.127  0.0782 -0.1685 -0.1708
  649ERGO    R410245   4.635   3.044   8.921  0.0158 -0.0867 -0.1677
  649ERGO    R510246   4.422   3.007   8.942  0.0111 -0.0754 -0.0867
  649ERGO    C110247   4.478   2.871   8.590 -0.1415  0.0624 -0.1675
  649ERGO    C210248   4.529   2.854   8.242  0.1819 -0.0791  0.0199
  650ERGO   ROH10249   4.125  14.942   9.617 -0.1424  0.0625 -0.0197
  650ERGO    R110250   4.181  14.829   9.363 -0.0397  0.0331  0.0170
  650ERGO    R210251   4.001  14.839   9.153  0.0640  0.0425 -0.0639
  650ERGO    R310252   4.212  14.949   9.021  0.1415 -0.0036  0.0178
  650ERGO    R410253   4.028  14.866   8.809  0.1526  0.1136 -0.0525
  650ERGO    R510254   4.239  14.813   8.826  0.1352  0.0276 -0.0109
  650ERGO    C110255   4.242  14.986   8.486  0.2769  0.1119  0.0307
  650ERGO    C210256   4.246  15.001   8.225  0.1514 -0.0628  0.0520
  651ERGO   ROH10257   7.499   4.333  10.675 -0.1123  0.2061 -0.0505
  651ERGO    R110258   7.511   4.285  10.397 -0.2681  0.1673 -0.0522
  651ERGO    R210259   7.443   4.476  10.211 -0.1257  0.2322 -0.0465
  651ERGO    R310260   7.691   4.422  10.112 -0.2163 -0.0548 -0.1259
  651ERGO    R410261   7.535   4.512   9.879 -0.0366  0.6449  0.0173
  651ERGO    R510262   7.649   4.326   9.896 -0.3817  0.3994 -0.3018
  651ERGO    C110263   7.820   4.483   9.593 -0.0698  0.6160 -0.0201
  651ERGO    C210264   8.126   4.688   9.450  0.0715  0.0624  0.0005
  652ERGO   ROH10265  15.033   9.616   9.474  0.0149  0.1648 -0.0862
  652ERGO    R110266  14.959   9.558   9.207 -0.0877  0.2048 -0.0672
  652ERGO    R210267  14.938   9.753   9.013  0.2330  0.1860 -0.1276
  652ERGO    R310268  15.110   9.592   8.878 -0.0329 -0.1451 -0.0813
  652ERGO    R410269  14.971   9.743   8.669  0.2525  0.0669 -0.1221
  652ERGO    R510270  14.989   9.526   8.682 -0.1301  0.0322 -0.0817
  652ERGO    C110271  15.151   9.584   8.342  0.0143 -0.3131 -0.0754
  652ERGO    C210272  15.444   9.519   8.122 -0.5250  0.2320  0.1425
  653ERGO   ROH10273  14.387   8.856   9.673 -0.0662  0.2106  0.0538
  653ERGO    R110274  14.409   8.849   9.391 -0.0713  0.1482  0.0544
  653ERGO    R210275  14.213   8.741   9.229 -0.0032 -0.0396  0.0883
  653ERGO    R310276  14.225   8.984   9.108 -0.1812 -0.0614  0.0252
  653ERGO    R410277  14.236   8.791   8.888  0.0270 -0.1047  0.0810
  653ERGO    R510278  14.377   8.953   8.926 -0.1183  0.0216  0.0669
  653ERGO    C110279  14.260   9.048   8.576 -0.1225 -0.1631  0.0174
  653ERGO    C210280  14.287   8.886   8.264  0.2982  0.2136 -0.1554
  654ERGO   ROH10281  11.242  17.322   9.567  0.1309  0.0614  0.1642
  654ERGO    R110282  11.164  17.440   9.322  0.0639 -0.0337  0.1391
  654ERGO    R210283  11.079  17.702   9.303  0.0041 -0.0568  0.0691
  654ERGO    R310284  11.274  17.718   9.115 -0.0308 -0.0752  0.0315
  654ERGO    R410285  11.107  17.954   9.068 -0.0675 -0.1060  0.0076
  654ERGO    R510286  11.163  17.804   8.921 -0.0750 -0.1323  0.0317
  654ERGO    C110287  11.307  18.116   8.755 -0.1420 -0.1522 -0.0634
  654ERGO    C210288  11.317  18.244   8.507 -0.0629 -0.1009 -0.1150
  655ERGO   ROH10289  16.987   7.622   9.594 -0.4074  0.0197  0.1360
  655ERGO    R110290  16.911   7.596   9.322 -0.2224 -0.0963  0.0930
  655ERGO    R210291  16.978   7.783   9.131 -0.3990  0.0103  0.1305
  655ERGO    R310292  17.081   7.567   9.001  0.0017  0.1602  0.1849
  655ERGO    R410293  17.004   7.752   8.787 -0.3501 -0.0351  0.1384
  655ERGO    R510294  16.943   7.544   8.807  0.0366 -0.1481  0.1939
  655ERGO    C110295  17.115   7.532   8.466  0.0548  0.0791  0.1940
  655ERGO    C210296  17.164   7.644   8.129 -0.0303  0.2139  0.0893
  656ERGO   ROH10297  11.515  10.462   9.316 -0.1933  0.0585  0.0166
  656ERGO    R110298  11.417  10.579   9.077 -0.0597  0.0474 -0.0460
  656ERGO    R210299  11.580  10.638   8.861  0.0629  0.0273  0.0321
  656ERGO    R310300  11.401  10.487   8.726  0.1290  0.0213 -0.0461
  656ERGO    R410301  11.570  10.602   8.518  0.1391  0.0952  0.0228
  656ERGO    R510302  11.354  10.611   8.528  0.1442  0.0459 -0.0262
  656ERGO    C110303  11.396  10.438   8.191  0.2455  0.1292 -0.0557
  656ERGO    C210304  11.557  10.328   7.884 -0.2870 -0.0719 -0.0640
  657ERGO   ROH10305   4.640   7.645  10.197  0.0766  0.1289 -0.0984
  657ERGO    R110306   4.775   7.502   9.994  0.1080  0.1317 -0.0806
  657ERGO    R210307   4.646   7.321   9.828  0.1756 -0.0324  0.0393
  657ERGO    R310308   4.753   7.474   9.631  0.0036 -0.0414 -0.0622
  657ERGO    R410309   4.660   7.232   9.495  0.0921 -0.1470  0.0669
  657ERGO    R510310   4.861   7.317   9.486  0.0372 -0.0306 -0.0472
  657ERGO    C110311   4.769   7.323   9.116 -0.1181 -0.2222 -0.0126
  657ERGO    C210312   4.643   7.433   8.766  0.1455  0.0379  0.1225
  658ERGO   ROH10313  13.640  12.487   9.138  0.1378  0.2985 -0.1021
  658ERGO    R110314  13.498  12.448   8.896  0.1694  0.1466 -0.0986
  658ERGO    R210315  13.525  12.616   8.679  0.0211  0.1516 -0.1210
  658ERGO    R310316  13.581  12.385   8.548  0.2282  0.1824 -0.0894
  658ERGO    R410317  13.559  12.586   8.336  0.0157  0.1169 -0.1181
  658ERGO    R510318  13.451  12.397   8.347  0.1993  0.0195 -0.0766
  658ERGO    C110319  13.630  12.351   8.014  0.2071  0.1256 -0.0864
  658ERGO    C210320  13.782  12.294   7.608  0.0084  0.0528  0.0331
  659ERGO   ROH10321   5.515   4.571  10.061  0.2433  0.0664 -0.0663
  659ERGO    R110322   5.395   4.640   9.814  0.1081  0.0295 -0.0098
  659ERGO    R210323   5.538   4.741   9.601 -0.0208  0.0529 -0.0784
  659ERGO    R310324   5.423   4.534   9.467 -0.0395  0.0257 -0.0237
  659ERGO    R410325   5.570   4.684   9.261 -0.1560  0.0667 -0.0947
  659ERGO    R510326   5.359   4.629   9.256 -0.1547  0.0201  0.0020
  659ERGO    C110327   5.480   4.457   8.938 -0.2523  0.0493 -0.0529
  659ERGO    C210328   5.404   4.448   8.605 -0.2857 -0.2609 -0.0330
  660ERGO   ROH10329   8.113   5.973  10.494  0.0367 -0.3177 -0.0339
  660ERGO    R110330   8.119   6.025  10.216 -0.0112 -0.3181 -0.0359
  660ERGO    R210331   8.280   6.222  10.105 -0.2644 -0.0968 -0.0307
  660ERGO    R310332   8.369   6.017   9.951  0.0298  0.0116 -0.0104
  660ERGO    R410333   8.273   6.216   9.759 -0.2829 -0.1629 -0.0288
  660ERGO    R510334   8.214   6.007   9.768  0.0306 -0.2490  0.0046
  660ERGO    C110335   8.353   6.020   9.414 -0.0173 -0.0995 -0.0087
  660ERGO    C210336   8.234   6.095   9.162  0.0050  0.0510  0.3915
  661ERGO   ROH10337  17.145  18.300   9.448 -0.2234  0.1547 -0.2164
  661ERGO    R110338  17.322  18.326   9.228 -0.2164  0.0515 -0.2236
  661ERGO    R210339  17.435  18.108   9.101 -0.1726 -0.0076 -0.0858
  661ERGO    R310340  17.328  18.222   8.880 -0.1813 -0.1598 -0.1614
  661ERGO    R410341  17.611  18.181   8.813 -0.0910  0.1698  0.0068
  661ERGO    R510342  17.500  18.368   8.799 -0.3073  0.0379 -0.0772
  661ERGO    C110343  17.612  18.331   8.436 -0.0515  0.1302 -0.0103
  661ERGO    C210344  17.762  18.210   8.294  0.0323 -0.0356 -0.0566
  662ERGO   ROH10345   9.400  14.925   9.340  0.1913  0.0515 -0.0812
  662ERGO    R110346   9.338  14.803   9.092  0.2625 -0.1581  0.0028
  662ERGO    R210347   9.293  14.948   8.862 -0.0486 -0.3308 -0.0479
  662ERGO    R310348   9.487  14.788   8.761  0.1457 -0.0984 -0.0537
  662ERGO    R410349   9.373  14.923   8.527 -0.0831 -0.2896 -0.0597
  662ERGO    R510350   9.396  14.707   8.554  0.2052 -0.2590 -0.0209
  662ERGO    C110351   9.602  14.757   8.236  0.0791 -0.0474 -0.0719
  662ERGO    C210352   9.662  14.619   7.955 -0.1000 -0.0712  0.1588
  663ERGO   ROH10353   7.319  11.963   9.859 -0.0313  0.0320 -0.0402
  663ERGO    R110354   7.311  11.974   9.576 -0.0535  0.0390 -0.0395
  663ERGO    R210355   7.188  11.781   9.422 -0.0793  0.0513 -0.0355
  663ERGO    R310356   7.054  11.993   9.319 -0.0726  0.0621 -0.0182
  663ERGO    R410357   7.080  11.805   9.095 -0.1755  0.0369 -0.0049
  663ERGO    R510358   7.140  12.015   9.096 -0.1387  0.0238 -0.0460
  663ERGO    C110359   6.891  12.020   8.808 -0.2253  0.0389  0.0291
  663ERGO    C210360   6.850  12.184   8.575  0.2437 -0.0392  0.1955
  664ERGO   ROH10361   4.547  16.826   9.880 -0.0722 -0.1043  0.0301
  664ERGO    R110362   4.491  16.766   9.609 -0.0250 -0.0761  0.0143
  664ERGO    R210363   4.507  16.956   9.409 -0.0463 -0.0436  0.0473
  664ERGO    R310364   4.672  16.774   9.294  0.0103  0.0147  0.0351
  664ERGO    R410365   4.585  16.945   9.072 -0.2243 -0.1226  0.0073
  664ERGO    R510366   4.572  16.728   9.082 -0.0807 -0.1337  0.1050
  664ERGO    C110367   4.786  16.767   8.769 -0.2749 -0.1139 -0.0274
  664ERGO    C210368   4.843  16.779   8.488 -0.0401  0.0452 -0.0210
  665ERGO   ROH10369  10.760  11.194   9.362 -0.0678  0.3315 -0.0716
  665ERGO    R110370  10.775  11.102   9.094 -0.0998  0.2187 -0.0358
  665ERGO    R210371  10.578  10.948   8.978 -0.1377  0.2087  0.0363
  665ERGO    R310372  10.582  11.143   8.789 -0.1083  0.1326 -0.0415
  665ERGO    R410373  10.440  10.919   8.662  0.0921  0.0123 -0.0488
  665ERGO    R510374  10.613  11.025   8.583  0.0918  0.0657  0.0271
  665ERGO    C110375  10.364  11.086   8.301  0.2534 -0.1736 -0.1716
  665ERGO    C210376  10.200  11.295   8.060  0.0432  0.0146  0.2429
  666ERGO   ROH10377  17.946   8.131   9.275 -0.1211  0.1457 -0.0408
  666ERGO    R110378  17.917   8.006   9.023 -0.1173  0.1681 -0.0518
  666ERGO    R210379  17.884   8.149   8.789  0.0468  0.1929 -0.0588
  666ERGO    R310380  18.098   8.003   8.707 -0.0173  0.0607  0.0055
  666ERGO    R410381  17.955   8.071   8.460  0.1719  0.2719 -0.0517
  666ERGO    R510382  18.014   7.871   8.526 -0.0184  0.1976 -0.0963
  666ERGO    C110383  18.197   7.888   8.192  0.1845  0.1938  0.0129
  666ERGO    C210384  18.414   7.888   7.856 -0.2124  0.1049  0.1487
  667ERGO   ROH10385   6.834   1.859  10.000 -0.3295  0.0708  0.1958
  667ERGO    R110386   6.744   1.960   9.751 -0.1213  0.1940  0.1688
  667ERGO    R210387   6.881   2.154   9.611  0.2265 -0.0457  0.1713
  667ERGO    R310388   6.869   1.972   9.410 -0.0399 -0.0500  0.1876
  667ERGO    R410389   6.883   2.231   9.274  0.5154 -0.0784  0.1626
  667ERGO    R510390   6.733   2.077   9.243  0.2244  0.1998  0.1186
  667ERGO    C110391   6.873   2.105   8.889  0.4335 -0.1016  0.1726
  667ERGO    C210392   6.743   2.124   8.625 -0.1968 -0.0030 -0.0534
  668ERGO   ROH10393   8.098  17.931  10.202 -0.1305 -0.2691 -0.0025
  668ERGO    R110394   7.902  17.953   9.999 -0.1276 -0.0926  0.0117
  668ERGO    R210395   7.858  18.188   9.860  0.0446 -0.0376  0.0408
  668ERGO    R310396   7.897  18.029   9.643 -0.0889 -0.0453  0.0222
  668ERGO    R410397   7.743  18.256   9.541  0.0520  0.0608  0.0593
  668ERGO    R510398   7.693  18.045   9.519 -0.0906  0.0988  0.0474
  668ERGO    C110399   7.713  18.146   9.152 -0.0689  0.1110  0.0526
  668ERGO    C210400   7.602  18.201   8.754  0.0167 -0.2051  0.2284
  669ERGO   ROH10401  15.004  16.578   9.590  0.1736 -0.2296  0.1344
  669ERGO    R110402  15.178  16.454   9.404  0.0959 -0.0752 -0.0420
  669ERGO    R210403  15.096  16.381   9.150 -0.0627 -0.0347  0.0027
  669ERGO    R310404  15.310  16.532   9.073 -0.1999  0.1005 -0.1247
  669ERGO    R410405  15.224  16.395   8.829 -0.0186 -0.2894  0.0067
  669ERGO    R510406  15.424  16.395   8.914 -0.0270  0.0179  0.0572
  669ERGO    C110407  15.498  16.544   8.570 -0.1216 -0.3106 -0.1106
  669ERGO    C210408  15.417  16.616   8.244 -0.1878 -0.0356  0.1494
  670ERGO   ROH10409   2.760  14.013   8.993  0.1772  0.0973 -0.1097
  670ERGO    R110410   2.669  13.899   8.750  0.0514  0.1019 -0.0651
  670ERGO    R210411   2.671  14.038   8.511 -0.0686  0.1044 -0.0633
  670ERGO    R310412   2.812  13.823   8.424 -0.1162  0.1034 -0.1405
  670ERGO    R410413   2.650  13.903   8.194  0.0751  0.3685 -0.1892
  670ERGO    R510414   2.659  13.705   8.283 -0.0828  0.2899 -0.3394
  670ERGO    C110415   2.770  13.622   7.927  0.1140  0.5212 -0.3349
  670ERGO    C210416   2.977  13.581   7.603  0.0737 -0.0763 -0.2010
  671ERGO   ROH10417   8.155   2.053  10.361 -0.0508  0.3224  0.0736
  671ERGO    R110418   8.200   2.156  10.101 -0.0347  0.1057 -0.0099
  671ERGO    R210419   8.423   2.092   9.952  0.0037  0.0385  0.0918
  671ERGO    R310420   8.238   2.020   9.766  0.0640 -0.1758  0.1095
  671ERGO    R410421   8.463   2.129   9.611 -0.1789  0.3985  0.1043
  671ERGO    R510422   8.254   2.191   9.599 -0.3236  0.0076  0.2380
  671ERGO    C110423   8.312   2.084   9.237 -0.2287  0.4071  0.1281
  671ERGO    C210424   8.303   2.079   8.910 -0.1175  0.1001  0.0830
  672ERGO   ROH10425   2.946   9.619   9.692 -0.3526 -0.3832  0.2481
  672ERGO    R110426   3.038   9.415   9.519 -0.1297 -0.2159  0.1662
  672ERGO    R210427   2.889   9.188   9.463  0.0777 -0.3096  0.0037
  672ERGO    R310428   2.929   9.265   9.205  0.0908 -0.1464  0.0524
  672ERGO    R410429   2.837   8.988   9.187  0.0514 -0.1320 -0.1227
  672ERGO    R510430   3.018   9.070   9.098  0.0681 -0.0957 -0.0693
  672ERGO    C110431   2.843   8.943   8.784  0.0484  0.1247 -0.1508
  672ERGO    C210432   2.947   8.747   8.522  0.1419  0.3293  0.0607
  673ERGO   ROH10433   6.273   9.353   9.672 -0.1831  0.1119 -0.2439
  673ERGO    R110434   6.238   9.311   9.394  0.0205  0.0955 -0.2682
  673ERGO    R210435   6.361   9.468   9.203  0.1664  0.0805 -0.1880
  673ERGO    R310436   6.451   9.228   9.111  0.2290  0.0721 -0.1072
  673ERGO    R410437   6.410   9.390   8.870 -0.0564 -0.1057 -0.1800
  673ERGO    R510438   6.327   9.192   8.909  0.0869 -0.1290  0.0130
  673ERGO    C110439   6.522   9.121   8.589 -0.1275 -0.2222 -0.0994
  673ERGO    C210440   6.731   8.969   8.360  0.1713 -0.2207  0.0025
  674PSPI    C110441  14.527  10.182   5.244 -0.0902 -0.2157 -0.0658
  674PSPI    C210442  14.531  10.555   5.099 -0.0705 -0.1613  0.0726
  674PSPI    C310443  14.715  10.261   4.899 -0.0697 -0.0936 -0.0272
  674PSPI   PO410444  14.571  10.317   5.506 -0.0008  0.0356 -0.0908
  674PSPI   GL110445  14.422  10.188   5.871 -0.0700  0.0225 -0.2286
  674PSPI   GL210446  14.725   9.983   5.898  0.1713  0.1088 -0.1661
  674PSPI   C1A10447  14.432  10.236   6.248 -0.1513 -0.3581  0.1371
  674PSPI   C2A10448  14.248  10.181   6.621  0.1775  0.0154  0.3265
  674PSPI   C3A10449  14.129  10.109   7.031 -0.2165 -0.1566  0.0683
  674PSPI   C4A10450  13.811  10.135   7.339  0.1094  0.0015  0.1266
  674PSPI   C1B10451  14.729   9.807   6.353 -0.1486  0.3400 -0.3482
  674PSPI   C2B10452  14.604   9.791   6.773  0.2823 -0.2266  0.0093
  674PSPI   C3B10453  14.550   9.839   7.197 -0.0477 -0.1305  0.0589
  674PSPI   C4B10454  14.378   9.331   7.183  0.0203 -0.1029 -0.2544
  675PSPI    C110455   3.592  10.229   5.735 -0.1309  0.0855 -0.0321
  675PSPI    C210456   3.676   9.927   5.984 -0.0400  0.0456 -0.1101
  675PSPI    C310457   3.598   9.853   5.599  0.0266  0.1256 -0.1393
  675PSPI   PO410458   3.851  10.428   5.908  0.0386 -0.2907  0.1382
  675PSPI   GL110459   3.696  10.423   6.357 -0.3173 -0.0007 -0.1040
  675PSPI   GL210460   3.283  10.332   6.266  0.0625 -0.0130  0.0437
  675PSPI   C1A10461   3.454  10.656   6.716 -0.3603 -0.0945  0.1890
  675PSPI   C2A10462   3.267  10.910   7.099  0.2800 -0.3312 -0.2044
  675PSPI   C3A10463   3.306  11.001   7.605  0.4173  0.3343 -0.0309
  675PSPI   C4A10464   3.163  10.867   8.094  0.1476 -0.0140  0.1377
  675PSPI   C1B10465   3.085  10.329   6.683  0.2278 -0.0909  0.0061
  675PSPI   C2B10466   3.072  10.004   7.139 -0.1112  0.0222  0.0431
  675PSPI   C3B10467   3.231  10.160   7.542 -0.0460  0.2929 -0.0806
  675PSPI   C4B10468   3.625  10.120   7.784 -0.1050  0.2039  0.1651
  676PSPI    C110469  11.920   7.640   5.303  0.0120 -0.0034 -0.2895
  676PSPI    C210470  12.194   7.926   5.359 -0.1364  0.0776  0.0479
  676PSPI    C310471  12.306   7.564   5.233  0.0718  0.2349 -0.2298
  676PSPI   PO410472  11.792   7.637   5.615 -0.1774 -0.0092 -0.3288
  676PSPI   GL110473  11.994   7.566   5.953  0.2510  0.0792 -0.2921
  676PSPI   GL210474  12.302   7.499   5.791  0.0699 -0.0841  0.2340
  676PSPI   C1A10475  12.061   7.232   6.210 -0.3494  0.1202 -0.2758
  676PSPI   C2A10476  12.104   7.418   6.620  0.0278 -0.3581  0.1671
  676PSPI   C3A10477  12.161   7.271   6.983  0.2519  0.1932 -0.1007
  676PSPI   C4A10478  12.135   6.764   7.079 -0.1679  0.2889 -0.1300
  676PSPI   C1B10479  12.413   7.606   6.250  0.3387  0.2207 -0.4466
  676PSPI   C2B10480  12.581   7.442   6.665 -0.1504 -0.2772 -0.0645
  676PSPI   C3B10481  12.868   7.731   6.897  0.2071  0.0514 -0.0309
  676PSPI   C4B10482  13.077   7.918   7.148  0.0889  0.3095 -0.1753
  677PSPI    C110483  10.351  14.068   4.952 -0.0272  0.0008 -0.0064
  677PSPI    C210484  10.621  14.353   5.030 -0.1097  0.0961 -0.0679
  677PSPI    C310485  10.701  14.070   4.759 -0.1062  0.1751 -0.1497
  677PSPI   PO410486  10.180  14.071   5.211  0.0681 -0.0697  0.0607
  677PSPI   GL110487  10.366  13.991   5.656  0.0327 -0.1708  0.0876
  677PSPI   GL210488  10.579  14.244   5.518  0.0495 -0.0376  0.2395
  677PSPI   C1A10489   9.934  14.126   5.923  0.0128  0.0083  0.0058
  677PSPI   C2A10490   9.679  14.002   6.265 -0.1270  0.1425  0.0353
  677PSPI   C3A10491   9.503  13.995   6.682  0.0163  0.1970 -0.2916
  677PSPI   C4A10492   9.492  14.114   7.109  0.2415 -0.0054 -0.0509
  677PSPI   C1B10493  10.985  14.049   5.704  0.1290  0.0751 -0.0192
  677PSPI   C2B10494  11.252  14.082   6.071  0.0496 -0.1049 -0.1450
  677PSPI   C3B10495  11.409  14.341   6.474  0.2355  0.2767  0.0442
  677PSPI   C4B10496  11.420  14.172   6.859  0.1349 -0.1499 -0.4983
  678PSPI    C110497  18.790   7.402   5.364  0.2716 -0.1667  0.0292
  678PSPI    C210498  19.096   7.576   5.174  0.0304  0.1394 -0.0883
  678PSPI    C310499  18.876   7.787   5.434 -0.1718 -0.0340 -0.1162
  678PSPI   PO410500  18.823   7.229   5.514 -0.0740  0.0595 -0.2124
  678PSPI   GL110501  18.901   7.209   5.956  0.0303 -0.1692  0.0463
  678PSPI   GL210502  18.918   6.990   6.112 -0.0843  0.0443 -0.0213
  678PSPI   C1A10503  18.824   7.426   6.261 -0.2263 -0.3337  0.0868
  678PSPI   C2A10504  18.727   7.602   6.605  0.2684 -0.0411 -0.3634
  678PSPI   C3A10505  18.760   7.801   7.088  0.0313 -0.1196  0.0438
  678PSPI   C4A10506  18.910   7.616   7.467  0.1863  0.2285  0.0976
  678PSPI   C1B10507  18.885   6.692   6.425 -0.3852  0.1117  0.1070
  678PSPI   C2B10508  18.776   6.311   6.771  0.0412  0.2421 -0.2012
  678PSPI   C3B10509  18.825   6.252   7.147  0.0770  0.0936 -0.0790
  678PSPI   C4B10510  18.854   6.212   7.625  0.0172  0.0198 -0.0914
  679PSPI    C110511   6.754  17.749   6.080 -0.1902 -0.0073  0.1681
  679PSPI    C210512   6.730  18.147   6.103 -0.0532  0.0082  0.0569
  679PSPI    C310513   6.399  17.930   6.043 -0.2103  0.0653  0.6543
  679PSPI   PO410514   7.008  17.723   6.057 -0.2928  0.1805 -0.2521
  679PSPI   GL110515   7.249  17.692   6.486 -0.0722  0.3918 -0.2521
  679PSPI   GL210516   7.029  17.991   6.536  0.1285 -0.2889 -0.1251
  679PSPI   C1A10517   7.459  17.819   6.879  0.0398  0.0926 -0.0173
  679PSPI   C2A10518   7.904  17.866   7.048 -0.0435 -0.3398 -0.3516
  679PSPI   C3A10519   8.345  17.867   7.109  0.0191  0.4701  0.2369
  679PSPI   C4A10520   8.591  18.103   7.286 -0.2022  0.1781 -0.1408
  679PSPI   C1B10521   6.979  17.907   6.931 -0.0061 -0.1663 -0.3673
  679PSPI   C2B10522   7.155  17.769   7.317 -0.1201 -0.0703 -0.2426
  679PSPI   C3B10523   7.362  17.433   7.520  0.2115 -0.3156  0.1016
  679PSPI   C4B10524   7.429  17.167   7.903 -0.1279 -0.1915  0.1102
  680PSPI    C110525  17.001   1.030   5.172  0.1698  0.1480 -0.2701
  680PSPI    C210526  16.702   1.006   4.908 -0.2407 -0.0219  0.1942
  680PSPI    C310527  16.909   1.346   4.945 -0.1201 -0.0204 -0.3924
  680PSPI   PO410528  16.953   0.791   5.349  0.2113 -0.1929 -0.1594
  680PSPI   GL110529  16.742   0.651   5.746 -0.2715  0.2044  0.0707
  680PSPI   GL210530  17.072   0.815   5.901 -0.1637  0.0645  0.2324
  680PSPI   C1A10531  16.982   0.360   6.038  0.0480 -0.1686 -0.1333
  680PSPI   C2A10532  17.185   0.424   6.447  0.1735 -0.2505  0.0662
  680PSPI   C3A10533  17.134   0.472   6.936 -0.2847 -0.1479 -0.0929
  680PSPI   C4A10534  17.074   0.760   7.260  0.1003 -0.0624 -0.2803
  680PSPI   C1B10535  16.830   0.851   6.269  0.0304 -0.1088 -0.3879
  680PSPI   C2B10536  16.722   0.627   6.648  0.2049 -0.1021 -0.0024
  680PSPI   C3B10537  16.561   0.605   7.111 -0.2392 -0.3051  0.0533
  680PSPI   C4B10538  16.253   0.740   7.439 -0.0623 -0.1002 -0.4440
  681PSPI    C110539   7.281   7.739   5.828 -0.0142  0.0039 -0.1493
  681PSPI    C210540   7.362   7.368   5.952  0.1547  0.0912  0.0067
  681PSPI    C310541   7.251   7.432   5.573 -0.1095 -0.1463  0.0402
  681PSPI   PO410542   7.235   7.788   6.157  0.2624  0.2899 -0.0020
  681PSPI   GL110543   7.163   7.928   6.563  0.2708 -0.0650 -0.0564
  681PSPI   GL210544   7.184   7.645   6.646 -0.1934  0.3428 -0.1729
  681PSPI   C1A10545   6.778   7.987   6.807 -0.1485  0.0427  0.0148
  681PSPI   C2A10546   6.443   8.068   7.052 -0.1706 -0.1954 -0.1087
  681PSPI   C3A10547   6.444   8.161   7.468  0.0928 -0.0627 -0.0406
  681PSPI   C4A10548   6.215   7.964   7.618 -0.4142 -0.1246 -0.1299
  681PSPI   C1B10549   7.212   7.823   7.040  0.2661  0.0815 -0.3107
  681PSPI   C2B10550   7.443   7.946   7.369  0.2023  0.3393 -0.1883
  681PSPI   C3B10551   7.663   7.751   7.678  0.0382 -0.3875  0.3299
  681PSPI   C4B10552   8.069   7.549   7.530  0.0259 -0.0937 -0.0991
  682PSPI    C110553   8.731   3.083   5.736 -0.2250  0.1188 -0.1670
  682PSPI    C210554   8.548   2.904   5.429  0.0855 -0.1630 -0.1934
  682PSPI    C310555   8.830   3.179   5.361  0.1341 -0.2047 -0.1609
  682PSPI   PO410556   8.760   2.871   5.935  0.0045  0.0025  0.0354
  682PSPI   GL110557   8.847   2.730   6.324  0.0256  0.0649 -0.2149
  682PSPI   GL210558   8.999   2.903   6.569  0.0165  0.0384 -0.0210
  682PSPI   C1A10559   8.472   2.790   6.716 -0.0565  0.1508 -0.2188
  682PSPI   C2A10560   8.446   3.025   7.140  0.0231 -0.1049 -0.0297
  682PSPI   C3A10561   8.452   3.378   7.462  0.1033  0.1276  0.0964
  682PSPI   C4A10562   8.527   3.356   7.902 -0.0576  0.1766 -0.0990
  682PSPI   C1B10563   8.856   3.068   6.826 -0.1202  0.0090 -0.0578
  682PSPI   C2B10564   8.885   3.317   7.145  0.2381  0.1687 -0.1090
  682PSPI   C3B10565   8.934   3.220   7.588  0.1108  0.0075 -0.0618
  682PSPI   C4B10566   9.023   3.319   7.937 -0.1441 -0.1389  0.2428
  683PSPI    C110567  14.442   1.818   5.099 -0.0893  0.0502 -0.0611
  683PSPI    C210568  14.043   1.812   5.070 -0.0927  0.0850 -0.0211
  683PSPI    C310569  14.266   1.644   4.784 -0.1362  0.0530 -0.0366
  683PSPI   PO410570  14.405   1.814   5.378 -0.4582  0.1565  0.2367
  683PSPI   GL110571  14.210   1.606   5.716 -0.0024  0.1054  0.0783
  683PSPI   GL210572  13.982   1.362   5.852 -0.2483  0.1568 -0.0212
  683PSPI   C1A10573  14.281   1.682   6.187  0.2420  0.1505  0.2033
  683PSPI   C2A10574  14.167   1.687   6.623  0.0026 -0.0802  0.0072
  683PSPI   C3A10575  14.016   1.903   6.997 -0.0060  0.0698  0.1464
  683PSPI   C4A10576  13.908   1.744   7.427 -0.2435 -0.1018 -0.2033
  683PSPI   C1B10577  14.129   1.223   6.344  0.2632 -0.2701 -0.0623
  683PSPI   C2B10578  13.889   1.274   6.783  0.1321  0.0297  0.0696
  683PSPI   C3B10579  13.700   1.423   7.044 -0.1519  0.2539  0.0009
  683PSPI   C4B10580  13.341   1.469   7.404 -0.1660 -0.1643 -0.0482
  684PSPI    C110581  11.906   0.685   5.573  0.2496 -0.1089 -0.0959
  684PSPI    C210582  11.757   0.514   5.243  0.2960 -0.1617 -0.0895
  684PSPI    C310583  11.856   0.901   5.240 -0.2996  0.0017  0.0480
  684PSPI   PO410584  11.716   0.528   5.769  0.1547  0.0221  0.2138
  684PSPI   GL110585  11.785   0.542   6.240 -0.0734  0.1153 -0.1480
  684PSPI   GL210586  11.606   0.943   6.062  0.0052  0.2608 -0.4261
  684PSPI   C1A10587  11.857   0.437   6.694  0.1540 -0.1175  0.2171
  684PSPI   C2A10588  12.223   0.422   6.990  0.1333 -0.2519  0.1569
  684PSPI   C3A10589  12.600   0.256   7.270  0.0190 -0.1440 -0.0125
  684PSPI   C4A10590  12.918  -0.082   7.256 -0.1258  0.2385  0.2513
  684PSPI   C1B10591  11.361   0.858   6.401  0.1236  0.1771  0.1446
  684PSPI   C2B10592  11.548   0.824   6.821 -0.0422 -0.0290 -0.1228
  684PSPI   C3B10593  11.668   0.810   7.189  0.3299  0.0112 -0.1442
  684PSPI   C4B10594  11.784   0.721   7.665  0.0794 -0.0382 -0.1174
  685PSPI    C110595   9.395  13.319   5.090 -0.0717 -0.1152  0.0047
  685PSPI    C210596   9.471  13.471   4.728  0.0228  0.1717  0.1420
  685PSPI    C310597   9.123  13.549   4.909 -0.0867 -0.0955  0.0522
  685PSPI   PO410598   9.616  13.405   5.296 -0.0710  0.1257  0.2129
  685PSPI   GL110599   9.802  13.372   5.735  0.1968 -0.2150  0.3908
  685PSPI   GL210600  10.024  13.108   5.599 -0.2990  0.2104  0.0433
  685PSPI   C1A10601   9.742  13.515   6.197  0.1164 -0.3089 -0.0066
  685PSPI   C2A10602   9.730  13.481   6.690  0.2677  0.0682  0.1060
  685PSPI   C3A10603   9.640  13.638   7.044 -0.1085 -0.1306 -0.0950
  685PSPI   C4A10604   9.497  13.719   7.461 -0.0602  0.2470  0.0887
  685PSPI   C1B10605  10.111  13.166   6.107 -0.1061  0.1210  0.1801
  685PSPI   C2B10606  10.156  13.192   6.507  0.3151 -0.0372  0.2140
  685PSPI   C3B10607  10.076  13.039   6.895 -0.0158 -0.4934 -0.1050
  685PSPI   C4B10608  10.253  12.771   7.244  0.0495 -0.0247  0.0756
  686PSPI    C110609  12.413  11.346   5.043 -0.0593 -0.0361 -0.1207
  686PSPI    C210610  12.727  11.112   5.123  0.0201  0.1265  0.0485
  686PSPI    C310611  12.415  10.964   4.922  0.1277 -0.0858  0.0341
  686PSPI   PO410612  12.348  11.561   5.300 -0.0846  0.0957  0.3648
  686PSPI   GL110613  12.459  11.745   5.529 -0.5103 -0.0531 -0.0048
  686PSPI   GL210614  12.740  11.789   5.680 -0.2650  0.1512  0.2031
  686PSPI   C1A10615  12.297  11.931   5.880  0.0668 -0.3967 -0.0112
  686PSPI   C2A10616  12.351  12.067   6.342 -0.0028  0.1778  0.0832
  686PSPI   C3A10617  12.525  12.498   6.496  0.0882  0.2445  0.1147
  686PSPI   C4A10618  12.811  12.739   6.443  0.1285  0.4485 -0.2642
  686PSPI   C1B10619  13.052  11.964   5.914  0.1883  0.1313  0.2745
  686PSPI   C2B10620  13.309  11.956   6.240 -0.2624 -0.2883 -0.0253
  686PSPI   C3B10621  13.269  11.954   6.806  0.2012  0.1277 -0.0705
  686PSPI   C4B10622  12.978  11.833   7.082 -0.3573 -0.3535  0.0016
  687PSPI    C110623   5.681   6.599   5.684  0.1511  0.1351  0.1863
  687PSPI    C210624   5.883   6.655   5.344  0.0486 -0.0102  0.0999
  687PSPI    C310625   5.583   6.392   5.356  0.0286  0.0201  0.2942
  687PSPI   PO410626   5.738   6.546   5.900 -0.1229  0.1493  0.0169
  687PSPI   GL110627   5.943   6.644   6.336  0.0908  0.1090  0.1105
  687PSPI   GL210628   6.028   6.734   6.578  0.0013  0.0034  0.3149
  687PSPI   C1A10629   5.894   6.283   6.569  0.4359 -0.1210 -0.0051
  687PSPI   C2A10630   5.825   6.204   6.934 -0.1770  0.0878 -0.1528
  687PSPI   C3A10631   5.883   6.309   7.347 -0.1134  0.1436 -0.0879
  687PSPI   C4A10632   5.994   6.326   7.747  0.0352  0.0549 -0.1654
  687PSPI   C1B10633   5.989   6.735   7.030 -0.1953  0.1207 -0.1107
  687PSPI   C2B10634   6.138   6.732   7.426  0.1239  0.2776 -0.2375
  687PSPI   C3B10635   6.233   6.773   7.846  0.1589  0.1491 -0.2753
  687PSPI   C4B10636   6.102   6.753   8.221 -0.0068  0.0936  0.1918
  688PSPI    C110637  17.612   8.055   5.184 -0.0643  0.1509 -0.2437
  688PSPI    C210638  17.962   7.920   5.045  0.1134  0.0013  0.3218
  688PSPI    C310639  17.652   7.670   5.083  0.0860  0.0262  0.2651
  688PSPI   PO410640  17.639   8.209   5.440  0.0757  0.1185  0.0686
  688PSPI   GL110641  17.769   8.425   5.734 -0.0364 -0.0608  0.1906
  688PSPI   GL210642  17.909   8.120   5.879  0.1039 -0.0226  0.1435
  688PSPI   C1A10643  17.499   8.342   6.166 -0.2207  0.1998 -0.3175
  688PSPI   C2A10644  17.307   8.353   6.619  0.1209  0.1782  0.2810
  688PSPI   C3A10645  17.084   8.308   6.988 -0.0720 -0.0611 -0.2662
  688PSPI   C4A10646  16.933   8.242   7.449  0.0532  0.0221 -0.2089
  688PSPI   C1B10647  17.844   7.889   6.201  0.0628  0.0728  0.0308
  688PSPI   C2B10648  17.819   7.855   6.583 -0.1446  0.0893  0.1347
  688PSPI   C3B10649  17.642   8.006   6.993 -0.1311  0.0774  0.3950
  688PSPI   C4B10650  17.412   7.983   7.448  0.1554  0.0822 -0.1015
  689PSPI    C110651   4.790   2.145   5.487 -0.0046  0.0022  0.4945
  689PSPI    C210652   4.391   2.123   5.489 -0.0093 -0.0508  0.0577
  689PSPI    C310653   4.609   1.797   5.409  0.1022  0.1003 -0.2676
  689PSPI   PO410654   4.821   2.316   5.773  0.2601  0.0648  0.0099
  689PSPI   GL110655   4.640   2.452   6.130  0.0961 -0.2216  0.2633
  689PSPI   GL210656   4.515   2.547   6.409 -0.1545 -0.0308 -0.3019
  689PSPI   C1A10657   4.509   2.058   6.409 -0.1950 -0.2236 -0.3955
  689PSPI   C2A10658   4.356   1.661   6.771  0.0252 -0.1664 -0.1140
  689PSPI   C3A10659   4.143   1.444   7.106 -0.2289 -0.1135 -0.0072
  689PSPI   C4A10660   4.215   1.132   7.371 -0.0086 -0.0313  0.1035
  689PSPI   C1B10661   4.254   2.667   6.723 -0.0412  0.1107  0.1637
  689PSPI   C2B10662   4.260   2.694   7.116 -0.3683  0.1343 -0.1000
  689PSPI   C3B10663   4.451   2.945   7.376  0.2069  0.5788  0.0741
  689PSPI   C4B10664   4.538   3.010   7.763  0.0791  0.0554  0.1718
  690PSPI    C110665   6.104   5.261   5.759 -0.3461  0.0129  0.1623
  690PSPI    C210666   5.910   5.026   5.500  0.0949 -0.3399  0.1403
  690PSPI    C310667   6.216   5.252   5.375 -0.0386 -0.0938  0.2514
  690PSPI   PO410668   6.076   5.162   6.001 -0.1727 -0.0166 -0.1423
  690PSPI   GL110669   5.903   5.477   6.336  0.3970  0.1396  0.1973
  690PSPI   GL210670   5.662   5.662   6.331 -0.1034 -0.1366  0.0984
  690PSPI   C1A10671   6.053   5.651   6.719  0.0690  0.0158  0.0507
  690PSPI   C2A10672   6.030   5.783   7.126  0.3978  0.3052 -0.3183
  690PSPI   C3A10673   5.926   5.878   7.565 -0.1536  0.3439  0.0979
  690PSPI   C4A10674   5.612   6.013   7.938 -0.4752 -0.1297  0.1363
  690PSPI   C1B10675   5.576   5.757   6.747  0.0516 -0.0516 -0.2938
  690PSPI   C2B10676   5.577   5.547   7.218 -0.0391  0.0608  0.1156
  690PSPI   C3B10677   5.395   5.482   7.642  0.0071 -0.1449 -0.2445
  690PSPI   C4B10678   5.433   5.483   8.061  0.2328  0.1319  0.3759
  691PSPI    C110679   8.274   8.502   5.987 -0.5003 -0.3001  0.2842
  691PSPI    C210680   8.517   8.259   5.782 -0.1569  0.0972  0.2046
  691PSPI    C310681   8.187   8.405   5.609 -0.0930  0.0946  0.0799
  691PSPI   PO410682   8.299   8.439   6.211  0.0697 -0.0408  0.0064
  691PSPI   GL110683   8.481   8.368   6.637 -0.0481 -0.1825  0.0531
  691PSPI   GL210684   8.189   8.621   6.700 -0.2526  0.1199 -0.0975
  691PSPI   C1A10685   8.787   8.348   6.915 -0.2406 -0.0096  0.1520
  691PSPI   C2A10686   9.036   8.140   7.078 -0.0248  0.0397  0.2019
  691PSPI   C3A10687   9.216   8.004   7.376  0.1526  0.3869  0.0176
  691PSPI   C4A10688   9.594   8.046   7.516 -0.1598  0.2884 -0.0212
  691PSPI   C1B10689   8.426   8.658   7.094  0.0618 -0.1763 -0.0212
  691PSPI   C2B10690   8.839   8.578   7.331 -0.2558 -0.1363 -0.0411
  691PSPI   C3B10691   9.098   8.413   7.626 -0.1643  0.1317 -0.1393
  691PSPI   C4B10692   9.489   8.457   7.737 -0.0180  0.1101  0.2931
  692PSPI    C110693  12.290   1.248   5.464  0.2385  0.2554  0.0017
  692PSPI    C210694  12.049   1.219   5.782  0.0955 -0.1421 -0.1367
  692PSPI    C310695  11.905   1.352   5.434  0.1237 -0.1955 -0.1690
  692PSPI   PO410696  12.395   0.987   5.562  0.2319 -0.0306 -0.0100
  692PSPI   GL110697  12.327   0.731   5.884  0.2005  0.0083 -0.0928
  692PSPI   GL210698  12.185   0.841   6.063 -0.0080  0.2262  0.1238
  692PSPI   C1A10699  12.716   0.688   5.999  0.0500  0.0287  0.2126
  692PSPI   C2A10700  12.886   0.343   6.217  0.2565 -0.0569  0.0091
  692PSPI   C3A10701  13.096  -0.080   6.179  0.1235 -0.0150 -0.4877
  692PSPI   C4A10702  12.997  -0.480   6.466 -0.1354  0.0590  0.2711
  692PSPI   C1B10703  12.497   0.726   6.455 -0.0440 -0.0081 -0.1489
  692PSPI   C2B10704  12.631   0.518   6.721  0.0241 -0.0288  0.0775
  692PSPI   C3B10705  12.921   0.246   6.828  0.0359 -0.1031  0.1903
  692PSPI   C4B10706  12.949  -0.096   6.708 -0.3762  0.4495 -0.0079
  693POPI    C110707   1.909  10.577   5.372 -0.0844 -0.0629 -0.0568
  693POPI    C210708   1.559  10.570   5.565 -0.0406  0.4585  0.0571
  693POPI    C310709   1.587  10.419   5.195 -0.2926  0.0855  0.1841
  693POPI   PO410710   2.096  10.473   5.582  0.0812  0.1876 -0.1826
  693POPI   GL110711   2.184  10.460   6.010 -0.1173 -0.0050  0.0473
  693POPI   GL210712   1.921  10.448   6.105  0.1593 -0.0974 -0.0228
  693POPI   C1A10713   2.095  10.908   6.048 -0.2576  0.4265  0.2083
  693POPI   D2A10714   1.950  11.273   5.991 -0.0877  0.1276  0.0714
  693POPI   C3A10715   1.677  11.498   6.338  0.0033  0.2981 -0.3586
  693POPI   C4A10716   1.615  11.626   6.780  0.1984 -0.0078  0.3032
  693POPI   C1B10717   1.657  10.466   6.554  0.1637 -0.0969  0.0793
  693POPI   C2B10718   1.456  10.468   6.944 -0.2606 -0.1291  0.2120
  693POPI   C3B10719   1.290  10.561   7.364  0.0966  0.0623  0.1608
  693POPI   C4B10720   1.373  10.500   7.828  0.3069 -0.0676 -0.2422
  694POPI    C110721  10.435  18.466   5.905  0.0001  0.2661 -0.1902
  694POPI    C210722  10.239  18.223   5.654  0.2696 -0.0617 -0.0921
  694POPI    C310723  10.141  18.611   5.676  0.0212 -0.0989 -0.4575
  694POPI   PO410724  10.399  18.330   6.152 -0.2104  0.1231 -0.1093
  694POPI   GL110725  10.520  17.952   6.478  0.1164  0.0245  0.1958
  694POPI   GL210726  10.634  17.649   6.377  0.1249  0.1287 -0.2290
  694POPI   C1A10727  10.537  18.161   6.885 -0.0042 -0.0891  0.1169
  694POPI   D2A10728  10.560  18.260   7.330  0.0230  0.0439 -0.0439
  694POPI   C3A10729  10.626  17.866   7.412  0.0048 -0.1200  0.1022
  694POPI   C4A10730  10.521  17.550   7.643 -0.2038  0.0217 -0.0800
  694POPI   C1B10731  10.638  17.406   6.575  0.0628 -0.1032 -0.2891
  694POPI   C2B10732  10.813  17.423   6.985 -0.0803 -0.2506  0.1270
  694POPI   C3B10733  10.966  17.295   7.388  0.0275  0.2174  0.0248
  694POPI   C4B10734  10.869  17.249   7.814 -0.0012 -0.1009 -0.0204
  695POPI    C110735   0.950   7.296   5.360  0.1413 -0.0727  0.1845
  695POPI    C210736   1.330   7.182   5.311  0.1614  0.1272 -0.1556
  695POPI    C310737   1.221   7.558   5.228 -0.1168  0.0636 -0.0887
  695POPI   PO410738   0.832   7.224   5.626  0.0717 -0.0800 -0.0827
  695POPI   GL110739   0.761   7.334   5.936  0.3778  0.0522 -0.2241
  695POPI   GL210740   0.846   7.098   6.089 -0.2076 -0.1854  0.0617
  695POPI   C1A10741   0.447   7.336   6.199 -0.0302 -0.0471 -0.2186
  695POPI   D2A10742   0.279   7.159   6.574  0.0483 -0.1932 -0.2168
  695POPI   C3A10743   0.094   7.306   7.007  0.3514 -0.1257 -0.3825
  695POPI   C4A10744  -0.376   7.383   6.978  0.1729  0.2148 -0.2604
  695POPI   C1B10745   0.564   6.845   6.402 -0.2717 -0.0126 -0.1011
  695POPI   C2B10746   0.413   6.727   6.799  0.1264 -0.0856  0.0576
  695POPI   C3B10747   0.172   6.852   7.212  0.1341 -0.0648 -0.2010
  695POPI   C4B10748  -0.161   7.091   7.396  0.0973  0.0119  0.2642
  696POPI    C110749   8.929   7.970   5.557  0.0224  0.1592  0.1027
  696POPI    C210750   9.184   7.676   5.464  0.3327  0.5143 -0.2004
  696POPI    C310751   8.858   7.737   5.240  0.1986  0.3224 -0.0598
  696POPI   PO410752   9.038   7.958   5.845  0.1271 -0.1384  0.1236
  696POPI   GL110753   9.120   7.847   6.367 -0.0120  0.1287  0.2642
  696POPI   GL210754   8.942   7.825   6.628 -0.2530  0.4899  0.4261
  696POPI   C1A10755   9.172   8.277   6.591 -0.0762  0.1351 -0.1133
  696POPI   D2A10756   9.547   8.533   6.625 -0.0554  0.1564  0.2612
  696POPI   C3A10757   9.808   8.682   6.929  0.0015 -0.0844 -0.0634
  696POPI   C4A10758  10.127   8.816   7.117  0.0588 -0.0452  0.1037
  696POPI   C1B10759   9.200   7.668   6.953  0.1915  0.1002 -0.1657
  696POPI   C2B10760   9.396   7.466   7.231  0.0416  0.1073  0.2493
  696POPI   C3B10761   9.530   7.541   7.661 -0.3573  0.0808 -0.0805
  696POPI   C4B10762   9.671   7.379   8.130  0.2306 -0.1717 -0.2787
  697POPI    C110763  18.322   7.095   5.458  0.0514  0.1677  0.1745
  697POPI    C210764  18.581   6.890   5.232 -0.1232 -0.0410  0.1595
  697POPI    C310765  18.317   7.135   5.060 -0.0667  0.0210  0.1602
  697POPI   PO410766  18.243   6.925   5.759 -0.3826 -0.1148  0.1648
  697POPI   GL110767  18.052   6.658   5.993  0.2797 -0.0370 -0.0350
  697POPI   GL210768  17.840   6.401   6.044 -0.2389  0.0267 -0.0001
  697POPI   C1A10769  18.020   6.924   6.412 -0.0862  0.1883 -0.2292
  697POPI   D2A10770  17.990   7.173   6.710 -0.1566  0.0303 -0.1648
  697POPI   C3A10771  18.102   7.069   7.066  0.0811 -0.2695  0.1652
  697POPI   C4A10772  18.185   6.994   7.427 -0.1932  0.2253  0.2675
  697POPI   C1B10773  17.835   6.444   6.495  0.1002 -0.0908  0.2325
  697POPI   C2B10774  18.068   6.560   6.819 -0.0441 -0.1289  0.0224
  697POPI   C3B10775  17.918   6.528   7.250  0.1135  0.0427 -0.1502
  697POPI   C4B10776  17.673   6.581   7.626 -0.1433  0.0510  0.1047
  698POPI    C110777   9.605   6.972   5.166  0.2696 -0.1561 -0.2328
  698POPI    C210778   9.330   6.683   5.142  0.1301 -0.0675  0.2186
  698POPI    C310779   9.297   7.009   4.913 -0.1512 -0.0517  0.2770
  698POPI   PO410780   9.656   6.948   5.491  0.0330  0.0111 -0.1524
  698POPI   GL110781   9.554   7.140   5.930 -0.1344  0.3558  0.0677
  698POPI   GL210782   9.468   7.148   6.288 -0.0649  0.1864  0.1351
  698POPI   C1A10783   9.944   7.356   6.169 -0.1585 -0.0245 -0.2128
  698POPI   D2A10784  10.123   7.712   6.340  0.0617 -0.3211  0.2480
  698POPI   C3A10785  10.151   7.758   6.761  0.3726 -0.3271 -0.0976
  698POPI   C4A10786  10.400   7.851   7.250  0.3034  0.1077  0.1912
  698POPI   C1B10787   9.631   7.486   6.511 -0.0678  0.0241  0.2509
  698POPI   C2B10788   9.710   7.585   6.906 -0.0263  0.1374  0.2543
  698POPI   C3B10789   9.881   7.693   7.222 -0.1665  0.1370  0.4476
  698POPI   C4B10790  10.093   7.792   7.647  0.1059  0.2921  0.2597
  699POPI    C110791  14.899   7.888   5.468  0.0867  0.0152  0.1562
  699POPI    C210792  15.202   7.932   5.725  0.1439 -0.2321  0.1336
  699POPI    C310793  15.138   7.578   5.550  0.1130 -0.0640 -0.2026
  699POPI   PO410794  14.587   8.035   5.628 -0.0027 -0.1587 -0.0192
  699POPI   GL110795  14.417   8.091   5.969 -0.0859 -0.1389 -0.0049
  699POPI   GL210796  14.302   7.819   6.102 -0.1122  0.0735  0.0462
  699POPI   C1A10797  14.161   8.305   6.320 -0.0202  0.0406  0.1082
  699POPI   D2A10798  14.252   8.470   6.762 -0.2113  0.0424  0.0544
  699POPI   C3A10799  14.341   8.580   7.080 -0.1749  0.1092  0.2459
  699POPI   C4A10800  14.378   8.805   7.396 -0.1005  0.0681  0.2388
  699POPI   C1B10801  14.134   7.838   6.466  0.1474  0.2450  0.1235
  699POPI   C2B10802  14.229   7.949   6.819 -0.0835 -0.1127  0.4121
  699POPI   C3B10803  14.187   7.939   7.320  0.2386 -0.1334 -0.2050
  699POPI   C4B10804  13.961   8.144   7.598 -0.2970 -0.3211  0.1363
  700POPI    C110805  11.364   9.811   5.444 -0.0793  0.0149  0.3239
  700POPI    C210806  11.715   9.714   5.278 -0.1832  0.1522  0.0168
  700POPI    C310807  11.646  10.090   5.396 -0.2695  0.1533 -0.0351
  700POPI   PO410808  11.366   9.637   5.684  0.0782  0.1015 -0.1451
  700POPI   GL110809  11.244   9.798   6.131 -0.2083 -0.2345 -0.1079
  700POPI   GL210810  11.011   9.575   6.100 -0.2303  0.3377  0.1568
  700POPI   C1A10811  11.331  10.121   6.410 -0.0503  0.0250  0.2858
  700POPI   D2A10812  11.510  10.507   6.419  0.1257  0.2596 -0.0366
  700POPI   C3A10813  11.904  10.692   6.184 -0.1244  0.1360 -0.2314
  700POPI   C4A10814  12.251  11.001   6.304  0.2429  0.1104  0.4983
  700POPI   C1B10815  11.112   9.589   6.558  0.1682  0.0762 -0.4507
  700POPI   C2B10816  11.178   9.927   6.805  0.0993  0.1355  0.0564
  700POPI   C3B10817  11.381  10.296   6.856 -0.2728 -0.0004  0.2978
  700POPI   C4B10818  11.696  10.573   6.882 -0.1064  0.0713 -0.0856
  701POPI    C110819  16.220  17.173   5.457 -0.3746 -0.0136  0.0667
  701POPI    C210820  16.183  17.011   5.093 -0.1148 -0.0688  0.0631
  701POPI    C310821  16.127  16.786   5.419  0.0991 -0.1329  0.0573
  701POPI   PO410822  16.028  17.503   5.560 -0.0478 -0.0530 -0.2107
  701POPI   GL110823  15.875  17.556   5.972 -0.0514 -0.5489  0.3062
  701POPI   GL210824  15.714  17.293   6.248 -0.1531  0.1385 -0.2242
  701POPI   C1A10825  16.296  17.399   6.265 -0.1030 -0.0305  0.1205
  701POPI   D2A10826  16.582  17.242   6.435  0.3960 -0.0946 -0.3451
  701POPI   C3A10827  16.423  17.076   6.878 -0.0925 -0.1648 -0.1764
  701POPI   C4A10828  16.075  17.134   7.117  0.0363 -0.0000 -0.0499
  701POPI   C1B10829  15.279  17.354   6.403 -0.0474  0.0052  0.0038
  701POPI   C2B10830  15.142  17.333   6.824  0.0687  0.0370  0.0650
  701POPI   C3B10831  15.233  16.865   6.962  0.0623 -0.0375  0.0989
  701POPI   C4B10832  15.276  16.541   7.366  0.1752  0.4028  0.0142
  702POPI    C110833   0.260  18.363   5.088  0.0626  0.0285 -0.0422
  702POPI    C210834  -0.012  18.139   4.899  0.0829  0.0397 -0.0848
  702POPI    C310835   0.377  18.076   4.835  0.0931 -0.0496  0.0594
  702POPI   PO410836   0.197  18.368   5.347 -0.0970  0.0319 -0.2132
  702POPI   GL110837   0.324  18.117   5.712  0.3345 -0.1491  0.1390
  702POPI   GL210838   0.205  18.303   5.902 -0.1392  0.1534 -0.3415
  702POPI   C1A10839   0.235  17.646   5.954  0.2417  0.1623  0.3684
  702POPI   D2A10840   0.022  17.480   6.302  0.1856 -0.4472  0.0573
  702POPI   C3A10841   0.183  17.602   6.677  0.0742 -0.5231 -0.0738
  702POPI   C4A10842   0.372  17.773   7.024  0.0475  0.1429 -0.0833
  702POPI   C1B10843   0.286  18.028   6.223 -0.3574  0.0790  0.0195
  702POPI   C2B10844   0.234  18.103   6.677  0.0776 -0.0740  0.1754
  702POPI   C3B10845   0.052  18.272   7.130  0.2405 -0.2198  0.0631
  702POPI   C4B10846  -0.157  18.647   7.341 -0.3905  0.1075  0.0830
  703POPI    C110847  14.150   9.346   5.202 -0.0282  0.2953  0.2707
  703POPI    C210848  13.756   9.279   5.179  0.0500 -0.1218  0.0466
  703POPI    C310849  13.930   9.539   4.929 -0.0973  0.1561  0.2274
  703POPI   PO410850  14.172   9.281   5.559 -0.0902  0.0506  0.2860
  703POPI   GL110851  14.191   9.598   5.858  0.1126  0.0047  0.0525
  703POPI   GL210852  14.569   9.512   5.918 -0.1015 -0.1190  0.2221
  703POPI   C1A10853  14.041   9.887   6.219 -0.2722  0.0429 -0.0601
  703POPI   D2A10854  13.825   9.881   6.589 -0.2644  0.0024  0.2499
  703POPI   C3A10855  13.750  10.350   6.757 -0.0653 -0.1830 -0.3982
  703POPI   C4A10856  13.889  10.554   7.071 -0.0462 -0.3182  0.1393
  703POPI   C1B10857  14.417   9.369   6.310 -0.1814 -0.0779 -0.0605
  703POPI   C2B10858  14.231   9.527   6.717  0.2379  0.3044  0.0526
  703POPI   C3B10859  14.036   9.675   7.198  0.0579  0.5430 -0.0115
  703POPI   C4B10860  14.230   9.842   7.597  0.1311  0.5370 -0.0345
  704POPI    C110861   1.168   4.349   5.433  0.0996  0.0158 -0.1271
  704POPI    C210862   1.376   4.503   5.128  0.0186  0.0692 -0.1558
  704POPI    C310863   1.356   4.107   5.176 -0.2681  0.0466 -0.4341
  704POPI   PO410864   0.910   4.502   5.479 -0.0355 -0.0619  0.1636
  704POPI   GL110865   0.760   4.643   5.794  0.0600 -0.0829 -0.3817
  704POPI   GL210866   1.113   4.679   5.967 -0.0828  0.0261  0.0842
  704POPI   C1A10867   0.655   4.387   6.257 -0.0008 -0.0777  0.1205
  704POPI   D2A10868   0.262   4.397   6.423 -0.1447  0.1470 -0.0079
  704POPI   C3A10869   0.033   3.956   6.387  0.1075  0.0615  0.3036
  704POPI   C4A10870   0.065   3.566   6.699  0.0152  0.5218  0.0336
  704POPI   C1B10871   1.209   4.256   6.242 -0.1497  0.0671  0.3100
  704POPI   C2B10872   1.352   4.090   6.630 -0.2787  0.2299  0.0667
  704POPI   C3B10873   1.441   4.270   6.973  0.1915  0.0091 -0.1825
  704POPI   C4B10874   1.501   4.682   7.059  0.4451 -0.1977  0.0791
  705POPI    C110875   1.215   8.532   5.657 -0.0942 -0.2235  0.0335
  705POPI    C210876   1.242   8.522   5.258  0.0937  0.0624  0.0363
  705POPI    C310877   0.975   8.761   5.434  0.1939  0.1388  0.0858
  705POPI   PO410878   1.465   8.458   5.843  0.1776  0.3087 -0.0156
  705POPI   GL110879   1.787   8.268   6.138  0.2684  0.0866 -0.2346
  705POPI   GL210880   2.044   8.069   6.148  0.0155 -0.1682  0.2729
  705POPI   C1A10881   1.504   8.505   6.509 -0.2406  0.0938 -0.1844
  705POPI   D2A10882   1.255   8.641   6.798  0.0727  0.0760 -0.1525
  705POPI   C3A10883   1.007   8.325   7.036  0.1584 -0.1349  0.1801
  705POPI   C4A10884   0.720   8.041   7.293 -0.0377  0.4258  0.2384
  705POPI   C1B10885   2.384   7.987   6.423 -0.4163  0.1480  0.0990
  705POPI   C2B10886   2.510   8.008   6.757 -0.4202 -0.1587 -0.2084
  705POPI   C3B10887   2.433   8.053   7.293 -0.2861 -0.3150 -0.1420
  705POPI   C4B10888   2.388   8.153   7.746 -0.2503 -0.2121 -0.2971
  706POPI    C110889  17.856  13.409   5.330  0.1051  0.0090  0.2580
  706POPI    C210890  18.217  13.350   5.170  0.0815  0.0024  0.2072
  706POPI    C310891  17.889  13.245   4.967  0.0466  0.1271  0.1985
  706POPI   PO410892  17.983  13.324   5.640 -0.3380 -0.0774  0.5818
  706POPI   GL110893  17.918  12.945   5.863 -0.3133  0.0862  0.0581
  706POPI   GL210894  17.922  12.589   6.000 -0.2005 -0.1143 -0.1743
  706POPI   C1A10895  18.264  12.995   6.190 -0.1130  0.0136  0.2166
  706POPI   D2A10896  18.483  13.321   6.312 -0.0311 -0.2779 -0.1500
  706POPI   C3A10897  18.398  13.581   6.549  0.0458 -0.1986 -0.3445
  706POPI   C4A10898  17.975  13.662   6.644 -0.2009 -0.0991 -0.1715
  706POPI   C1B10899  17.717  12.689   6.368 -0.3687 -0.6189  0.3144
  706POPI   C2B10900  17.668  12.524   6.797  0.0227 -0.2459 -0.0018
  706POPI   C3B10901  17.504  12.743   7.263  0.1661 -0.0438 -0.0054
  706POPI   C4B10902  17.619  12.922   7.625 -0.1214 -0.0773 -0.0968
  707POPI    C110903   0.791  11.900   5.215 -0.3363  0.1013  0.0696
  707POPI    C210904   1.060  11.980   5.501 -0.3954  0.0895  0.1286
  707POPI    C310905   1.174  11.964   5.118 -0.2487 -0.2335  0.1827
  707POPI   PO410906   0.671  11.768   5.278 -0.2665  0.1370 -0.3471
  707POPI   GL110907   0.679  11.789   5.772 -0.1482  0.3940 -0.0900
  707POPI   GL210908   0.778  11.445   5.711  0.3229 -0.0448 -0.3052
  707POPI   C1A10909   0.934  11.759   6.084  0.1048  0.0793  0.1310
  707POPI   D2A10910   0.848  11.873   6.526  0.2741 -0.1705 -0.1148
  707POPI   C3A10911   0.603  11.935   6.830  0.1409 -0.0525  0.0975
  707POPI   C4A10912   0.644  11.682   7.163 -0.2038  0.3777 -0.1700
  707POPI   C1B10913   0.662  11.277   6.128 -0.0954  0.0894  0.0991
  707POPI   C2B10914   0.633  11.430   6.561 -0.3009  0.0376 -0.1279
  707POPI   C3B10915   0.328  11.473   6.763  0.0492  0.0988 -0.3113
  707POPI   C4B10916   0.140  11.467   7.073 -0.2251  0.0804  0.4072
  708POPI    C110917   7.621  13.294   5.450 -0.0642 -0.0764 -0.2727
  708POPI    C210918   7.407  12.972   5.554  0.0176 -0.1001 -0.1754
  708POPI    C310919   7.805  12.969   5.595  0.0188  0.0127 -0.1775
  708POPI   PO410920   7.449  13.505   5.635 -0.4067  0.3501  0.0458
  708POPI   GL110921   7.262  13.218   6.009  0.1936 -0.0260  0.2527
  708POPI   GL210922   6.972  13.072   6.295 -0.1346 -0.0125 -0.0255
  708POPI   C1A10923   7.605  13.094   6.116  0.2631  0.1673 -0.2070
  708POPI   D2A10924   7.774  12.757   6.043  0.0623  0.4298  0.2637
  708POPI   C3A10925   7.960  12.639   6.359  0.0062  0.1781  0.1665
  708POPI   C4A10926   8.075  12.436   6.675 -0.1936  0.2204  0.0202
  708POPI   C1B10927   7.115  13.256   6.621 -0.0743  0.0100 -0.2664
  708POPI   C2B10928   7.477  13.216   6.961  0.0473  0.0478 -0.3160
  708POPI   C3B10929   7.745  13.106   7.332 -0.1674  0.2438 -0.0683
  708POPI   C4B10930   8.035  13.438   7.531  0.1083  0.1690 -0.0427
  709POPI    C110931  12.105   6.125   5.102 -0.1826 -0.0450  0.0995
  709POPI    C210932  11.886   6.327   4.835  0.0078  0.0487  0.0125
  709POPI    C310933  12.285   6.344   4.821  0.0241 -0.2107  0.1005
  709POPI   PO410934  12.045   6.195   5.434 -0.0023 -0.1619  0.1517
  709POPI   GL110935  12.136   6.245   5.895 -0.2823 -0.0454 -0.2209
  709POPI   GL210936  11.841   6.105   6.133  0.1963  0.0767 -0.0778
  709POPI   C1A10937  12.331   6.387   6.314  0.3392 -0.0004  0.0438
  709POPI   D2A10938  12.076   6.374   6.625  0.0373  0.0139 -0.2472
  709POPI   C3A10939  11.817   6.821   6.706 -0.1609 -0.3535 -0.3023
  709POPI   C4A10940  11.667   7.266   6.689  0.0199  0.0880 -0.1824
  709POPI   C1B10941  11.876   5.910   6.489  0.1618  0.1494  0.1618
  709POPI   C2B10942  12.047   5.827   6.787  0.1305  0.4093 -0.2436
  709POPI   C3B10943  12.174   5.750   7.220  0.3837  0.1326 -0.2902
  709POPI   C4B10944  12.219   6.061   7.578  0.3576 -0.1900 -0.0331
  710POPI    C110945   8.438   0.240   6.081  0.0748 -0.4125 -0.1207
  710POPI    C210946   8.283   0.131   6.433 -0.3593  0.0424 -0.1588
  710POPI    C310947   8.083   0.056   6.095 -0.1750  0.0397 -0.2686
  710POPI   PO410948   8.565   0.430   6.163 -0.0181 -0.0272 -0.1842
  710POPI   GL110949   8.718   0.514   6.529 -0.1571  0.0310  0.1214
  710POPI   GL210950   9.005   0.513   6.720 -0.0430 -0.0521  0.0993
  710POPI   C1A10951   8.672   0.628   7.027 -0.0270  0.0635 -0.0345
  710POPI   D2A10952   8.957   0.736   7.183 -0.0167  0.2108 -0.2165
  710POPI   C3A10953   8.969   0.837   7.677  0.2078 -0.2799  0.0779
  710POPI   C4A10954   8.596   0.947   7.996  0.2240  0.2779  0.0634
  710POPI   C1B10955   9.032   0.102   6.920  0.1116 -0.1100 -0.0674
  710POPI   C2B10956   9.201  -0.203   7.215 -0.0483  0.0225 -0.0902
  710POPI   C3B10957   9.207  -0.119   7.637 -0.2790  0.3890  0.0419
  710POPI   C4B10958   9.513   0.034   8.094 -0.1554  0.3160  0.2873
  711POPI    C110959   7.545   0.651   6.245 -0.2119 -0.0330  0.0233
  711POPI    C210960   7.390   0.646   5.876 -0.3140 -0.1507  0.0669
  711POPI    C310961   7.196   0.832   6.172 -0.1330  0.1191  0.0198
  711POPI   PO410962   7.649   0.394   6.241 -0.1425  0.1981 -0.0499
  711POPI   GL110963   7.814   0.399   6.728 -0.0534  0.1196  0.0211
  711POPI   GL210964   7.481   0.242   6.891  0.1291  0.0177  0.0949
  711POPI   C1A10965   8.046   0.093   6.916  0.5541  0.1871  0.0967
  711POPI   D2A10966   8.233   0.019   7.267  0.1202  0.2640  0.1056
  711POPI   C3A10967   8.315   0.240   7.601 -0.2721 -0.0927 -0.4997
  711POPI   C4A10968   8.512   0.693   7.557  0.0593 -0.3009 -0.4072
  711POPI   C1B10969   7.460  -0.169   7.062 -0.1736  0.0875 -0.0555
  711POPI   C2B10970   7.475  -0.623   7.257  0.1760 -0.1974  0.0774
  711POPI   C3B10971   7.603  -0.970   7.588 -0.4542 -0.0516 -0.1956
  711POPI   C4B10972   7.672  -1.253   7.881 -0.3017 -0.1889  0.2054
  712POPI    C110973   9.593   3.171   5.797  0.1612 -0.3896 -0.0185
  712POPI    C210974   9.240   2.998   5.721  0.0214 -0.1549  0.0858
  712POPI    C310975   9.569   2.875   5.529 -0.0978 -0.4450  0.0631
  712POPI   PO410976   9.599   3.164   6.044 -0.1338 -0.0965  0.1176
  712POPI   GL110977   9.573   3.223   6.492 -0.1674  0.3362 -0.1660
  712POPI   GL210978  10.042   3.215   6.513  0.0925  0.0582 -0.3797
  712POPI   C1A10979   9.397   3.193   6.857 -0.2015 -0.0272  0.2519
  712POPI   D2A10980   9.294   3.057   7.278 -0.0537  0.0004  0.3145
  712POPI   C3A10981   8.899   2.806   7.296  0.2128  0.1085  0.0162
  712POPI   C4A10982   8.629   2.783   7.625 -0.1941  0.3768 -0.0213
  712POPI   C1B10983  10.047   3.538   6.769  0.4950  0.0014  0.1229
  712POPI   C2B10984  10.223   3.507   7.135 -0.0593 -0.1747 -0.0901
  712POPI   C3B10985  10.227   3.269   7.548 -0.2349 -0.1932 -0.1771
  712POPI   C4B10986  10.227   2.860   7.839  0.0408 -0.0623 -0.0887
  713POPI    C110987  13.416  16.749   5.632 -0.0623  0.0647 -0.0950
  713POPI    C210988  13.282  16.390   5.518  0.1221 -0.0361 -0.0004
  713POPI    C310989  13.579  16.566   5.316  0.0225  0.0710 -0.0553
  713POPI   PO410990  13.231  16.915   5.760  0.1415  0.0183 -0.0398
  713POPI   GL110991  13.069  17.212   6.146 -0.0143 -0.2259 -0.0570
  713POPI   GL210992  12.889  16.841   6.097  0.0437 -0.2004 -0.3749
  713POPI   C1A10993  13.172  17.038   6.521 -0.0485  0.3721  0.4339
  713POPI   D2A10994  13.125  16.937   6.996  0.3478  0.0892 -0.2810
  713POPI   C3A10995  12.781  17.172   7.272  0.2084 -0.1146  0.1212
  713POPI   C4A10996  12.563  17.561   7.412  0.1046  0.3294  0.3291
  713POPI   C1B10997  12.589  16.980   6.398  0.0839 -0.2033 -0.1636
  713POPI   C2B10998  12.597  17.235   6.758  0.1276  0.0752  0.1296
  713POPI   C3B10999  12.777  17.514   6.946 -0.2384  0.0427  0.0900
  713POPI   C4B11000  12.886  17.777   7.159 -0.3393 -0.2471  0.2775
  714POPI    C111001  13.722  12.202   4.728 -0.0911  0.2416 -0.0052
  714POPI    C211002  13.913  12.504   4.908  0.1272  0.0123  0.1541
  714POPI    C311003  14.115  12.251   4.672 -0.0557 -0.0065  0.0158
  714POPI   PO411004  13.616  12.064   4.941  0.2273  0.0164 -0.0197
  714POPI   GL111005  13.536  12.102   5.435 -0.0410 -0.4719  0.1105
  714POPI   GL211006  13.225  12.078   5.370 -0.2577  0.1138 -0.3165
  714POPI   C1A11007  13.620  11.829   5.794  0.0525 -0.1928  0.2561
  714POPI   D2A11008  13.684  11.548   6.129 -0.2311  0.0354  0.0238
  714POPI   C3A11009  13.564  11.591   6.571 -0.2559 -0.1914 -0.1156
  714POPI   C4A11010  13.378  11.493   6.963 -0.2918  0.0791  0.2964
  714POPI   C1B11011  13.248  11.618   5.532 -0.2776 -0.1458 -0.2141
  714POPI   C2B11012  13.444  11.310   5.744 -0.2611 -0.1892  0.2255
  714POPI   C3B11013  13.714  11.055   6.044 -0.0155  0.0600 -0.1265
  714POPI   C4B11014  14.188  10.914   6.211  0.1137 -0.0144  0.1674
  715POPI    C111015   5.817   3.013   5.542  0.1482  0.1729 -0.0301
  715POPI    C211016   5.718   2.814   5.210  0.0059 -0.0713  0.1557
  715POPI    C311017   5.832   3.196   5.186  0.1680 -0.1368 -0.1923
  715POPI   PO411018   5.588   2.978   5.819  0.0622  0.0275 -0.1685
  715POPI   GL111019   5.690   2.966   6.219  0.0675 -0.0171 -0.0488
  715POPI   GL211020   5.912   3.025   6.425  0.0469  0.0257  0.0974
  715POPI   C1A11021   5.353   2.887   6.448 -0.3340 -0.0023 -0.2272
  715POPI   D2A11022   5.109   2.595   6.603 -0.1045  0.2954 -0.2545
  715POPI   C3A11023   5.036   2.504   7.155 -0.1459 -0.1238  0.4901
  715POPI   C4A11024   5.278   2.380   7.520 -0.0078  0.0597 -0.1847
  715POPI   C1B11025   5.672   2.599   6.628  0.1502  0.0371  0.2026
  715POPI   C2B11026   5.536   2.475   6.991  0.0620 -0.0134 -0.0569
  715POPI   C3B11027   5.604   2.697   7.310 -0.0900  0.0880 -0.2226
  715POPI   C4B11028   5.806   3.091   7.432 -0.1468  0.0205  0.2205
  716POPI    C111029   9.039   4.737   5.701 -0.1650 -0.0681 -0.0463
  716POPI    C211030   8.721   4.979   5.691 -0.0730  0.0603  0.1020
  716POPI    C311031   8.818   4.764   5.368 -0.2240  0.1316  0.0078
  716POPI   PO411032   9.090   4.486   5.879 -0.3236 -0.2680  0.1116
  716POPI   GL111033   9.346   4.214   6.202  0.0898  0.0699  0.0769
  716POPI   GL211034   9.675   4.177   6.170 -0.1227 -0.1819  0.1443
  716POPI   C1A11035   9.303   4.077   6.645  0.1008  0.0534  0.2859
  716POPI   D2A11036   9.504   4.156   7.082 -0.4935  0.0101 -0.0204
  716POPI   C3A11037   9.415   4.079   7.328 -0.0776 -0.3361 -0.0408
  716POPI   C4A11038   9.565   3.998   7.627  0.1757  0.0524 -0.0518
  716POPI   C1B11039  10.089   4.280   6.293  0.1640 -0.1633 -0.2803
  716POPI   C2B11040  10.335   4.098   6.605  0.2622 -0.2263  0.0547
  716POPI   C3B11041  10.392   4.033   7.080 -0.0115 -0.0372 -0.1252
  716POPI   C4B11042  10.829   4.007   7.297 -0.0565 -0.1228 -0.1112
  717POPI    C111043   8.148  16.552   5.417 -0.1540  0.3575 -0.0538
  717POPI    C211044   8.098  16.367   5.066 -0.0012 -0.0368  0.1267
  717POPI    C311045   8.218  16.749   5.076  0.1362 -0.0664 -0.2468
  717POPI   PO411046   8.267  16.471   5.606 -0.1683  0.0900  0.1062
  717POPI   GL111047   8.388  16.566   6.020 -0.2494  0.1795 -0.0359
  717POPI   GL211048   8.071  16.552   6.099  0.2094  0.0677 -0.0882
  717POPI   C1A11049   8.770  16.273   6.288 -0.1762  0.2221 -0.1353
  717POPI   D2A11050   9.062  16.095   6.622 -0.2915  0.1240 -0.0096
  717POPI   C3A11051   8.930  16.199   6.981 -0.0094 -0.0866 -0.2607
  717POPI   C4A11052   8.867  16.092   7.450 -0.5393  0.0350  0.0935
  717POPI   C1B11053   7.801  16.443   6.448  0.0072 -0.1340 -0.3639
  717POPI   C2B11054   7.673  16.493   6.810  0.2525 -0.1098 -0.1920
  717POPI   C3B11055   7.705  16.694   7.053  0.1635  0.2783  0.3786
  717POPI   C4B11056   7.556  16.958   7.430  0.0373 -0.2164  0.0225
  718POPI    C111057  18.656  17.566   5.161 -0.0978 -0.2321  0.1599
  718POPI    C211058  18.374  17.388   4.940 -0.0569 -0.0217 -0.0658
  718POPI    C311059  18.752  17.258   4.924 -0.0995 -0.1655  0.0724
  718POPI   PO411060  18.633  17.576   5.463  0.1663  0.0635 -0.0584
  718POPI   GL111061  18.522  17.459   5.782 -0.2784 -0.2733 -0.0134
  718POPI   GL211062  18.798  17.291   5.854  0.0092  0.0153 -0.0358
  718POPI   C1A11063  18.309  17.345   6.189 -0.1767  0.0520 -0.2940
  718POPI   D2A11064  18.167  17.096   6.590  0.1092 -0.1037 -0.0679
  718POPI   C3A11065  17.789  17.262   6.922  0.2166  0.0523 -0.0061
  718POPI   C4A11066  17.749  17.643   7.170  0.2328  0.1686  0.2378
  718POPI   C1B11067  18.657  17.054   6.176  0.2017  0.2657 -0.2575
  718POPI   C2B11068  18.325  16.724   6.295 -0.0273  0.1313 -0.1572
  718POPI   C3B11069  18.204  16.547   6.637  0.1300 -0.0993  0.2197
  718POPI   C4B11070  18.082  16.669   7.004  0.0000  0.1539 -0.0566
  719POPI    C111071  17.158   9.859   4.906 -0.0165  0.0573 -0.0774
  719POPI    C211072  16.971  10.011   4.587 -0.0795  0.0730 -0.0332
  719POPI    C311073  17.326   9.834   4.545 -0.1497 -0.0451 -0.1332
  719POPI   PO411074  17.216  10.099   5.123 -0.0727 -0.2148  0.3482
  719POPI   GL111075  17.359  10.264   5.558  0.1400 -0.2637  0.1856
  719POPI   GL211076  17.597  10.110   5.772  0.0952  0.3315  0.0662
  719POPI   C1A11077  17.184  10.547   5.733 -0.1767 -0.1495 -0.0325
  719POPI   D2A11078  16.838  10.804   6.002 -0.1702  0.2581  0.0772
  719POPI   C3A11079  16.974  10.821   6.385 -0.3282  0.1148 -0.0651
  719POPI   C4A11080  16.798  10.999   6.758 -0.2535 -0.2269  0.3666
  719POPI   C1B11081  17.723  10.499   6.019  0.2623 -0.1975 -0.1287
  719POPI   C2B11082  17.662  10.882   6.247 -0.2442 -0.0854  0.1480
  719POPI   C3B11083  17.755  11.292   6.260 -0.0703  0.3932  0.1021
  719POPI   C4B11084  17.761  11.703   6.415  0.1712  0.0960 -0.0231
  720POPI    C111085   4.019  13.582   5.379 -0.0614  0.0158 -0.0647
  720POPI    C211086   4.206  13.590   5.025  0.0407  0.2354 -0.0079
  720POPI    C311087   4.080  13.242   5.178  0.3438  0.0915 -0.0787
  720POPI   PO411088   4.223  13.736   5.557 -0.0717 -0.2111 -0.1090
  720POPI   GL111089   4.161  13.817   5.907 -0.1194  0.2737  0.1288
  720POPI   GL211090   4.058  14.142   6.056 -0.1317 -0.1161 -0.3104
  720POPI   C1A11091   3.967  13.771   6.391  0.1354  0.0344 -0.0451
  720POPI   D2A11092   3.843  13.880   6.776  0.2385  0.3397  0.2674
  720POPI   C3A11093   3.761  13.571   7.152 -0.0614  0.0736  0.0225
  720POPI   C4A11094   3.949  13.352   7.473 -0.1971 -0.0878  0.0300
  720POPI   C1B11095   3.738  14.203   6.408  0.0522 -0.1190 -0.0347
  720POPI   C2B11096   3.733  14.385   6.824  0.2452  0.1394  0.0598
  720POPI   C3B11097   3.808  14.811   6.966 -0.1264 -0.0027  0.0183
  720POPI   C4B11098   4.240  14.827   7.130 -0.0448  0.0143 -0.2307
  721POPI    C111099   7.287   3.688   6.360  0.0887 -0.1816 -0.0820
  721POPI    C211100   7.560   3.873   6.133 -0.1456  0.4572  0.1333
  721POPI    C311101   7.223   3.735   5.967 -0.0031  0.2839 -0.0173
  721POPI   PO411102   7.455   3.831   6.591 -0.1086 -0.0339  0.1134
  721POPI   GL111103   7.706   3.833   6.918  0.0771  0.1055 -0.3759
  721POPI   GL211104   7.645   4.212   7.062 -0.3070  0.0813  0.3360
  721POPI   C1A11105   7.465   3.763   7.378 -0.0231  0.1681 -0.1000
  721POPI   D2A11106   7.697   3.867   7.860 -0.0455  0.0643  0.0554
  721POPI   C3A11107   7.997   4.182   8.146 -0.2950 -0.3131  0.2106
  721POPI   C4A11108   7.875   4.655   8.330  0.1692  0.0640 -0.1114
  721POPI   C1B11109   7.392   4.354   7.383  0.0789 -0.0635  0.3855
  721POPI   C2B11110   7.316   4.392   7.926  0.0346  0.2573  0.1385
  721POPI   C3B11111   7.491   4.256   8.251  0.1082 -0.0186 -0.1091
  721POPI   C4B11112   7.669   4.186   8.613 -0.2210 -0.0524 -0.1129
  722POPI    C111113   1.497  12.294   5.425  0.1493  0.0217  0.0200
  722POPI    C211114   1.513  12.457   5.060  0.1553 -0.1716 -0.0669
  722POPI    C311115   1.840  12.448   5.290  0.1118  0.0961  0.0085
  722POPI   PO411116   1.350  12.427   5.573  0.0054  0.0909 -0.0175
  722POPI   GL111117   1.138  12.467   5.920 -0.0267  0.0744 -0.1202
  722POPI   GL211118   1.435  12.634   6.084  0.2281  0.0220  0.1881
  722POPI   C1A11119   0.917  12.471   6.319  0.1819  0.1987 -0.1559
  722POPI   D2A11120   0.806  12.368   6.731 -0.0342  0.0542  0.1833
  722POPI   C3A11121   0.368  12.366   6.890  0.0760 -0.2908  0.2900
  722POPI   C4A11122   0.076  12.454   7.193 -0.1063 -0.3384 -0.0085
  722POPI   C1B11123   1.353  12.615   6.485 -0.6100 -0.1339 -0.2344
  722POPI   C2B11124   1.361  12.520   6.984  0.0373 -0.0183  0.0692
  722POPI   C3B11125   1.362  12.528   7.457 -0.4086 -0.0562  0.0473
  722POPI   C4B11126   1.426  12.979   7.724  0.0878 -0.2341  0.0553
  723POPI    C111127  18.347   7.681   5.189  0.0482  0.1115  0.0873
  723POPI    C211128  18.551   8.011   5.092  0.3436 -0.1037 -0.0392
  723POPI    C311129  18.672   7.655   4.958  0.0999 -0.2800  0.1981
  723POPI   PO411130  18.332   7.642   5.379 -0.1662 -0.1649  0.0787
  723POPI   GL111131  18.151   7.480   5.785 -0.0609 -0.2446 -0.0573
  723POPI   GL211132  18.535   7.551   5.802  0.3391  0.1084 -0.1185
  723POPI   C1A11133  17.880   7.400   6.176 -0.1963 -0.0639  0.1428
  723POPI   D2A11134  17.591   7.251   6.377  0.1606 -0.0585  0.1880
  723POPI   C3A11135  17.568   7.318   6.785  0.0484 -0.0115 -0.0467
  723POPI   C4A11136  17.660   7.141   7.218  0.3088  0.1333  0.2443
  723POPI   C1B11137  18.343   7.689   6.187  0.2960 -0.1973  0.2671
  723POPI   C2B11138  18.205   7.562   6.613  0.3897 -0.1814  0.0767
  723POPI   C3B11139  17.944   7.615   7.028 -0.3472  0.1407 -0.1688
  723POPI   C4B11140  17.836   7.560   7.407 -0.1492  0.0512 -0.0566
  724POPI    C111141  14.961  12.174   5.556  0.3826 -0.0284  0.0555
  724POPI    C211142  14.795  11.815   5.614 -0.0210  0.0910 -0.3104
  724POPI    C311143  15.110  11.852   5.370  0.0145 -0.0126 -0.2809
  724POPI   PO411144  14.931  12.281   5.816 -0.1222 -0.1821  0.1486
  724POPI   GL111145  14.977  12.093   6.190  0.4716  0.1653 -0.0346
  724POPI   GL211146  14.945  12.371   6.324 -0.3791  0.3539  0.3725
  724POPI   C1A11147  15.317  11.938   6.322 -0.1090 -0.0241 -0.0327
  724POPI   D2A11148  15.676  12.022   6.589  0.1959  0.1783  0.1883
  724POPI   C3A11149  15.766  12.098   7.021 -0.0576  0.0603 -0.0049
  724POPI   C4A11150  15.821  12.081   7.453 -0.0429  0.1182 -0.4770
  724POPI   C1B11151  15.079  12.381   6.681 -0.0596  0.1271  0.5561
  724POPI   C2B11152  14.837  12.350   7.079 -0.5481  0.0206  0.1989
  724POPI   C3B11153  14.670  12.139   7.418 -0.0429  0.0906 -0.0545
  724POPI   C4B11154  14.877  12.104   7.755 -0.1646 -0.3602  0.2019
  725POPI    C111155   6.448   7.582   5.662  0.0381 -0.1131 -0.1122
  725POPI    C211156   6.409   7.214   5.814  0.1533 -0.0775  0.0055
  725POPI    C311157   6.771   7.351   5.710  0.1187  0.0244  0.0177
  725POPI   PO411158   6.450   7.793   5.854  0.1015 -0.1241  0.1988
  725POPI   GL111159   6.307   7.859   6.285 -0.1549  0.2465  0.0787
  725POPI   GL211160   6.506   7.953   6.418 -0.0638 -0.0498 -0.0120
  725POPI   C1A11161   6.018   8.097   6.658 -0.0647  0.1520 -0.1300
  725POPI   D2A11162   5.908   8.316   6.988  0.1445  0.1680  0.1271
  725POPI   C3A11163   5.975   8.371   7.461  0.0913  0.2057  0.1014
  725POPI   C4A11164   5.575   8.525   7.788 -0.2038 -0.0190 -0.0706
  725POPI   C1B11165   6.269   7.659   6.786  0.2617  0.2164 -0.0493
  725POPI   C2B11166   6.113   7.690   7.162 -0.1611 -0.1150 -0.1384
  725POPI   C3B11167   5.710   7.632   7.100 -0.0400  0.0216 -0.3858
  725POPI   C4B11168   5.328   7.487   6.982  0.1622  0.2538  0.0336
  726POPI    C111169   7.151   4.524   5.939  0.1753  0.2040 -0.0919
  726POPI    C211170   7.323   4.576   5.581  0.0137 -0.0089 -0.2024
  726POPI    C311171   7.249   4.206   5.716 -0.2679  0.0768 -0.1148
  726POPI   PO411172   7.247   4.669   6.278  0.7948  0.1426 -0.2339
  726POPI   GL111173   7.017   4.486   6.641 -0.2801 -0.0783  0.1228
  726POPI   GL211174   7.138   4.266   6.831 -0.1189  0.2727 -0.2333
  726POPI   C1A11175   6.770   4.649   7.011  0.0534 -0.1004 -0.0298
  726POPI   D2A11176   6.575   5.006   7.247 -0.1318  0.1536 -0.0963
  726POPI   C3A11177   6.178   5.003   6.991 -0.2030 -0.0764  0.0315
  726POPI   C4A11178   5.760   5.241   6.832 -0.1090 -0.2222  0.3254
  726POPI   C1B11179   7.295   4.632   6.999  0.0565  0.0032 -0.0363
  726POPI   C2B11180   7.460   4.995   7.102 -0.0467  0.2393  0.1497
  726POPI   C3B11181   7.213   5.269   7.240 -0.1273 -0.2673  0.1432
  726POPI   C4B11182   7.220   5.274   7.722  0.0175  0.6242  0.0547
  727POPI    C111183   9.361  11.999   5.111  0.0647 -0.1568  0.0746
  727POPI    C211184   9.691  12.199   5.006 -0.0807  0.0060 -0.0790
  727POPI    C311185   9.660  11.808   4.926  0.1771 -0.0673  0.1620
  727POPI   PO411186   9.470  12.189   5.501 -0.0161 -0.0681 -0.1982
  727POPI   GL111187   9.471  12.490   5.897  0.1507 -0.1383  0.0547
  727POPI   GL211188   9.185  12.598   5.929 -0.1116  0.1286  0.1249
  727POPI   C1A11189   9.946  12.504   5.989  0.2041  0.1905 -0.1090
  727POPI   D2A11190  10.327  12.585   6.174 -0.1197  0.2459  0.1824
  727POPI   C3A11191  10.370  12.717   6.639  0.1106  0.4312 -0.2170
  727POPI   C4A11192  10.664  12.815   6.915 -0.3301 -0.2343  0.4139
  727POPI   C1B11193   9.085  12.753   6.320  0.4085 -0.1607  0.2306
  727POPI   C2B11194   9.087  13.006   6.668 -0.0202 -0.2297 -0.0037
  727POPI   C3B11195   9.391  13.072   6.894 -0.2830  0.1633  0.1174
  727POPI   C4B11196   9.673  12.833   7.087  0.2367 -0.1155  0.2716
  728POPI    C111197  15.699   9.589   5.472  0.1240 -0.4319  0.1393
  728POPI    C211198  15.438   9.853   5.323  0.2273 -0.1892  0.3792
  728POPI    C311199  15.533   9.525   5.114  0.0776 -0.0509  0.0886
  728POPI   PO411200  15.617   9.534   5.681 -0.2041 -0.0167  0.0100
  728POPI   GL111201  15.607   9.587   5.997  0.1460 -0.1035  0.0312
  728POPI   GL211202  15.904   9.362   6.162 -0.1367 -0.0307  0.1845
  728POPI   C1A11203  15.274   9.793   6.252  0.0316 -0.2115 -0.0170
  728POPI   D2A11204  15.100   9.805   6.719 -0.0449 -0.3070  0.1151
  728POPI   C3A11205  15.368   9.536   6.909  0.4284 -0.1209  0.0236
  728POPI   C4A11206  15.691   9.241   7.124  0.0176 -0.0760  0.2031
  728POPI   C1B11207  15.916   9.150   6.603 -0.0079  0.2008  0.3795
  728POPI   C2B11208  16.236   9.112   6.987  0.0926  0.2310 -0.0988
  728POPI   C3B11209  16.450   8.947   7.314  0.2237 -0.0058 -0.0892
  728POPI   C4B11210  16.758   8.731   7.637  0.2295 -0.2048  0.0517
  729POPI    C111211  12.342  17.358   5.531 -0.2105 -0.3616 -0.1379
  729POPI    C211212  12.205  17.107   5.252  0.0598 -0.0661 -0.5498
  729POPI    C311213  12.555  17.293   5.199  0.0647  0.0813 -0.0579
  729POPI   PO411214  12.161  17.490   5.559  0.2203 -0.0017 -0.0918
  729POPI   GL111215  11.854  17.545   5.922  0.1240  0.0128  0.4415
  729POPI   GL211216  11.722  17.294   6.064 -0.2729 -0.1290  0.0191
  729POPI   C1A11217  12.030  17.817   6.234  0.1731  0.2891 -0.1714
  729POPI   D2A11218  12.449  18.037   6.308  0.1613  0.0624 -0.2334
  729POPI   C3A11219  12.402  18.449   6.423  0.1203  0.2838  0.2615
  729POPI   C4A11220  12.438  18.719   6.124 -0.0642  0.0045 -0.0004
  729POPI   C1B11221  11.676  17.471   6.416 -0.0543  0.0681  0.0390
  729POPI   C2B11222  11.801  17.583   6.811 -0.0928 -0.1650  0.1189
  729POPI   C3B11223  11.876  17.903   7.157  0.1052  0.1144 -0.1620
  729POPI   C4B11224  11.539  18.141   7.454  0.0032  0.0089 -0.0464
  730POPI    C111225   0.697  16.976   5.181  0.1196 -0.2101 -0.0955
  730POPI    C211226   0.458  17.079   4.878  0.0217  0.1785  0.1081
  730POPI    C311227   0.812  17.261   4.925 -0.0351  0.2372  0.3180
  730POPI   PO411228   0.581  16.896   5.431  0.2510 -0.0084  0.0717
  730POPI   GL111229   0.611  16.558   5.822  0.0011  0.1344 -0.1249
  730POPI   GL211230   0.770  16.753   5.853 -0.1150 -0.0743 -0.0331
  730POPI   C1A11231   0.522  16.421   6.184  0.2436 -0.2231 -0.1452
  730POPI   D2A11232   0.408  16.190   6.535  0.0955 -0.0455  0.1572
  730POPI   C3A11233   0.158  16.003   6.709 -0.2369 -0.1582 -0.0900
  730POPI   C4A11234  -0.026  15.670   7.002 -0.1058 -0.2108  0.0657
  730POPI   C1B11235   0.942  16.693   6.305 -0.1001  0.0498 -0.3828
  730POPI   C2B11236   0.695  16.576   6.637  0.2983  0.1443  0.0098
  730POPI   C3B11237   0.271  16.575   6.924  0.0563 -0.1130  0.1192
  730POPI   C4B11238  -0.088  16.484   7.062 -0.1247  0.1112  0.0431
  731POPI    C111239  15.649   8.078   5.327 -0.0432  0.1165  0.0769
  731POPI    C211240  15.423   8.196   5.019  0.0984  0.0143 -0.0680
  731POPI    C311241  15.363   7.837   5.185 -0.0635  0.1217  0.1093
  731POPI   PO411242  15.611   8.189   5.554  0.0410  0.5674 -0.1042
  731POPI   GL111243  15.693   8.045   5.940  0.0886 -0.0007 -0.2200
  731POPI   GL211244  15.793   8.227   6.073  0.0427  0.1438 -0.1075
  731POPI   C1A11245  15.382   7.786   6.239  0.1060  0.0419 -0.0165
  731POPI   D2A11246  15.063   7.512   6.434  0.1596 -0.0157 -0.0383
  731POPI   C3A11247  15.204   7.160   6.679  0.1966  0.0168  0.1238
  731POPI   C4A11248  14.906   7.191   7.036  0.1886 -0.1630  0.1061
  731POPI   C1B11249  15.767   8.018   6.496  0.2379 -0.1557 -0.2313
  731POPI   C2B11250  15.777   7.772   6.901  0.1698  0.1921  0.0722
  731POPI   C3B11251  15.968   7.445   7.202 -0.1497 -0.1661 -0.0831
  731POPI   C4B11252  15.692   7.415   7.652 -0.1137  0.1570  0.2974
  732POPI    C111253   8.785   9.734   5.581  0.0048 -0.4476  0.2133
  732POPI    C211254   9.061   9.957   5.765 -0.0203 -0.1908 -0.0522
  732POPI    C311255   9.171   9.695   5.484 -0.0479 -0.0632 -0.1832
  732POPI   PO411256   8.536   9.951   5.713 -0.1219  0.1188 -0.3597
  732POPI   GL111257   8.574  10.245   6.055 -0.0171 -0.1481 -0.0277
  732POPI   GL211258   9.038  10.277   6.195  0.0427 -0.2031  0.0446
  732POPI   C1A11259   8.584  10.804   6.184  0.0741  0.0244 -0.1635
  732POPI   D2A11260   8.389  11.213   6.300 -0.0163 -0.1547  0.2886
  732POPI   C3A11261   8.055  11.442   6.589 -0.0612 -0.0707 -0.0706
  732POPI   C4A11262   7.566  11.571   6.643  0.1373  0.4220 -0.1950
  732POPI   C1B11263   8.675   9.936   6.454  0.2589 -0.1900 -0.1260
  732POPI   C2B11264   8.710   9.631   6.820 -0.0528 -0.1444 -0.2224
  732POPI   C3B11265   8.705   9.676   7.261  0.3037 -0.0744  0.0971
  732POPI   C4B11266   8.696   9.427   7.626  0.1365 -0.0092  0.1374
  733POPI    C111267   4.012  18.465   4.976 -0.1563 -0.0389  0.0232
  733POPI    C211268   3.853  18.758   4.755 -0.0100  0.1109  0.1138
  733POPI    C311269   3.734  18.380   4.702 -0.0715  0.1628 -0.1279
  733POPI   PO411270   4.103  18.562   5.183  0.4215  0.2680 -0.1453
  733POPI   GL111271   4.194  18.521   5.599  0.0992  0.1718 -0.2476
  733POPI   GL211272   3.808  18.394   5.577  0.1876 -0.0037  0.0865
  733POPI   C1A11273   4.363  18.270   5.846  0.0889  0.0847  0.1095
  733POPI   D2A11274   4.658  17.893   5.989  0.3538 -0.1045 -0.0224
  733POPI   C3A11275   4.858  17.968   6.361 -0.0618  0.2572  0.2781
  733POPI   C4A11276   5.204  17.792   6.696  0.0875 -0.2019  0.3730
  733POPI   C1B11277   3.949  18.642   5.985  0.1761  0.0589  0.1183
  733POPI   C2B11278   3.755  18.814   6.247 -0.1013  0.4201  0.1639
  733POPI   C3B11279   3.464  19.085   6.540 -0.2612 -0.0008  0.2979
  733POPI   C4B11280   3.329  19.136   7.081 -0.1524  0.0991  0.1293
  734POPI    C111281   4.900  11.614   5.939  0.1465  0.1597  0.1030
  734POPI    C211282   4.979  11.692   5.555  0.1108  0.0253  0.0677
  734POPI    C311283   5.254  11.768   5.835  0.1213  0.1625  0.0211
  734POPI   PO411284   4.581  11.802   5.951 -0.1510 -0.0908  0.0712
  734POPI   GL111285   4.271  11.869   6.186 -0.1586  0.2535 -0.0181
  734POPI   GL211286   4.466  12.221   6.283  0.2600  0.0139 -0.2343
  734POPI   C1A11287   4.450  11.796   6.613 -0.1096 -0.3810 -0.1606
  734POPI   D2A11288   4.661  11.373   6.790 -0.1494  0.1106 -0.1563
  734POPI   C3A11289   4.677  11.220   7.163  0.2035 -0.2885  0.0038
  734POPI   C4A11290   4.447  11.142   7.547 -0.0396  0.0271 -0.2672
  734POPI   C1B11291   4.873  12.231   6.390  0.1493 -0.0294 -0.1913
  734POPI   C2B11292   5.269  12.407   6.662  0.1678  0.0816  0.0310
  734POPI   C3B11293   5.445  12.502   6.959  0.3115 -0.4289 -0.2622
  734POPI   C4B11294   5.683  12.379   7.385  0.3043  0.1548  0.4263
  735POPI    C111295  16.164  11.261   5.218  0.2048  0.0355 -0.2296
  735POPI    C211296  16.118  10.869   5.284  0.3161  0.0534 -0.0401
  735POPI    C311297  16.308  10.995   4.956  0.3372 -0.0532 -0.0694
  735POPI   PO411298  15.977  11.396   5.386  0.1070 -0.3751  0.0225
  735POPI   GL111299  15.931  11.651   5.661  0.1071 -0.1502 -0.2583
  735POPI   GL211300  15.747  11.582   5.927  0.2609 -0.0260 -0.2573
  735POPI   C1A11301  16.205  11.452   5.983  0.0825  0.1253 -0.0742
  735POPI   D2A11302  16.366  11.490   6.425  0.0734 -0.1334  0.0381
  735POPI   C3A11303  16.753  11.455   6.538  0.0900 -0.1118 -0.1076
  735POPI   C4A11304  16.922  11.419   6.985  0.0491 -0.1643  0.3595
  735POPI   C1B11305  15.914  11.671   6.316 -0.0481 -0.2152  0.2060
  735POPI   C2B11306  16.022  11.677   6.780  0.1904 -0.0657 -0.0115
  735POPI   C3B11307  16.051  11.580   7.196 -0.1155 -0.2794 -0.2323
  735POPI   C4B11308  16.193  11.198   7.391  0.1296  0.2103 -0.0753
  736POPI    C111309   2.067  13.919   5.648  0.1445 -0.1162 -0.0800
  736POPI    C211310   1.941  14.076   5.303  0.1659  0.0923  0.0056
  736POPI    C311311   2.285  13.872   5.315  0.2225  0.1820 -0.0735
  736POPI   PO411312   1.870  13.958   5.810  0.0476  0.0494  0.0997
  736POPI   GL111313   1.742  13.670   6.157 -0.4844  0.1047  0.1330
  736POPI   GL211314   1.584  14.031   6.200 -0.0974  0.0535  0.0344
  736POPI   C1A11315   1.888  13.369   6.481 -0.0400 -0.3015  0.2322
  736POPI   D2A11316   2.272  13.236   6.759 -0.2446 -0.2165  0.1301
  736POPI   C3A11317   2.292  12.699   6.954 -0.2651  0.3355  0.3719
  736POPI   C4A11318   2.281  12.265   6.971 -0.1895  0.1390 -0.0641
  736POPI   C1B11319   1.716  13.842   6.625 -0.1036 -0.0334  0.1913
  736POPI   C2B11320   1.993  13.714   6.933  0.2603  0.2555  0.0040
  736POPI   C3B11321   2.019  13.871   7.348 -0.1533  0.1785  0.1665
  736POPI   C4B11322   1.843  14.235   7.781  0.1286 -0.0905 -0.2496
  737POPI    C111323   4.779  15.054   5.402 -0.0282 -0.0419  0.0060
  737POPI    C211324   4.422  14.893   5.488 -0.0126 -0.0433  0.0693
  737POPI    C311325   4.572  14.862   5.118 -0.1134  0.0250  0.0223
  737POPI   PO411326   4.751  15.256   5.623  0.0401  0.0046 -0.0287
  737POPI   GL111327   4.969  15.194   6.026  0.1750 -0.1622  0.1508
  737POPI   GL211328   5.186  14.882   6.171 -0.3243 -0.0525  0.0676
  737POPI   C1A11329   4.858  15.553   6.322  0.0556 -0.1971  0.2898
  737POPI   D2A11330   5.098  15.858   6.455  0.0817  0.0827  0.0225
  737POPI   C3A11331   5.230  15.993   6.833 -0.2626  0.4238  0.2863
  737POPI   C4A11332   5.189  16.327   7.172 -0.0574  0.1539  0.5285
  737POPI   C1B11333   5.005  14.573   6.469  0.1529  0.2486  0.0542
  737POPI   C2B11334   4.726  14.317   6.861  0.0357  0.1563  0.0564
  737POPI   C3B11335   4.668  14.017   7.196  0.0160  0.0240 -0.0185
  737POPI   C4B11336   4.749  13.675   7.419 -0.3419  0.2580 -0.2488
  738POPS   CNO11337   2.640   8.789   5.566  0.0301 -0.1743  0.3535
  738POPS   PO411338   2.606   8.526   5.863  0.1942 -0.2688 -0.2079
  738POPS   GL111339   2.393   8.442   6.200 -0.0024  0.0765  0.1446
  738POPS   GL211340   2.049   8.654   6.275 -0.3673 -0.1649 -0.1462
  738POPS   C1A11341   2.531   8.497   6.573  0.1566 -0.1455 -0.2788
  738POPS   D2A11342   2.636   8.421   7.048  0.0075 -0.0810 -0.1399
  738POPS   C3A11343   2.386   8.667   7.327  0.0155 -0.0012 -0.0116
  738POPS   C4A11344   1.999   8.814   7.342  0.2212 -0.0982 -0.1639
  738POPS   C1B11345   1.954   8.329   6.597  0.0377  0.0048 -0.1379
  738POPS   C2B11346   2.087   8.292   6.964 -0.4644 -0.1849  0.4486
  738POPS   C3B11347   1.945   8.313   7.412 -0.0591  0.2584 -0.2139
  738POPS   C4B11348   1.892   8.403   7.845 -0.1022 -0.0723 -0.0119
  739POPS   CNO11349  13.440   5.324   4.801  0.2155 -0.1569  0.1347
  739POPS   PO411350  13.122   5.351   5.139  0.2115  0.2272  0.1661
  739POPS   GL111351  13.124   5.457   5.529  0.0584  0.0869 -0.2860
  739POPS   GL211352  13.223   5.376   5.781 -0.3784  0.3582 -0.0740
  739POPS   C1A11353  12.798   5.475   5.928 -0.1302  0.1608  0.1133
  739POPS   D2A11354  12.578   5.381   6.307 -0.1188  0.0461 -0.1509
  739POPS   C3A11355  12.580   4.986   6.525  0.1242 -0.1018  0.4533
  739POPS   C4A11356  12.598   4.981   6.926 -0.2751 -0.3419  0.1009
  739POPS   C1B11357  13.131   5.158   6.191 -0.1067 -0.3636 -0.2516
  739POPS   C2B11358  13.141   5.121   6.532 -0.0972 -0.0762 -0.0344
  739POPS   C3B11359  13.244   4.751   6.821 -0.1044 -0.0705  0.0280
  739POPS   C4B11360  13.193   4.272   6.896 -0.1917 -0.2992  0.1228
  740POPS   CNO11361   6.878  10.316   5.291 -0.0693  0.0523  0.0811
  740POPS   PO411362   7.054  10.606   5.537 -0.0648 -0.3548  0.1921
  740POPS   GL111363   6.744  10.475   5.796 -0.0804  0.3046  0.1497
  740POPS   GL211364   7.013  10.452   6.015  0.1970 -0.0829 -0.1097
  740POPS   C1A11365   6.499  10.415   6.193  0.0980  0.1112  0.4336
  740POPS   D2A11366   6.319  10.364   6.591 -0.0947 -0.0318 -0.1535
  740POPS   C3A11367   6.033  10.207   6.972 -0.1431 -0.0174 -0.2343
  740POPS   C4A11368   6.221  10.120   7.450  0.2888 -0.4001  0.1010
  740POPS   C1B11369   6.930  10.779   6.317 -0.0222 -0.0125 -0.1242
  740POPS   C2B11370   6.899  10.678   6.789  0.1126 -0.2245 -0.2011
  740POPS   C3B11371   6.891  10.858   7.226  0.1427 -0.2860  0.4156
  740POPS   C4B11372   6.620  10.968   7.668  0.2421  0.0023  0.1256
  741POPS   CNO11373   5.026   1.840   5.820  0.1272  0.4974  0.0790
  741POPS   PO411374   5.318   2.162   5.812  0.2026 -0.0122 -0.1310
  741POPS   GL111375   5.334   2.170   6.215 -0.2877  0.0820 -0.1766
  741POPS   GL211376   4.989   2.183   6.246 -0.2129 -0.2060 -0.0366
  741POPS   C1A11377   5.544   1.825   6.492 -0.2197  0.0987  0.0431
  741POPS   D2A11378   5.286   1.574   6.660  0.0674  0.0245  0.1174
  741POPS   C3A11379   5.290   1.527   7.107  0.1848 -0.0565 -0.1161
  741POPS   C4A11380   5.027   1.536   7.442  0.4379  0.0686 -0.3749
  741POPS   C1B11381   5.232   2.150   6.723  0.1268 -0.2575  0.1787
  741POPS   C2B11382   5.277   2.046   7.118  0.2039 -0.2316 -0.0358
  741POPS   C3B11383   5.340   1.907   7.561  0.1188 -0.0038 -0.0412
  741POPS   C4B11384   5.460   1.463   7.641 -0.2392  0.5274 -0.2660
  742POPS   CNO11385   1.176   0.606   5.285 -0.1610  0.0802 -0.0881
  742POPS   PO411386   1.133   0.175   5.240 -0.3913  0.0918  0.0892
  742POPS   GL111387   1.432   0.295   5.641  0.1841 -0.2338 -0.0528
  742POPS   GL211388   1.723   0.212   5.740 -0.2437 -0.2926  0.0338
  742POPS   C1A11389   1.525   0.676   5.789  0.0070 -0.3900  0.0380
  742POPS   D2A11390   1.138   0.767   6.077 -0.0646 -0.1394 -0.3332
  742POPS   C3A11391   1.406   0.797   6.546  0.1479 -0.1225  0.0137
  742POPS   C4A11392   1.512   0.761   7.007 -0.3005 -0.0122 -0.0422
  742POPS   C1B11393   1.606   0.286   6.085 -0.1499 -0.0633 -0.0299
  742POPS   C2B11394   1.395   0.338   6.455  0.2952 -0.0940 -0.1934
  742POPS   C3B11395   1.268   0.250   6.941 -0.2625 -0.1742 -0.1349
  742POPS   C4B11396   1.163   0.363   7.383  0.0238  0.0658  0.0630
  743POPS   CNO11397   6.559  14.274   5.408 -0.1219  0.2728 -0.2672
  743POPS   PO411398   6.457  14.710   5.536 -0.3137  0.3021  0.0567
  743POPS   GL111399   6.790  14.529   5.795  0.0524 -0.3740  0.1165
  743POPS   GL211400   6.954  14.740   5.909 -0.2464 -0.0860  0.1544
  743POPS   C1A11401   6.859  14.316   6.143 -0.1130 -0.0245 -0.2269
  743POPS   D2A11402   6.867  14.262   6.642  0.0397 -0.0143  0.3383
  743POPS   C3A11403   6.761  14.542   7.041  0.2385  0.2221  0.1566
  743POPS   C4A11404   6.671  14.915   7.328 -0.1158 -0.3345  0.1478
  743POPS   C1B11405   6.980  14.739   6.399  0.1211 -0.1777  0.1417
  743POPS   C2B11406   6.634  14.922   6.574 -0.0249  0.1588 -0.2253
  743POPS   C3B11407   6.242  15.057   6.408  0.1981  0.0474 -0.0961
  743POPS   C4B11408   6.109  15.248   6.054  0.1696  0.0097 -0.0669
  744POPS   CNO11409   1.642  17.703   5.337  0.1062  0.0976 -0.2876
  744POPS   PO411410   1.465  17.385   5.652 -0.1856  0.0076 -0.0041
  744POPS   GL111411   1.185  17.367   6.049 -0.1854 -0.4596 -0.0247
  744POPS   GL211412   0.926  17.142   6.131 -0.1391  0.0400  0.1498
  744POPS   C1A11413   1.091  17.620   6.344  0.2258  0.1380  0.0515
  744POPS   D2A11414   1.166  17.736   6.775  0.4443 -0.3185  0.0868
  744POPS   C3A11415   1.624  17.766   6.728 -0.1964  0.0240  0.0615
  744POPS   C4A11416   2.061  17.621   6.702  0.0323  0.0208  0.1663
  744POPS   C1B11417   0.971  17.103   6.587 -0.1428  0.0166 -0.4130
  744POPS   C2B11418   1.062  16.807   6.874 -0.1072 -0.0925  0.1114
  744POPS   C3B11419   1.196  16.828   7.206 -0.1271 -0.1614  0.0854
  744POPS   C4B11420   0.969  17.172   7.453  0.1272  0.2422  0.0400
  745POPS   CNO11421   2.533   0.334   5.142 -0.2066 -0.2434 -0.0350
  745POPS   PO411422   3.044   0.099   5.066 -0.2144 -0.0513 -0.2461
  745POPS   GL111423   3.119   0.167   5.483  0.2662  0.1671  0.1689
  745POPS   GL211424   2.788   0.279   5.600  0.2742  0.0845 -0.1117
  745POPS   C1A11425   3.143   0.167   5.969 -0.0344 -0.2024  0.2081
  745POPS   D2A11426   3.042   0.315   6.341 -0.1402 -0.1330 -0.0621
  745POPS   C3A11427   2.999   0.062   6.636 -0.4804  0.0457 -0.0884
  745POPS   C4A11428   3.239  -0.211   6.895  0.0099  0.0463  0.3468
  745POPS   C1B11429   2.601   0.410   5.964  0.0197  0.0892 -0.1894
  745POPS   C2B11430   2.737   0.688   6.380  0.0597 -0.1891  0.2476
  745POPS   C3B11431   2.760   0.897   6.775  0.2052 -0.1379  0.2340
  745POPS   C4B11432   2.944   0.933   7.232 -0.1906 -0.0890  0.0647
  746POPS   CNO11433  12.404   2.263   5.362 -0.1108  0.3705  0.2552
  746POPS   PO411434  12.732   2.524   5.193  0.1303  0.0432  0.1783
  746POPS   GL111435  12.767   2.500   5.670 -0.0804  0.0297  0.0653
  746POPS   GL211436  12.409   2.595   5.812 -0.0540 -0.1717  0.0455
  746POPS   C1A11437  12.863   2.739   6.038  0.1143  0.0573 -0.2453
  746POPS   D2A11438  12.981   2.476   6.265  0.3262  0.1367  0.1391
  746POPS   C3A11439  13.406   2.394   6.242 -0.1179  0.2776 -0.1935
  746POPS   C4A11440  13.889   2.504   6.160 -0.0362  0.2597 -0.2012
  746POPS   C1B11441  12.430   2.276   6.085 -0.0207  0.2400  0.0127
  746POPS   C2B11442  12.621   2.145   6.455 -0.0765 -0.0550 -0.0222
  746POPS   C3B11443  12.945   2.173   6.756  0.2189 -0.3130  0.3120
  746POPS   C4B11444  13.370   2.367   6.893  0.3331  0.1123 -0.2731
  747POPS   CNO11445  16.409   6.343   4.937 -0.2250 -0.3379 -0.1606
  747POPS   PO411446  16.594   6.320   5.315 -0.2882  0.1232 -0.1251
  747POPS   GL111447  16.496   6.124   5.654  0.1085  0.0491 -0.0661
  747POPS   GL211448  16.217   6.132   5.770  0.2393 -0.0997 -0.1041
  747POPS   C1A11449  16.404   6.075   6.175 -0.0890 -0.1674 -0.0069
  747POPS   D2A11450  16.214   6.272   6.488  0.2417  0.2269 -0.2993
  747POPS   C3A11451  15.964   6.431   6.621  0.0277 -0.1639  0.1147
  747POPS   C4A11452  15.950   6.455   7.034  0.0364  0.0303  0.2784
  747POPS   C1B11453  16.156   6.447   6.036 -0.0575  0.1148 -0.0126
  747POPS   C2B11454  16.532   6.563   6.258  0.0636  0.3892  0.0422
  747POPS   C3B11455  16.817   6.358   6.043 -0.1099 -0.1831  0.0557
  747POPS   C4B11456  16.917   5.921   6.030  0.0138 -0.1599  0.2355
  748POPS   CNO11457  11.240   6.446   6.072  0.0492  0.2067  0.0419
  748POPS   PO411458  11.406   6.717   5.753 -0.0566 -0.4581 -0.0580
  748POPS   GL111459  11.430   7.026   6.036 -0.1248  0.3163 -0.0246
  748POPS   GL211460  11.175   6.966   6.200  0.0222  0.0548 -0.0439
  748POPS   C1A11461  11.533   7.418   6.202  0.1931 -0.0736 -0.2025
  748POPS   D2A11462  11.692   7.748   6.371  0.1154 -0.3233 -0.3266
  748POPS   C3A11463  11.654   7.794   6.778  0.1907  0.3104 -0.2249
  748POPS   C4A11464  11.792   7.794   7.177 -0.1831  0.0666 -0.1019
  748POPS   C1B11465  11.319   6.877   6.543  0.0873  0.0211  0.1448
  748POPS   C2B11466  11.415   6.932   6.923 -0.1127  0.1269 -0.2223
  748POPS   C3B11467  11.638   6.750   7.272  0.1824 -0.0286 -0.2481
  748POPS   C4B11468  11.854   6.570   7.528  0.1577 -0.3904 -0.1500
  749POPS   CNO11469   1.840   5.317   5.384 -0.0629  0.3551 -0.2463
  749POPS   PO411470   1.429   5.374   5.611 -0.0654 -0.0624  0.3462
  749POPS   GL111471   1.643   5.553   6.031 -0.3235 -0.2051  0.0604
  749POPS   GL211472   1.682   5.282   6.266 -0.1847  0.0345 -0.2664
  749POPS   C1A11473   1.728   5.717   6.449  0.1905  0.1503  0.0840
  749POPS   D2A11474   1.806   5.908   6.800 -0.0759  0.1491  0.0950
  749POPS   C3A11475   1.793   6.292   7.082  0.2716 -0.1076  0.2667
  749POPS   C4A11476   1.647   6.739   7.061 -0.0228  0.1557  0.1570
  749POPS   C1B11477   1.472   4.975   6.650 -0.3268 -0.2047 -0.0423
  749POPS   C2B11478   1.198   4.688   6.633  0.1848 -0.1271  0.2720
  749POPS   C3B11479   0.897   4.304   6.699 -0.4426  0.2535  0.0153
  749POPS   C4B11480   0.978   3.859   6.794 -0.2523 -0.1983 -0.1260
  750POPS   CNO11481   1.152  10.744   5.793  0.0534  0.2901  0.2309
  750POPS   PO411482   1.121  10.273   5.654  0.0890 -0.1620  0.0436
  750POPS   GL111483   1.091  10.322   6.078 -0.0978  0.2414  0.0015
  750POPS   GL211484   1.356  10.430   6.115  0.2900  0.1095  0.1619
  750POPS   C1A11485   1.083   9.933   6.398 -0.0319 -0.0062 -0.0389
  750POPS   D2A11486   0.908  10.090   6.749 -0.0758 -0.1085  0.2843
  750POPS   C3A11487   0.515   9.905   6.966 -0.0069 -0.1471  0.1834
  750POPS   C4A11488   0.209   9.657   6.947  0.0213 -0.1224  0.2521
  750POPS   C1B11489   1.144  10.447   6.529 -0.1794 -0.1230  0.0938
  750POPS   C2B11490   0.996  10.588   6.937  0.2087 -0.2846 -0.0359
  750POPS   C3B11491   0.794  10.336   7.271  0.0387 -0.0634 -0.2522
  750POPS   C4B11492   0.509  10.283   7.701 -0.0806 -0.1202  0.0665
  751POPS   CNO11493   4.463   8.518   5.857  0.0933  0.1286  0.0016
  751POPS   PO411494   4.291   8.193   5.745  0.0467 -0.0228  0.0994
  751POPS   GL111495   4.688   8.109   6.121  0.2009  0.0886 -0.0289
  751POPS   GL211496   5.000   7.916   6.138  0.3536  0.0524  0.3757
  751POPS   C1A11497   4.855   8.335   6.381 -0.2289 -0.0437 -0.2517
  751POPS   D2A11498   5.135   8.367   6.734  0.0706 -0.1251 -0.1715
  751POPS   C3A11499   5.008   8.476   7.124 -0.0479  0.1002  0.0154
  751POPS   C4A11500   4.911   8.601   7.456 -0.0849  0.0613  0.2385
  751POPS   C1B11501   5.095   7.785   6.532  0.1174 -0.1212 -0.1308
  751POPS   C2B11502   4.768   8.038   6.788  0.1640 -0.0871  0.1403
  751POPS   C3B11503   4.746   8.125   7.310  0.3427  0.0853 -0.1521
  751POPS   C4B11504   4.855   7.975   7.643  0.3688  0.1875 -0.1194
  752POPS   CNO11505   1.752  12.780   5.658 -0.3446 -0.0562 -0.0035
  752POPS   PO411506   1.292  12.927   5.584 -0.1743 -0.3216  0.2453
  752POPS   GL111507   1.069  12.969   5.900  0.1807 -0.0475  0.0971
  752POPS   GL211508   1.331  13.107   6.061 -0.0696  0.1476 -0.3810
  752POPS   C1A11509   0.747  12.963   6.220 -0.0220  0.0672  0.0536
  752POPS   D2A11510   0.412  12.711   6.347 -0.0233 -0.2702 -0.0757
  752POPS   C3A11511   0.483  12.285   6.404 -0.3304 -0.0761  0.0358
  752POPS   C4A11512   0.391  11.829   6.331  0.0594 -0.0603  0.2406
  752POPS   C1B11513   1.373  13.140   6.455 -0.0832  0.2638  0.2025
  752POPS   C2B11514   1.320  13.369   6.903 -0.2443 -0.2199 -0.1060
  752POPS   C3B11515   1.623  13.535   7.235 -0.0471  0.0796 -0.0474
  752POPS   C4B11516   1.843  13.425   7.651 -0.1658 -0.1465 -0.2528
  753POPS   CNO11517   2.476   2.130   5.097 -0.2548  0.0859 -0.1486
  753POPS   PO411518   2.828   1.906   5.268 -0.0997  0.0385  0.2857
  753POPS   GL111519   2.772   1.766   5.749 -0.0720  0.2186 -0.3850
  753POPS   GL211520   2.953   1.926   6.105  0.1213 -0.2690 -0.2924
  753POPS   C1A11521   2.467   1.872   6.137 -0.0629  0.0501  0.1865
  753POPS   D2A11522   2.181   1.889   6.416  0.2573  0.1455  0.0514
  753POPS   C3A11523   2.050   1.597   6.702  0.1492 -0.3584  0.0748
  753POPS   C4A11524   2.110   1.503   7.129  0.1365  0.1281  0.2000
  753POPS   C1B11525   3.102   1.806   6.468  0.1317  0.1311  0.4428
  753POPS   C2B11526   3.445   1.652   6.798 -0.2161 -0.3707  0.1492
  753POPS   C3B11527   3.657   1.638   7.207  0.0779  0.1826 -0.0929
  753POPS   C4B11528   3.555   1.452   7.561 -0.3723  0.2735 -0.0210
  754POPS   CNO11529   4.752  14.679   5.790  0.0406  0.0599  0.3313
  754POPS   PO411530   5.153  14.479   5.770  0.2192 -0.0934 -0.2825
  754POPS   GL111531   5.129  14.203   6.052  0.0948 -0.1350 -0.4888
  754POPS   GL211532   5.012  13.888   5.966 -0.0099  0.0542  0.0326
  754POPS   C1A11533   5.022  14.064   6.445 -0.0473 -0.1709  0.0222
  754POPS   D2A11534   5.156  13.930   6.869 -0.4464 -0.0011 -0.2052
  754POPS   C3A11535   5.265  13.698   7.113  0.2930  0.0389 -0.0613
  754POPS   C4A11536   5.308  13.534   7.467 -0.1618  0.0844 -0.1425
  754POPS   C1B11537   4.668  13.789   6.217  0.0971 -0.0892 -0.1550
  754POPS   C2B11538   4.472  13.792   6.641 -0.0538 -0.2429  0.0929
  754POPS   C3B11539   4.471  13.575   7.017 -0.0314  0.2281 -0.1055
  754POPS   C4B11540   4.362  13.167   7.276  0.2191  0.1122 -0.1779
  755POPS   CNO11541   9.141  10.612   5.348 -0.2529  0.1456 -0.2603
  755POPS   PO411542   9.047  10.456   5.698  0.0413 -0.0760  0.2385
  755POPS   GL111543   9.050  10.737   6.004 -0.0183 -0.3449  0.0371
  755POPS   GL211544   8.924  11.059   5.960  0.0897 -0.0043  0.0764
  755POPS   C1A11545   9.229  10.976   6.404  0.0294  0.0126  0.2811
  755POPS   D2A11546   9.361  10.872   6.804 -0.0755  0.2737 -0.1304
  755POPS   C3A11547   8.992  10.944   7.012 -0.2387 -0.4351  0.0957
  755POPS   C4A11548   8.750  10.599   7.023  0.2273  0.1149  0.4369
  755POPS   C1B11549   8.891  11.345   6.323 -0.2433  0.2131 -0.0766
  755POPS   C2B11550   8.969  11.460   6.759 -0.2817 -0.0666 -0.0331
  755POPS   C3B11551   8.850  11.787   6.976  0.0021  0.2075  0.3236
  755POPS   C4B11552   8.552  11.853   7.354 -0.2924 -0.0435  0.1777
  756POPS   CNO11553  10.118   2.295   5.951 -0.1591 -0.2101  0.0307
  756POPS   PO411554   9.900   2.001   5.734  0.3022  0.1663 -0.2005
  756POPS   GL111555   9.932   1.881   6.158 -0.1971  0.0713  0.2025
  756POPS   GL211556  10.197   1.888   6.293  0.0711  0.0414  0.0972
  756POPS   C1A11557   9.741   2.103   6.509  0.0540  0.1161 -0.1659
  756POPS   D2A11558   9.741   2.273   6.896 -0.1194  0.1140  0.1246
  756POPS   C3A11559   9.742   2.427   7.286 -0.1454 -0.5837  0.2286
  756POPS   C4A11560   9.761   2.730   7.659 -0.0023 -0.0512  0.1862
  756POPS   C1B11561  10.192   2.077   6.748 -0.1503 -0.3090 -0.0677
  756POPS   C2B11562  10.230   2.271   7.183  0.3661  0.0107  0.0071
  756POPS   C3B11563  10.303   2.541   7.297 -0.1429 -0.1057 -0.1357
  756POPS   C4B11564  10.200   2.828   7.271 -0.1488 -0.0811 -0.0187
  757POPS   CNO11565   0.508   8.537   5.483 -0.2926  0.1343 -0.1075
  757POPS   PO411566   0.069   8.857   5.463  0.1384  0.1252 -0.1713
  757POPS   GL111567  -0.083   9.033   5.892  0.2402 -0.3714 -0.0105
  757POPS   GL211568   0.089   9.231   5.902 -0.1550  0.0116  0.3079
  757POPS   C1A11569   0.086   8.878   6.313  0.0283  0.0734 -0.0214
  757POPS   D2A11570   0.192   8.650   6.658  0.1972  0.0895 -0.0528
  757POPS   C3A11571   0.157   8.682   7.032 -0.1143  0.3691 -0.1574
  757POPS   C4A11572   0.005   8.721   7.473  0.0272  0.1420 -0.1099
  757POPS   C1B11573   0.132   9.398   6.339  0.2486  0.0404 -0.1524
  757POPS   C2B11574  -0.108   9.630   6.599  0.1539 -0.1928  0.0058
  757POPS   C3B11575  -0.241   9.878   6.919 -0.0072 -0.0740  0.3137
  757POPS   C4B11576  -0.321  10.096   7.277  0.1477 -0.0756 -0.1940
  758POPS   CNO11577   9.511   2.364   5.524 -0.4036 -0.4325  0.1942
  758POPS   PO411578   9.224   2.118   5.720  0.2795  0.3306 -0.3410
  758POPS   GL111579   9.152   2.236   6.147 -0.0720  0.1465 -0.0856
  758POPS   GL211580   8.913   2.008   6.292  0.1991 -0.0004  0.0497
  758POPS   C1A11581   9.166   2.401   6.491 -0.1999  0.1933 -0.0827
  758POPS   D2A11582   9.459   2.716   6.696 -0.0002 -0.2383 -0.3719
  758POPS   C3A11583   9.334   2.610   7.068 -0.2055  0.0069  0.0528
  758POPS   C4A11584   9.299   2.563   7.391 -0.1597  0.0064 -0.0696
  758POPS   C1B11585   8.703   2.301   6.626 -0.2547 -0.1679 -0.2321
  758POPS   C2B11586   8.830   2.468   6.899  0.0706  0.2621  0.2142
  758POPS   C3B11587   8.870   2.309   7.321 -0.2489  0.0475  0.3825
  758POPS   C4B11588   8.858   1.834   7.448 -0.1798  0.5304 -0.2127
  759POPS   CNO11589   3.808   3.956   5.352 -0.0252 -0.0886 -0.0176
  759POPS   PO411590   3.498   4.255   5.418  0.1181 -0.4581  0.3077
  759POPS   GL111591   3.493   3.923   5.706 -0.3110  0.1874 -0.0096
  759POPS   GL211592   3.237   3.870   5.765 -0.0734  0.2728 -0.2458
  759POPS   C1A11593   3.639   3.914   6.124 -0.0793 -0.2121 -0.0926
  759POPS   D2A11594   3.621   3.963   6.565 -0.0935  0.2514 -0.0913
  759POPS   C3A11595   3.707   3.603   6.875  0.0077 -0.1758  0.1665
  759POPS   C4A11596   4.121   3.502   7.153 -0.0979 -0.3553  0.0487
  759POPS   C1B11597   3.109   3.948   6.086 -0.5785  0.1025 -0.2281
  759POPS   C2B11598   2.929   3.964   6.492 -0.1434  0.0808  0.2828
  759POPS   C3B11599   2.676   3.816   6.682 -0.4039 -0.0037  0.4012
  759POPS   C4B11600   2.474   3.723   7.052  0.0821 -0.0731 -0.1008
  760POPS   CNO11601  17.793   8.963   5.706 -0.0844  0.2608 -0.3541
  760POPS   PO411602  17.885   9.144   5.426 -0.3316 -0.1084 -0.2321
  760POPS   GL111603  17.869   9.452   5.739 -0.1516  0.1111 -0.1191
  760POPS   GL211604  17.762   9.637   5.620 -0.1960 -0.0073 -0.0320
  760POPS   C1A11605  18.092   9.760   6.037 -0.0079 -0.2456  0.2674
  760POPS   D2A11606  18.297   9.807   6.364 -0.3049  0.3745 -0.0567
  760POPS   C3A11607  18.098  10.004   6.725  0.0666  0.1693 -0.0562
  760POPS   C4A11608  18.075  10.347   7.022  0.0274  0.3175 -0.1984
  760POPS   C1B11609  17.421   9.735   5.983  0.0726 -0.2326  0.0577
  760POPS   C2B11610  17.303   9.801   6.390 -0.0393  0.1448 -0.3311
  760POPS   C3B11611  17.590   9.957   6.823  0.2905  0.1181  0.3775
  760POPS   C4B11612  17.491   9.743   7.224  0.3799 -0.0985  0.0439
  761POPS   CNO11613  11.780  16.157   5.652 -0.0095 -0.0944  0.0414
  761POPS   PO411614  11.823  16.558   5.776  0.1017 -0.0307  0.1869
  761POPS   GL111615  11.803  16.689   6.216 -0.0543 -0.2067  0.0491
  761POPS   GL211616  11.987  16.948   6.279 -0.2033 -0.1023  0.1002
  761POPS   C1A11617  11.705  16.643   6.565  0.0655  0.1586 -0.1148
  761POPS   D2A11618  12.017  16.605   6.706 -0.1762  0.0221 -0.1601
  761POPS   C3A11619  12.195  16.296   7.050  0.0794 -0.2210 -0.4176
  761POPS   C4A11620  12.249  16.029   7.304 -0.1443  0.1594  0.1597
  761POPS   C1B11621  12.353  16.538   6.365 -0.3053  0.1717  0.0497
  761POPS   C2B11622  12.464  16.284   6.599 -0.1653 -0.0356 -0.2241
  761POPS   C3B11623  12.764  15.952   6.676  0.4381 -0.4308 -0.0197
  761POPS   C4B11624  12.629  15.624   6.377 -0.4411  0.1742 -0.0560
  762POPS   CNO11625   2.738  17.452   5.349  0.1331 -0.1360 -0.2690
  762POPS   PO411626   2.320  17.487   5.441  0.0562  0.0004  0.1392
  762POPS   GL111627   2.396  17.856   5.554 -0.0930 -0.1639  0.3103
  762POPS   GL211628   2.765  17.873   5.654 -0.0489 -0.1686  0.3451
  762POPS   C1A11629   2.241  18.159   5.838  0.2191 -0.3236 -0.2192
  762POPS   D2A11630   2.299  18.378   6.228  0.0218 -0.0156 -0.1281
  762POPS   C3A11631   2.051  18.400   6.567  0.1240  0.2902  0.1665
  762POPS   C4A11632   1.960  18.056   6.875 -0.2255  0.0064  0.2244
  762POPS   C1B11633   2.919  17.533   5.875 -0.0692 -0.0696  0.0033
  762POPS   C2B11634   2.886  17.357   6.225  0.3281 -0.1909 -0.3141
  762POPS   C3B11635   2.903  17.464   6.508 -0.5238  0.0822 -0.0435
  762POPS   C4B11636   2.964  17.725   6.853 -0.1413  0.2215 -0.1110
  763POPS   CNO11637   8.984  14.614   5.728 -0.0119  0.1996 -0.1114
  763POPS   PO411638   9.066  15.035   5.790 -0.0395 -0.1265 -0.1087
  763POPS   GL111639   8.864  15.048   6.177 -0.2377  0.0431 -0.0328
  763POPS   GL211640   8.863  14.592   6.217 -0.3372 -0.1018  0.0070
  763POPS   C1A11641   8.762  15.169   6.585  0.0340  0.0228 -0.0193
  763POPS   D2A11642   8.519  15.221   6.967  0.3982  0.0207  0.1218
  763POPS   C3A11643   8.662  14.953   7.299  0.1535 -0.0870  0.2341
  763POPS   C4A11644   9.063  14.694   7.359 -0.4279 -0.1203 -0.2863
  763POPS   C1B11645   9.143  14.839   6.547  0.1898 -0.0864  0.2338
  763POPS   C2B11646   9.153  14.985   6.959 -0.0444  0.1748  0.1869
  763POPS   C3B11647   9.129  15.248   7.337 -0.0318 -0.0358  0.1775
  763POPS   C4B11648   9.039  15.555   7.650  0.2150  0.2431 -0.2496
  764POPS   CNO11649   7.369  14.798   5.442  0.0973 -0.0263 -0.1072
  764POPS   PO411650   7.608  15.181   5.426  0.2025 -0.0044 -0.0423
  764POPS   GL111651   7.419  15.051   5.884 -0.1008 -0.2105 -0.1068
  764POPS   GL211652   7.134  15.184   5.966  0.1389 -0.4658 -0.0160
  764POPS   C1A11653   7.659  14.826   6.067 -0.0567 -0.0309  0.0591
  764POPS   D2A11654   7.800  14.841   6.539 -0.0798 -0.4800  0.0742
  764POPS   C3A11655   8.012  15.101   6.725  0.1022 -0.3600 -0.1804
  764POPS   C4A11656   8.005  15.167   7.111  0.0191  0.2283  0.0084
  764POPS   C1B11657   6.953  15.356   6.316  0.0445  0.1647  0.1115
  764POPS   C2B11658   6.653  15.340   6.867  0.2852  0.0734  0.3177
  764POPS   C3B11659   6.303  15.458   7.240 -0.1106 -0.0151  0.1221
  764POPS   C4B11660   5.936  15.233   7.586 -0.0889  0.0662 -0.0072
  765POPS   CNO11661  11.874  11.861   5.426 -0.0854  0.5922  0.4678
  765POPS   PO411662  11.475  11.588   5.420 -0.5748 -0.0950  0.1615
  765POPS   GL111663  11.634  11.386   5.816 -0.1451  0.0550 -0.2685
  765POPS   GL211664  11.910  11.578   5.879 -0.0812  0.3023  0.2624
  765POPS   C1A11665  11.835  11.209   6.167  0.0883  0.0825 -0.0114
  765POPS   D2A11666  12.001  11.292   6.616 -0.3198  0.0773 -0.0495
  765POPS   C3A11667  11.947  11.511   6.871  0.1242  0.0557 -0.2129
  765POPS   C4A11668  11.950  11.525   7.263  0.5270 -0.0730  0.3065
  765POPS   C1B11669  11.870  11.688   6.313 -0.2544  0.0470 -0.1184
  765POPS   C2B11670  11.592  11.764   6.631  0.2248  0.0161  0.1537
  765POPS   C3B11671  11.557  11.846   7.042 -0.1633  0.2654  0.0754
  765POPS   C4B11672  11.281  11.893   7.449  0.2619 -0.0341  0.1158
  766POPS   CNO11673   8.463  15.543   5.184  0.2469  0.0481 -0.4972
  766POPS   PO411674   8.142  15.485   5.585 -0.1063 -0.1601  0.1887
  766POPS   GL111675   8.170  15.289   5.938  0.2136 -0.0136  0.1783
  766POPS   GL211676   8.105  15.571   6.106 -0.1703  0.2542 -0.1341
  766POPS   C1A11677   8.305  15.017   6.272 -0.1332 -0.5220  0.2946
  766POPS   D2A11678   8.449  14.734   6.499  0.0932  0.1311 -0.0423
  766POPS   C3A11679   8.648  14.773   6.811 -0.1869 -0.1312  0.1940
  766POPS   C4A11680   8.651  14.516   7.083 -0.2849 -0.0600  0.0324
  766POPS   C1B11681   7.819  15.292   6.267  0.3082 -0.0744  0.0591
  766POPS   C2B11682   7.457  15.174   6.393 -0.2731  0.1374  0.0184
  766POPS   C3B11683   7.365  15.015   6.847 -0.0430 -0.0589  0.2363
  766POPS   C4B11684   7.167  14.863   7.347 -0.0908  0.2984 -0.1340
  767POPS   CNO11685   3.854  16.894   5.177  0.0285 -0.1113  0.0511
  767POPS   PO411686   3.606  17.178   5.487 -0.0676  0.5458 -0.2471
  767POPS   GL111687   3.525  17.258   5.865 -0.1064  0.0969  0.0668
  767POPS   GL211688   3.257  17.219   5.849 -0.0776 -0.0093 -0.1495
  767POPS   C1A11689   3.887  17.309   6.178 -0.0570  0.1290  0.3922
  767POPS   D2A11690   4.182  17.614   6.457  0.1935 -0.0067  0.4480
  767POPS   C3A11691   4.329  18.051   6.445 -0.1370  0.0564 -0.1214
  767POPS   C4A11692   4.302  18.353   6.357  0.0296  0.0216 -0.1982
  767POPS   C1B11693   3.428  17.490   6.292 -0.1579 -0.3937 -0.2532
  767POPS   C2B11694   3.752  17.726   6.407  0.1310 -0.1375  0.2442
  767POPS   C3B11695   3.895  17.950   6.698  0.0690  0.0127 -0.1858
  767POPS   C4B11696   3.704  17.932   7.133 -0.0457 -0.1381 -0.0373
  768POPS   CNO11697   7.218   8.645   5.578  0.1774 -0.2958 -0.0620
  768POPS   PO411698   7.413   8.944   5.742  0.3124 -0.0264  0.0615
  768POPS   GL111699   7.380   9.273   6.068  0.2176 -0.1632  0.0723
  768POPS   GL211700   7.309   9.590   6.155  0.6099  0.0239  0.0453
  768POPS   C1A11701   7.237   9.185   6.425 -0.0601  0.0442 -0.3801
  768POPS   D2A11702   6.955   8.869   6.663  0.1090 -0.0116  0.1808
  768POPS   C3A11703   6.711   8.963   6.974  0.1940  0.0762 -0.0760
  768POPS   C4A11704   6.384   9.111   7.197  0.1453  0.7376  0.2718
  768POPS   C1B11705   7.188   9.820   6.562 -0.1139 -0.1030  0.1432
  768POPS   C2B11706   6.896   9.811   6.945  0.0760  0.1342 -0.0339
  768POPS   C3B11707   6.682   9.947   7.415 -0.2227  0.1825 -0.0947
  768POPS   C4B11708   6.699   9.863   7.863  0.0904 -0.0414  0.0074
  769POPS   CNO11709  15.146  17.770   5.278 -0.0369 -0.1262  0.1890
  769POPS   PO411710  15.035  17.641   5.721 -0.1374 -0.1253 -0.0386
  769POPS   GL111711  14.817  17.607   6.054  0.0738  0.2016 -0.1098
  769POPS   GL211712  14.556  17.975   6.010 -0.0774 -0.0177  0.0302
  769POPS   C1A11713  14.789  17.343   6.330 -0.0076  0.1590  0.1241
  769POPS   D2A11714  14.650  17.415   6.691  0.0515 -0.0704  0.1381
  769POPS   C3A11715  14.709  17.244   7.097  0.0862  0.1069  0.3536
  769POPS   C4A11716  14.750  17.471   7.587 -0.1455 -0.1153  0.2943
  769POPS   C1B11717  14.403  17.929   6.506 -0.3406 -0.2523  0.1196
  769POPS   C2B11718  14.308  17.757   6.840 -0.0462 -0.0358  0.3602
  769POPS   C3B11719  14.295  17.734   7.360  0.1822  0.1544 -0.0429
  769POPS   C4B11720  14.034  18.069   7.645  0.0121  0.0759 -0.2122
  770POPS   CNO11721   8.038   3.987   6.342 -0.0269 -0.0677  0.2605
  770POPS   PO411722   8.266   3.626   6.326  0.0539  0.0945  0.2230
  770POPS   GL111723   8.191   3.819   6.736  0.0713  0.0621 -0.1817
  770POPS   GL211724   8.161   4.162   6.864 -0.3790  0.0724 -0.0695
  770POPS   C1A11725   8.480   3.782   7.163  0.0218 -0.1447 -0.1336
  770POPS   D2A11726   8.868   3.783   7.292 -0.0083  0.2003 -0.0213
  770POPS   C3A11727   9.062   3.975   7.693 -0.0828 -0.1083  0.1453
  770POPS   C4A11728   9.322   4.093   8.048 -0.3167 -0.1576  0.0475
  770POPS   C1B11729   8.034   3.984   7.252 -0.3227  0.0263  0.1373
  770POPS   C2B11730   7.979   4.247   7.644  0.2294  0.0761 -0.2743
  770POPS   C3B11731   7.747   4.526   7.749 -0.0538  0.0157 -0.3339
  770POPS   C4B11732   7.487   4.751   7.626 -0.0034  0.3149  0.1007
  771POPS   CNO11733  15.270   0.430   5.191 -0.1026 -0.1198  0.2128
  771POPS   PO411734  15.612   0.442   5.284  0.0028  0.4117  0.0090
  771POPS   GL111735  15.785   0.575   5.652 -0.0319  0.4046  0.0693
  771POPS   GL211736  15.877   0.878   5.847 -0.0474  0.1912  0.0357
  771POPS   C1A11737  15.935   0.402   6.049 -0.0292 -0.1251 -0.0512
  771POPS   D2A11738  15.773   0.237   6.406 -0.1657 -0.0466  0.2181
  771POPS   C3A11739  15.391   0.144   6.212  0.1448 -0.0012  0.2375
  771POPS   C4A11740  14.938   0.142   6.058  0.3553  0.3616 -0.3907
  771POPS   C1B11741  15.955   0.885   6.304  0.0004 -0.0193 -0.0360
  771POPS   C2B11742  16.353   1.026   6.408  0.2769 -0.1441  0.0694
  771POPS   C3B11743  16.639   1.350   6.261 -0.0175 -0.0231 -0.3180
  771POPS   C4B11744  16.864   1.736   6.442  0.1465  0.2103  0.1780
  772POPS   CNO11745  15.090   5.943   5.394  0.0136  0.1045  0.0066
  772POPS   PO411746  15.502   5.917   5.425  0.3260  0.1204 -0.0895
  772POPS   GL111747  15.640   5.694   5.819  0.3891  0.2059 -0.2179
  772POPS   GL211748  15.893   5.808   5.957 -0.0117 -0.1479 -0.1934
  772POPS   C1A11749  15.483   5.685   6.194  0.1138 -0.2109  0.3660
  772POPS   D2A11750  15.149   5.548   6.205 -0.1094  0.2174 -0.0188
  772POPS   C3A11751  14.941   5.309   6.517 -0.0242  0.1172  0.1490
  772POPS   C4A11752  14.927   5.184   6.860  0.1507 -0.2991 -0.1091
  772POPS   C1B11753  16.142   5.601   6.293  0.1437  0.2069  0.0986
  772POPS   C2B11754  16.372   5.796   6.630  0.0273  0.0891 -0.1271
  772POPS   C3B11755  16.417   6.071   7.073 -0.1643  0.0785  0.0305
  772POPS   C4B11756  16.107   6.247   7.457 -0.1761 -0.0909 -0.0070
  773POPS   CNO11757   0.318   5.788   5.095 -0.0755 -0.1797 -0.0580
  773POPS   PO411758   0.656   5.944   5.260  0.3457 -0.3129 -0.1460
  773POPS   GL111759   0.668   5.982   5.716  0.1760  0.2548  0.3500
  773POPS   GL211760   0.894   5.824   5.895 -0.2360 -0.0682 -0.1074
  773POPS   C1A11761   0.466   5.905   6.169  0.0585 -0.1943 -0.1101
  773POPS   D2A11762   0.484   5.826   6.476 -0.1139  0.0606  0.1650
  773POPS   C3A11763   0.777   5.689   6.749  0.2879  0.1615  0.2020
  773POPS   C4A11764   1.017   5.575   7.031 -0.3122 -0.0304  0.0625
  773POPS   C1B11765   0.823   5.568   6.178 -0.0330 -0.1697 -0.0661
  773POPS   C2B11766   0.598   5.341   6.380  0.1429 -0.2173 -0.0607
  773POPS   C3B11767   0.141   5.368   6.334 -0.0004 -0.1339 -0.2134
  773POPS   C4B11768  -0.060   5.648   6.115  0.0446  0.2003  0.4287
  774POPS   CNO11769  12.585  10.611   5.196 -0.1065  0.0756  0.0096
  774POPS   PO411770  12.222  10.879   5.376  0.0024  0.1433  0.0871
  774POPS   GL111771  12.364  10.675   5.747  0.1139 -0.1175  0.1894
  774POPS   GL211772  12.257  10.420   5.970  0.1693 -0.1758 -0.3888
  774POPS   C1A11773  12.678  10.844   6.039 -0.3272  0.2509 -0.0994
  774POPS   D2A11774  12.766  11.054   6.278  0.3222 -0.1178  0.3477
  774POPS   C3A11775  12.577  11.022   6.678 -0.1771  0.0956 -0.3660
  774POPS   C4A11776  12.326  11.279   7.068  0.0074 -0.0532  0.2460
  774POPS   C1B11777  12.441  10.563   6.478  0.1643  0.0820  0.0686
  774POPS   C2B11778  12.183  10.745   6.840  0.0078  0.1565  0.0271
  774POPS   C3B11779  12.194  10.580   7.286  0.1286 -0.1592  0.1790
  774POPS   C4B11780  12.277  10.619   7.604  0.1224 -0.0429 -0.0041
  775POPS   CNO11781   6.102   5.980   6.273 -0.0549  0.0637  0.0957
  775POPS   PO411782   6.323   6.320   6.051  0.1523  0.0552 -0.2090
  775POPS   GL111783   6.380   6.354   6.500  0.0797  0.1811  0.1428
  775POPS   GL211784   6.622   6.178   6.575  0.0374 -0.1165 -0.0390
  775POPS   C1A11785   6.399   6.352   7.004  0.2405 -0.2388 -0.0207
  775POPS   D2A11786   6.547   6.380   7.458  0.2679  0.1522  0.0367
  775POPS   C3A11787   6.437   6.247   7.814  0.0713  0.0850  0.0154
  775POPS   C4A11788   6.169   6.237   8.234 -0.0857 -0.0893 -0.1864
  775POPS   C1B11789   6.487   5.894   6.885 -0.4971  0.1301 -0.1645
  775POPS   C2B11790   6.469   5.907   7.338  0.4150  0.0108  0.1572
  775POPS   C3B11791   6.429   5.777   7.733  0.0302 -0.1193  0.0026
  775POPS   C4B11792   6.498   5.697   8.173  0.0232  0.0049  0.0323
  776POPS   CNO11793  14.599   6.207   5.475 -0.1423  0.2144  0.0532
  776POPS   PO411794  14.334   6.368   5.712  0.3021 -0.2247 -0.2333
  776POPS   GL111795  14.123   6.323   6.007  0.2000  0.3835 -0.2346
  776POPS   GL211796  13.956   6.066   6.115 -0.1195 -0.3267 -0.1095
  776POPS   C1A11797  14.234   6.520   6.404  0.0140 -0.1594 -0.0057
  776POPS   D2A11798  14.493   6.488   6.758 -0.0372  0.2469  0.1922
  776POPS   C3A11799  14.831   6.734   6.749 -0.1117 -0.0196 -0.0544
  776POPS   C4A11800  15.221   6.610   6.997  0.1894  0.0034 -0.0291
  776POPS   C1B11801  13.978   5.985   6.596 -0.1996 -0.1962  0.1576
  776POPS   C2B11802  13.970   6.227   6.986  0.0509 -0.1794  0.1444
  776POPS   C3B11803  14.245   6.541   7.309 -0.0170  0.2698 -0.1332
  776POPS   C4B11804  14.652   6.822   7.284 -0.1638  0.0729  0.1487
  777POPS   CNO11805  10.059  15.805   5.754  0.0606 -0.3562 -0.0142
  777POPS   PO411806   9.667  15.690   5.917 -0.0512  0.1267 -0.1634
  777POPS   GL111807   9.862  15.633   6.273  0.0930  0.1807 -0.0861
  777POPS   GL211808  10.107  15.747   6.249 -0.0281  0.1281  0.2828
  777POPS   C1A11809  10.108  15.325   6.640 -0.0289 -0.0914  0.0636
  777POPS   D2A11810  10.183  14.966   6.828 -0.0107 -0.1493 -0.1191
  777POPS   C3A11811  10.393  14.545   6.796  0.0796  0.1202  0.3605
  777POPS   C4A11812  10.551  14.213   6.819  0.1666  0.1402  0.1919
  777POPS   C1B11813  10.387  15.735   6.700  0.0816 -0.2869  0.2808
  777POPS   C2B11814  10.499  15.449   7.058 -0.3931  0.2069  0.1952
  777POPS   C3B11815  10.457  15.041   7.296  0.2944 -0.1163 -0.1260
  777POPS   C4B11816  10.128  14.652   7.241  0.0013 -0.3790 -0.0943
  778POPS   CNO11817   0.741   8.364   5.903  0.0136 -0.0704  0.0055
  778POPS   PO411818   0.475   8.063   5.682 -0.0873 -0.0352  0.2056
  778POPS   GL111819   0.188   8.298   5.956  0.0298 -0.0552  0.5611
  778POPS   GL211820   0.276   8.548   5.933 -0.0343 -0.2470  0.0937
  778POPS   C1A11821  -0.018   8.199   6.372  0.0555 -0.0075  0.1608
  778POPS   D2A11822  -0.008   8.186   6.737 -0.4024 -0.0203 -0.1826
  778POPS   C3A11823  -0.201   8.355   7.092  0.2050 -0.1832  0.0591
  778POPS   C4A11824  -0.473   8.587   7.271  0.3022 -0.1074 -0.0551
  778POPS   C1B11825   0.539   8.444   6.376 -0.0717  0.0528  0.1163
  778POPS   C2B11826   0.499   8.264   6.843  0.1400 -0.0712  0.2052
  778POPS   C3B11827   0.226   8.152   7.206 -0.0226  0.0091  0.1184
  778POPS   C4B11828  -0.124   8.082   7.504  0.1498  0.3010  0.0925
  779POPS   CNO11829  14.312   2.926   4.781  0.0139 -0.1146  0.0469
  779POPS   PO411830  14.096   3.090   5.208 -0.2562 -0.1088  0.1926
  779POPS   GL111831  14.096   2.872   5.698 -0.3084  0.2198  0.2148
  779POPS   GL211832  14.235   2.508   5.733 -0.3068  0.4075 -0.0228
  779POPS   C1A11833  14.255   2.845   6.115 -0.0073 -0.1268  0.5136
  779POPS   D2A11834  14.192   2.695   6.521  0.0297 -0.0704  0.2813
  779POPS   C3A11835  14.430   2.901   6.725 -0.2621  0.3081 -0.1551
  779POPS   C4A11836  14.648   3.315   6.785 -0.0707  0.1734  0.1035
  779POPS   C1B11837  14.293   2.187   6.044 -0.1787 -0.1102 -0.2538
  779POPS   C2B11838  14.366   2.166   6.527  0.0085  0.1999 -0.1826
  779POPS   C3B11839  14.528   2.365   6.730 -0.0920  0.3738  0.1660
  779POPS   C4B11840  14.614   2.565   7.083 -0.0983  0.0406  0.0617
  780POPS   CNO11841   2.053  15.682   5.405 -0.0784  0.0610  0.2017
  780POPS   PO411842   1.721  15.674   5.760  0.1838  0.0767 -0.4447
  780POPS   GL111843   1.613  15.420   6.001  0.1028 -0.2297 -0.1999
  780POPS   GL211844   1.335  15.361   6.014 -0.3582  0.2397  0.0163
  780POPS   C1A11845   1.730  15.141   6.399  0.1608  0.2625 -0.1015
  780POPS   D2A11846   1.475  14.946   6.676  0.0898  0.0599 -0.1836
  780POPS   C3A11847   1.245  15.249   6.906  0.4201  0.4350  0.1009
  780POPS   C4A11848   0.813  15.350   7.053 -0.3210  0.0375  0.3936
  780POPS   C1B11849   1.152  15.167   6.392 -0.1700  0.2621 -0.1820
  780POPS   C2B11850   0.780  15.123   6.569  0.1601 -0.1156  0.3101
  780POPS   C3B11851   0.409  14.840   6.645  0.2549 -0.2611 -0.0573
  780POPS   C4B11852   0.100  14.873   6.482  0.0331 -0.0528  0.1904
  781POPS   CNO11853  15.506  13.898   5.035 -0.3005  0.1561 -0.1815
  781POPS   PO411854  15.700  13.606   5.381 -0.0223 -0.1139 -0.1064
  781POPS   GL111855  15.759  13.837   5.673  0.0071  0.1111  0.0001
  781POPS   GL211856  16.001  13.776   5.874  0.0182 -0.1957  0.1278
  781POPS   C1A11857  15.636  14.094   5.956  0.2931  0.0638  0.0957
  781POPS   D2A11858  15.548  14.492   6.042  0.1589  0.1584  0.3456
  781POPS   C3A11859  15.333  14.446   6.450 -0.0291 -0.0353  0.2459
  781POPS   C4A11860  15.104  14.670   6.753  0.2254  0.1716  0.0839
  781POPS   C1B11861  15.813  13.708   6.319 -0.0030  0.1385  0.1253
  781POPS   C2B11862  15.976  13.566   6.724 -0.1281 -0.3317  0.1727
  781POPS   C3B11863  15.832  13.702   7.162 -0.2539  0.1057  0.1177
  781POPS   C4B11864  16.013  14.097   7.354 -0.0140  0.1645 -0.4868
  782POPS   CNO11865  17.527   3.198   4.877  0.3520 -0.0013 -0.1307
  782POPS   PO411866  17.351   2.964   5.323  0.4938 -0.2792 -0.0791
  782POPS   GL111867  17.257   2.884   5.706 -0.2361 -0.1034 -0.1418
  782POPS   GL211868  16.914   2.818   5.824  0.2913 -0.1940 -0.1234
  782POPS   C1A11869  17.072   3.187   6.095  0.1294 -0.1003 -0.1909
  782POPS   D2A11870  16.936   3.291   6.486 -0.2148  0.2609  0.2907
  782POPS   C3A11871  17.143   3.486   6.744  0.0308  0.1866  0.0311
  782POPS   C4A11872  17.383   3.409   7.126 -0.1924  0.3514  0.0515
  782POPS   C1B11873  17.073   2.695   6.288  0.0353  0.2390 -0.1820
  782POPS   C2B11874  17.484   2.618   6.550  0.0479 -0.1817 -0.0347
  782POPS   C3B11875  17.621   2.427   6.887  0.4325 -0.1809 -0.0526
  782POPS   C4B11876  17.587   2.407   7.324 -0.0628  0.0022 -0.2576
  783POPS   CNO11877   5.054  15.501   5.153  0.0058 -0.0836  0.0376
  783POPS   PO411878   5.435  15.362   5.262  0.3645 -0.1450 -0.1682
  783POPS   GL111879   5.191  15.583   5.641  0.1856 -0.1203  0.0500
  783POPS   GL211880   5.551  15.557   5.830  0.0931 -0.1673 -0.2695
  783POPS   C1A11881   5.282  15.992   5.971 -0.1819 -0.0326 -0.1566
  783POPS   D2A11882   5.519  16.059   6.320  0.1633  0.2651 -0.2462
  783POPS   C3A11883   5.476  16.394   6.601 -0.0954  0.0979  0.2850
  783POPS   C4A11884   5.670  16.374   6.979  0.1979  0.0072 -0.1725
  783POPS   C1B11885   5.377  15.487   6.229 -0.0884 -0.0775 -0.0243
  783POPS   C2B11886   5.197  15.276   6.519  0.1506  0.5478  0.0939
  783POPS   C3B11887   4.875  15.110   6.597  0.3785 -0.1448  0.0735
  783POPS   C4B11888   4.868  14.829   6.966 -0.0549 -0.0528 -0.0151
  784POPS   CNO11889  16.549   2.649   4.889 -0.1578  0.0326 -0.4041
  784POPS   PO411890  16.633   2.522   5.309 -0.0880 -0.2731  0.0694
  784POPS   GL111891  16.439   2.630   5.790 -0.1302  0.0422  0.0193
  784POPS   GL211892  16.470   3.035   5.820  0.1490  0.1397 -0.0341
  784POPS   C1A11893  16.320   2.561   6.179 -0.2931  0.2047 -0.1432
  784POPS   D2A11894  16.279   2.681   6.657 -0.1293  0.1543 -0.1633
  784POPS   C3A11895  16.038   2.697   7.173 -0.0260  0.0080 -0.0799
  784POPS   C4A11896  15.681   2.645   7.490 -0.2634 -0.0051  0.1255
  784POPS   C1B11897  16.631   2.920   6.268  0.0447 -0.0367 -0.1037
  784POPS   C2B11898  16.764   2.783   6.648 -0.2465  0.0478 -0.1040
  784POPS   C3B11899  16.862   2.463   6.857  0.2132  0.1729  0.2617
  784POPS   C4B11900  16.861   1.996   6.875  0.1743  0.2977 -0.0118
  785POPS   CNO11901   8.188  12.016   5.551 -0.3645 -0.1454 -0.1945
  785POPS   PO411902   8.515  12.232   5.370 -0.3588  0.0760 -0.1397
  785POPS   GL111903   8.640  12.446   5.739  0.0079 -0.2196 -0.0368
  785POPS   GL211904   8.739  12.665   5.729 -0.1340 -0.3114 -0.0673
  785POPS   C1A11905   8.809  12.385   6.149  0.1025  0.0773 -0.1425
  785POPS   D2A11906   8.874  12.298   6.572  0.0461 -0.0752 -0.1280
  785POPS   C3A11907   9.123  12.060   6.655  0.0558 -0.0486  0.3050
  785POPS   C4A11908   9.273  11.664   6.483 -0.0591  0.1932  0.0096
  785POPS   C1B11909   8.828  13.075   5.945 -0.2202  0.4482  0.0526
  785POPS   C2B11910   8.869  13.286   6.303 -0.2160 -0.0752  0.0083
  785POPS   C3B11911   8.751  13.388   6.814  0.1577 -0.2289 -0.2715
  785POPS   C4B11912   8.782  13.084   7.176 -0.1832  0.0099  0.0537
  786POPS   CNO11913  18.421   5.478   5.775  0.0894  0.0206  0.3288
  786POPS   PO411914  18.105   5.783   5.707 -0.0456  0.2316 -0.0665
  786POPS   GL111915  17.963   5.483   6.036 -0.3905 -0.1140 -0.2162
  786POPS   GL211916  17.658   5.383   6.031 -0.1530 -0.3108  0.1784
  786POPS   C1A11917  17.858   5.451   6.522 -0.0153  0.0396  0.1705
  786POPS   D2A11918  17.895   5.283   6.963 -0.0953  0.2902 -0.1919
  786POPS   C3A11919  17.640   5.505   7.297  0.3674 -0.1122  0.1854
  786POPS   C4A11920  17.443   5.239   7.614  0.0736  0.2848 -0.0390
  786POPS   C1B11921  17.383   5.537   6.412  0.1122 -0.1515 -0.1524
  786POPS   C2B11922  17.175   5.526   6.795 -0.1382 -0.0663  0.2022
  786POPS   C3B11923  17.182   5.390   7.199 -0.1273 -0.2468 -0.1033
  786POPS   C4B11924  17.121   5.008   7.354 -0.3326 -0.0796 -0.1709
  787POPS   CNO11925   6.478   1.011   5.656  0.0436  0.0509 -0.0007
  787POPS   PO411926   6.791   1.275   5.851  0.2725 -0.1658 -0.2220
  787POPS   GL111927   6.945   1.296   6.216 -0.0376 -0.1880 -0.1472
  787POPS   GL211928   6.714   1.593   6.275 -0.1021  0.2099  0.1136
  787POPS   C1A11929   7.112   1.113   6.573  0.1462  0.1393  0.2077
  787POPS   D2A11930   7.327   0.759   6.735  0.3113 -0.1658 -0.3267
  787POPS   C3A11931   7.563   0.722   7.013 -0.3146  0.0993  0.0522
  787POPS   C4A11932   7.504   0.805   7.350 -0.0014  0.0210 -0.1120
  787POPS   C1B11933   6.603   1.150   6.559  0.1296 -0.1573  0.1288
  787POPS   C2B11934   6.686   1.181   6.971  0.1650  0.3226  0.2873
  787POPS   C3B11935   6.420   1.228   7.315  0.4647  0.3083 -0.0065
  787POPS   C4B11936   5.947   1.382   7.459  0.3639  0.1226  0.2643
  788POPS   CNO11937  16.060  15.250   5.165  0.1553 -0.1784  0.1135
  788POPS   PO411938  16.478  15.085   5.378 -0.0943 -0.3333 -0.1158
  788POPS   GL111939  16.271  15.182   5.691 -0.1977  0.1086 -0.0700
  788POPS   GL211940  15.941  14.958   5.638  0.0225  0.5144  0.2459
  788POPS   C1A11941  16.456  15.191   6.045  0.1239  0.0165 -0.0833
  788POPS   D2A11942  16.620  15.260   6.442 -0.0780 -0.1072 -0.0161
  788POPS   C3A11943  16.770  15.560   6.789 -0.0219  0.3946 -0.3884
  788POPS   C4A11944  16.682  16.029   7.015  0.0521 -0.2687 -0.1283
  788POPS   C1B11945  15.915  14.850   6.100  0.4069  0.0740 -0.0285
  788POPS   C2B11946  16.158  15.016   6.571  0.4194 -0.0352  0.1045
  788POPS   C3B11947  16.408  15.177   6.982 -0.1831 -0.1104  0.3483
  788POPS   C4B11948  16.545  15.226   7.526  0.0826  0.0466 -0.0904
  789POPS   CNO11949   8.889   6.509   5.861 -0.3602  0.2850  0.0496
  789POPS   PO411950   8.645   6.613   6.191 -0.1804 -0.0588 -0.0432
  789POPS   GL111951   8.959   6.555   6.499  0.0704  0.0086  0.0620
  789POPS   GL211952   9.163   6.685   6.268  0.0144  0.4678 -0.0450
  789POPS   C1A11953   9.147   6.548   6.891  0.0354  0.0388  0.2508
  789POPS   D2A11954   9.305   6.770   7.291  0.0312  0.1973 -0.0067
  789POPS   C3A11955   9.199   7.110   7.570  0.1290  0.6076  0.0796
  789POPS   C4A11956   8.997   7.237   8.024 -0.0705 -0.1682 -0.0830
  789POPS   C1B11957   9.489   6.701   6.538  0.2164  0.1394  0.0266
  789POPS   C2B11958   9.668   6.602   6.915 -0.1385  0.0622 -0.0300
  789POPS   C3B11959   9.688   6.469   7.410 -0.4615 -0.4507  0.0024
  789POPS   C4B11960   9.672   6.194   7.694  0.0045 -0.0265 -0.0907
  790POPS   CNO11961  17.606  16.239   5.353  0.0624 -0.3102 -0.1031
  790POPS   PO411962  17.180  16.094   5.436  0.1812  0.0020  0.0949
  790POPS   GL111963  17.275  16.318   5.745 -0.0849 -0.2875 -0.0604
  790POPS   GL211964  17.305  16.576   5.761 -0.2672 -0.0411  0.3309
  790POPS   C1A11965  16.985  16.406   6.133  0.0343 -0.0787  0.0111
  790POPS   D2A11966  17.141  16.424   6.491 -0.0711  0.0396  0.0880
  790POPS   C3A11967  16.984  16.471   6.868 -0.0390  0.1691  0.0816
  790POPS   C4A11968  16.810  16.404   7.219 -0.1237 -0.2774 -0.3097
  790POPS   C1B11969  17.475  16.692   6.176  0.2407  0.0533  0.0219
  790POPS   C2B11970  17.673  16.398   6.495  0.3952 -0.0327 -0.0856
  790POPS   C3B11971  17.534  16.361   6.775 -0.1092 -0.0526  0.0710
  790POPS   C4B11972  17.661  16.443   7.261  0.0682  0.4234 -0.2858
  791POPS   CNO11973  14.064  11.274   5.384  0.3273  0.1371 -0.0873
  791POPS   PO411974  14.044  10.844   5.423  0.3303 -0.0684 -0.0893
  791POPS   GL111975  14.109  10.683   5.781  0.1945  0.3465  0.0033
  791POPS   GL211976  13.660  10.592   5.794  0.4947  0.5703  0.2101
  791POPS   C1A11977  13.935  10.426   6.225  0.2903 -0.0437 -0.1108
  791POPS   D2A11978  13.532  10.064   6.226  0.0190  0.0170  0.0572
  791POPS   C3A11979  13.346   9.861   6.548  0.1206  0.0146 -0.0658
  791POPS   C4A11980  13.066   9.493   6.722 -0.1441  0.1504 -0.3943
  791POPS   C1B11981  13.456  10.515   6.139 -0.0094 -0.0081  0.0178
  791POPS   C2B11982  13.558  10.733   6.459 -0.1532 -0.1129  0.0154
  791POPS   C3B11983  14.021  10.751   6.650  0.1971 -0.0523 -0.0877
  791POPS   C4B11984  14.171  10.991   7.016 -0.1833  0.1059 -0.3045
  792POPS   CNO11985  14.161   4.943   5.068 -0.1516 -0.2046  0.1094
  792POPS   PO411986  14.009   4.715   5.416  0.1278  0.0952 -0.0769
  792POPS   GL111987  14.153   4.740   5.826  0.1597 -0.3273 -0.0565
  792POPS   GL211988  14.442   4.632   5.877  0.0862  0.1530  0.0028
  792POPS   C1A11989  14.258   4.790   6.291 -0.1045  0.3258  0.1368
  792POPS   D2A11990  14.207   4.943   6.741 -0.0514  0.0026 -0.2966
  792POPS   C3A11991  13.924   4.823   7.140  0.1535 -0.0811  0.2399
  792POPS   C4A11992  13.578   4.800   7.239  0.1968 -0.1888  0.2088
  792POPS   C1B11993  14.592   4.450   6.211  0.1963  0.1288 -0.4480
  792POPS   C2B11994  14.475   4.262   6.520 -0.2808 -0.0404  0.3115
  792POPS   C3B11995  14.622   4.155   6.830  0.0046 -0.1670 -0.0340
  792POPS   C4B11996  14.842   4.146   7.275 -0.2464 -0.2085  0.0893
  793POPS   CNO11997   1.352  11.013   5.424  0.1206  0.0814  0.1204
  793POPS   PO411998   0.911  11.036   5.425 -0.2035 -0.0954 -0.1187
  793POPS   GL111999   0.666  10.915   5.747 -0.0435 -0.1203 -0.2349
  793POPS   GL212000   0.310  10.968   5.803 -0.3480 -0.0376  0.0946
  793POPS   C1A12001   0.695  10.606   6.096 -0.2701  0.1141 -0.1228
  793POPS   D2A12002   0.634  10.335   6.401 -0.1700 -0.1773 -0.1973
  793POPS   C3A12003   0.516  10.009   6.367 -0.3418  0.2938  0.0266
  793POPS   C4A12004   0.483   9.611   6.546  0.1859  0.3043  0.0885
  793POPS   C1B12005   0.308  10.859   6.228  0.1347 -0.2068  0.3796
  793POPS   C2B12006   0.145  10.647   6.545 -0.0978  0.0725 -0.1156
  793POPS   C3B12007   0.036  10.788   6.910  0.2033  0.0379 -0.2120
  793POPS   C4B12008  -0.042  11.037   7.219  0.2600 -0.2282 -0.0146
  794POPS   CNO12009  10.739   5.875   5.529 -0.0701  0.1738  0.1453
  794POPS   PO412010  10.765   6.195   5.847  0.0329 -0.1535 -0.2237
  794POPS   GL112011  10.850   6.032   6.181  0.0869  0.0910 -0.0547
  794POPS   GL212012  10.589   6.018   6.336  0.1045  0.0957  0.2738
  794POPS   C1A12013  11.092   6.083   6.496 -0.0485 -0.0429  0.2691
  794POPS   D2A12014  11.517   6.260   6.538 -0.1717 -0.1465  0.0751
  794POPS   C3A12015  11.628   6.343   6.896 -0.0466 -0.1457 -0.1982
  794POPS   C4A12016  11.966   6.299   7.168  0.1654 -0.1513  0.0748
  794POPS   C1B12017  10.531   5.881   6.767  0.0724 -0.1837 -0.2510
  794POPS   C2B12018  10.419   5.834   7.203  0.0060  0.0462  0.1891
  794POPS   C3B12019  10.391   5.891   7.689  0.0736  0.0748 -0.6035
  794POPS   C4B12020  10.142   6.061   7.934  0.1890 -0.2457  0.2323
  795POPS   CNO12021  18.674   9.818   5.221 -0.2658  0.0280  0.2307
  795POPS   PO412022  18.358   9.515   5.371 -0.0188  0.1419 -0.0522
  795POPS   GL112023  18.373   9.374   5.708  0.0856  0.1425 -0.2092
  795POPS   GL212024  18.343   9.032   5.544  0.4100  0.2784  0.1361
  795POPS   C1A12025  18.537   9.423   6.116  0.5416 -0.0651  0.2943
  795POPS   D2A12026  18.499   9.190   6.432  0.2423  0.3510 -0.1525
  795POPS   C3A12027  18.281   9.419   6.822  0.0165  0.0339  0.2796
  795POPS   C4A12028  18.468   9.513   7.251  0.2601  0.1641 -0.4237
  795POPS   C1B12029  18.275   8.982   6.033  0.0465 -0.1772 -0.0580
  795POPS   C2B12030  18.002   9.276   6.236 -0.0076 -0.2219  0.0475
  795POPS   C3B12031  17.814   9.667   6.439  0.0446  0.1849 -0.0107
  795POPS   C4B12032  17.723  10.052   6.239 -0.0484 -0.4419 -0.0272
  796POPS   CNO12033  13.524   7.448   5.297  0.0704 -0.3475 -0.0520
  796POPS   PO412034  13.917   7.271   5.457  0.3580  0.0883  0.0717
  796POPS   GL112035  13.761   7.281   5.902 -0.1379 -0.4153  0.0681
  796POPS   GL212036  13.839   7.630   5.975  0.1536 -0.1161  0.2830
  796POPS   C1A12037  13.550   7.287   6.271 -0.1079  0.0635  0.0859
  796POPS   D2A12038  13.505   7.178   6.728  0.0545  0.2747 -0.2348
  796POPS   C3A12039  13.585   6.982   7.088  0.1522  0.2751 -0.1456
  796POPS   C4A12040  13.673   6.672   7.221 -0.3190 -0.4365 -0.1701
  796POPS   C1B12041  14.053   7.402   6.333 -0.2195 -0.0210  0.2692
  796POPS   C2B12042  14.046   7.418   6.838 -0.1278  0.2382  0.2245
  796POPS   C3B12043  14.350   7.494   7.099  0.0168  0.0736 -0.1148
  796POPS   C4B12044  14.649   7.682   7.355  0.1982 -0.5440  0.0809
  797POPS   CNO12045  10.324  10.440   5.556  0.1006  0.3262  0.1702
  797POPS   PO412046  10.528  10.120   5.548  0.1806  0.0997  0.3534
  797POPS   GL112047  10.531  10.156   5.962 -0.0985  0.0505 -0.1531
  797POPS   GL212048  10.852  10.121   6.201 -0.3529 -0.2084 -0.0030
  797POPS   C1A12049  10.406  10.193   6.335  0.3980 -0.0146 -0.1652
  797POPS   D2A12050  10.268  10.178   6.771 -0.1273 -0.1362 -0.1400
  797POPS   C3A12051  10.351   9.972   7.200  0.1908  0.0320 -0.0852
  797POPS   C4A12052  10.076  10.081   7.639 -0.3935  0.5683  0.2428
  797POPS   C1B12053  10.816  10.221   6.618 -0.2683  0.0220  0.1808
  797POPS   C2B12054  10.755  10.302   7.043 -0.0908 -0.1462  0.1644
  797POPS   C3B12055  11.037  10.427   7.380 -0.0551 -0.1164 -0.0999
  797POPS   C4B12056  11.424  10.425   7.406  0.1212  0.3120  0.1937
  798POPS   CNO12057   2.220  16.935   5.621  0.0047 -0.1587 -0.2427
  798POPS   PO412058   1.998  16.536   5.612  0.0894  0.0472 -0.3553
  798POPS   GL112059   1.835  16.596   5.867  0.2465 -0.0803 -0.0034
  798POPS   GL212060   1.751  17.001   5.850  0.1885 -0.1534 -0.0542
  798POPS   C1A12061   1.863  16.673   6.253 -0.1619 -0.1095  0.0870
  798POPS   D2A12062   2.003  16.424   6.599 -0.1665 -0.1249 -0.2637
  798POPS   C3A12063   2.100  16.447   7.032  0.1839 -0.2925  0.3489
  798POPS   C4A12064   2.303  16.657   7.454 -0.0128 -0.1443  0.0718
  798POPS   C1B12065   1.862  17.156   6.311 -0.2403  0.0666 -0.2180
  798POPS   C2B12066   1.934  17.104   6.733 -0.0888  0.0458 -0.0462
  798POPS   C3B12067   1.635  17.274   7.027 -0.5673 -0.2441  0.1500
  798POPS   C4B12068   1.181  17.298   6.993 -0.0236 -0.2321  0.2869
  799POPS   CNO12069  10.131   3.059   6.020 -0.0376  0.0378 -0.0456
  799POPS   PO412070  10.058   3.458   5.974 -0.1526 -0.0929 -0.0428
  799POPS   GL112071  10.011   3.752   6.281  0.0690  0.2137 -0.1801
  799POPS   GL212072   9.708   3.750   6.370  0.1941  0.0239  0.0097
  799POPS   C1A12073   9.853   4.054   6.753 -0.1908  0.1669  0.1559
  799POPS   D2A12074   9.864   3.892   7.225  0.1715 -0.1280 -0.1077
  799POPS   C3A12075  10.224   3.867   7.498  0.1511 -0.0519  0.2877
  799POPS   C4A12076  10.535   3.654   7.547 -0.0304  0.2479 -0.0934
  799POPS   C1B12077   9.604   3.672   6.775 -0.0243  0.3393 -0.0209
  799POPS   C2B12078   9.291   3.620   7.054 -0.0410  0.1931  0.1023
  799POPS   C3B12079   9.277   3.545   7.473 -0.1798  0.0664 -0.2112
  799POPS   C4B12080   9.378   3.596   7.983 -0.2662  0.0905  0.0569
  800POPS   CNO12081  17.216  13.654   5.413  0.2285 -0.1441  0.3886
  800POPS   PO412082  16.758  13.469   5.455  0.0077  0.2708  0.1133
  800POPS   GL112083  16.526  13.519   5.894 -0.0631 -0.0510 -0.0742
  800POPS   GL212084  16.491  13.859   6.049  0.0033 -0.1667  0.2211
  800POPS   C1A12085  16.350  13.443   6.238 -0.2299 -0.0926  0.0236
  800POPS   D2A12086  16.351  13.219   6.572 -0.2454 -0.2281 -0.1018
  800POPS   C3A12087  16.168  13.249   7.110  0.1964 -0.4234 -0.0890
  800POPS   C4A12088  16.360  12.884   7.317 -0.7233  0.0367 -0.3741
  800POPS   C1B12089  16.720  13.734   6.544 -0.0828  0.4643 -0.1923
  800POPS   C2B12090  16.601  13.528   6.966  0.0134 -0.4225 -0.1634
  800POPS   C3B12091  16.760  13.118   7.101 -0.0329  0.0826 -0.1313
  800POPS   C4B12092  16.989  12.902   7.451 -0.1605 -0.2955  0.0208
  801POPS   CNO12093  17.804  11.744   4.776  0.2911  0.0913  0.1912
  801POPS   PO412094  18.000  11.452   5.058 -0.3581 -0.0382 -0.1292
  801POPS   GL112095  17.725  11.462   5.365  0.2694  0.0450 -0.1313
  801POPS   GL212096  17.908  11.280   5.649  0.0685  0.0852  0.2652
  801POPS   C1A12097  17.539  11.564   5.823  0.2593  0.0738  0.1219
  801POPS   D2A12098  17.097  11.466   6.045  0.2443  0.0791 -0.0387
  801POPS   C3A12099  16.722  11.275   6.083 -0.1068  0.1011  0.3792
  801POPS   C4A12100  16.494  10.962   6.332  0.2609  0.1006  0.2534
  801POPS   C1B12101  18.047  11.065   5.928 -0.2242 -0.2759  0.3518
  801POPS   C2B12102  18.243  10.812   6.145  0.3097  0.0907  0.0477
  801POPS   C3B12103  18.518  10.633   6.411  0.3357  0.1931 -0.0374
  801POPS   C4B12104  18.509  10.430   6.757  0.1032  0.4402  0.2520
  802POPS   CNO12105   0.793  17.793   4.966 -0.0793  0.0225  0.0350
  802POPS   PO412106   0.633  17.579   5.377  0.1934 -0.2647  0.2065
  802POPS   GL112107   0.704  17.719   5.849  0.1293 -0.1109 -0.0646
  802POPS   GL212108   0.764  18.018   6.013  0.0456 -0.2143 -0.0169
  802POPS   C1A12109   0.615  17.566   6.249 -0.1489  0.2585 -0.0807
  802POPS   D2A12110   0.697  17.561   6.631 -0.1768 -0.2730  0.0009
  802POPS   C3A12111   0.653  17.342   6.911  0.1268 -0.1803  0.1953
  802POPS   C4A12112   0.518  17.377   7.327 -0.1046  0.0555 -0.0228
  802POPS   C1B12113   0.785  18.016   6.381  0.2354  0.1413  0.2613
  802POPS   C2B12114   0.820  18.118   6.821 -0.0148 -0.2495  0.2832
  802POPS   C3B12115   0.558  18.200   7.174 -0.0853  0.1273 -0.1968
  802POPS   C4B12116   0.371  18.493   7.505  0.0688 -0.3392 -0.0451
  803POPS   CNO12117   9.087   0.213   5.534  0.1040 -0.1319 -0.0935
  803POPS   PO412118   9.064   0.455   5.990 -0.2428  0.1109 -0.0250
  803POPS   GL112119   9.371   0.703   6.272 -0.0141 -0.0065 -0.1282
  803POPS   GL212120   9.237   0.963   6.508 -0.0308 -0.0439 -0.1641
  803POPS   C1A12121   9.716   0.966   6.533  0.0170  0.1047 -0.2258
  803POPS   D2A12122   9.807   1.057   6.999 -0.1002  0.0881  0.0941
  803POPS   C3A12123   9.827   0.845   7.261  0.0800  0.3745  0.1326
  803POPS   C4A12124   9.725   0.906   7.644 -0.1265 -0.1433 -0.0285
  803POPS   C1B12125   9.258   1.042   6.890 -0.0213 -0.2619 -0.1115
  803POPS   C2B12126   9.329   1.072   7.224 -0.0190  0.1064 -0.3234
  803POPS   C3B12127   9.334   1.229   7.733  0.3351 -0.2659  0.0196
  803POPS   C4B12128   9.337   1.724   7.774  0.1365 -0.1492  0.0864
  804POPS   CNO12129  15.828  15.571   5.467 -0.3699 -0.1431 -0.3893
  804POPS   PO412130  16.078  15.833   5.263  0.1573 -0.0924 -0.1320
  804POPS   GL112131  16.187  15.951   5.705  0.1568  0.1774  0.0449
  804POPS   GL212132  16.176  15.630   5.907  0.0353  0.1654  0.1922
  804POPS   C1A12133  16.572  16.024   5.920 -0.1081 -0.0538  0.2308
  804POPS   D2A12134  16.807  15.680   6.097 -0.0841 -0.1329 -0.1537
  804POPS   C3A12135  17.173  15.919   6.067  0.2084  0.3618 -0.0864
  804POPS   C4A12136  17.550  16.108   6.106 -0.3559 -0.2847  0.3304
  804POPS   C1B12137  16.282  15.689   6.363  0.2481  0.1192  0.0012
  804POPS   C2B12138  16.270  15.649   6.816  0.0643  0.0396 -0.1752
  804POPS   C3B12139  16.179  15.573   7.259  0.1376  0.3327  0.2728
  804POPS   C4B12140  15.781  15.576   7.420 -0.2133 -0.0005 -0.0644
  805POPS   CNO12141  11.392  13.894   5.376  0.1102  0.3913  0.2098
  805POPS   PO412142  11.445  13.434   5.295 -0.1520 -0.3039 -0.2135
  805POPS   GL112143  11.516  13.590   5.731  0.2442 -0.1300 -0.0571
  805POPS   GL212144  11.193  13.604   5.741  0.2882  0.3084 -0.0596
  805POPS   C1A12145  11.541  13.533   6.153 -0.0269 -0.0387  0.0060
  805POPS   D2A12146  11.382  13.795   6.485  0.1987  0.0720 -0.1835
  805POPS   C3A12147  11.362  13.605   6.932 -0.0868 -0.3348  0.0984
  805POPS   C4A12148  11.373  13.929   7.298  0.0028  0.1362 -0.2955
  805POPS   C1B12149  11.029  13.577   6.180  0.4289  0.0097  0.1109
  805POPS   C2B12150  11.027  13.487   6.591 -0.2380  0.1626  0.1837
  805POPS   C3B12151  11.005  13.261   6.910  0.3573  0.0868  0.1004
  805POPS   C4B12152  11.120  12.949   7.074  0.3300  0.0686 -0.2300
  806YOPS   CNO12153   3.273   1.208   4.768  0.1105  0.1560 -0.1968
  806YOPS   PO412154   3.563   1.153   5.079 -0.2037  0.1820  0.1693
  806YOPS   GL112155   3.428   1.300   5.538  0.0755  0.0497  0.3790
  806YOPS   GL212156   3.166   1.603   5.508  0.1705 -0.1823  0.1151
  806YOPS   C1A12157   3.319   1.081   5.920 -0.0570 -0.1875 -0.0775
  806YOPS   D2A12158   3.203   0.904   6.359 -0.1424 -0.2194 -0.3017
  806YOPS   C3A12159   3.187   0.678   6.775 -0.1427 -0.2329 -0.0340
  806YOPS   C4A12160   3.399   0.729   7.206 -0.3395  0.1892 -0.0364
  806YOPS   C1B12161   3.198   1.526   5.941  0.1103  0.1043  0.3160
  806YOPS   C2B12162   3.356   1.374   6.344 -0.3077  0.0727  0.0865
  806YOPS   D3B12163   3.236   1.213   6.693 -0.1156  0.1453 -0.4832
  806YOPS   C4B12164   2.960   1.373   6.935  0.2224 -0.0375  0.0973
  807YOPS   CNO12165   6.417   4.335   5.773  0.0072  0.2538  0.2383
  807YOPS   PO412166   6.734   4.459   6.149  0.2604 -0.1410 -0.1578
  807YOPS   GL112167   6.550   4.454   6.586  0.1080 -0.2383 -0.2533
  807YOPS   GL212168   6.215   4.415   6.608  0.2428 -0.2346 -0.1783
  807YOPS   C1A12169   6.584   4.139   6.901 -0.0197  0.3781  0.4684
  807YOPS   D2A12170   6.531   4.171   7.252  0.0482  0.2883  0.2113
  807YOPS   C3A12171   6.557   4.001   7.692 -0.4878 -0.0051  0.0008
  807YOPS   C4A12172   6.332   3.749   7.993  0.2757  0.4195  0.1328
  807YOPS   C1B12173   6.274   4.470   6.990 -0.1925 -0.2887 -0.2553
  807YOPS   C2B12174   6.153   4.706   7.390 -0.0670 -0.0060 -0.2309
  807YOPS   D3B12175   6.411   4.585   7.569 -0.1328 -0.0997  0.0075
  807YOPS   C4B12176   6.305   4.364   7.932  0.0138  0.1034  0.0826
  808YOPS   CNO12177  10.151  10.898   5.163  0.3275  0.0506  0.0740
  808YOPS   PO412178  10.503  10.939   5.416 -0.0307 -0.1003  0.1690
  808YOPS   GL112179  10.451  11.117   5.820  0.0318  0.2396  0.0259
  808YOPS   GL212180  10.529  10.799   5.943 -0.0485  0.1439  0.2086
  808YOPS   C1A12181  10.386  11.337   6.230  0.1064  0.1575 -0.0199
  808YOPS   D2A12182  10.271  11.253   6.666 -0.2408  0.0385 -0.0775
  808YOPS   C3A12183  10.162  11.190   7.129 -0.0618  0.1024 -0.0061
  808YOPS   C4A12184  10.039  10.813   7.474  0.1303  0.1232  0.2512
  808YOPS   C1B12185  10.449  10.710   6.401 -0.2126  0.0152  0.3075
  808YOPS   C2B12186  10.591  10.910   6.744  0.0119  0.0226  0.0135
  808YOPS   D3B12187  10.645  11.245   7.113  0.1262  0.2595  0.1369
  808YOPS   C4B12188  10.375  11.293   7.572 -0.1900  0.2687  0.0368
  809YOPS   CNO12189  14.195  18.636   5.188 -0.0442  0.0573 -0.0219
  809YOPS   PO412190  14.374  19.036   5.409 -0.1411  0.1014  0.0410
  809YOPS   GL112191  14.415  19.320   5.680  0.1945 -0.2029  0.0454
  809YOPS   GL212192  14.751  19.459   5.820  0.3106 -0.3149  0.0943
  809YOPS   C1A12193  14.243  19.326   6.050  0.1174 -0.0222  0.1161
  809YOPS   D2A12194  14.318  19.341   6.586 -0.0751  0.0525 -0.0420
  809YOPS   C3A12195  14.326  19.396   7.007 -0.0323 -0.0858  0.2353
  809YOPS   C4A12196  13.952  19.345   7.265 -0.0076  0.2566  0.2704
  809YOPS   C1B12197  14.809  19.317   6.389 -0.1552 -0.2154 -0.1065
  809YOPS   C2B12198  14.796  19.399   6.740 -0.0300 -0.0115  0.0927
  809YOPS   D3B12199  14.787  19.586   7.060  0.0582  0.1095 -0.2974
  809YOPS   C4B12200  14.569  19.839   7.256 -0.1239 -0.0282 -0.2355
  810YOPS   CNO12201  14.708  15.127   5.145  0.0388  0.0351 -0.1310
  810YOPS   PO412202  14.296  15.382   5.169  0.0219 -0.5399  0.0814
  810YOPS   GL112203  14.248  15.247   5.639  0.0426 -0.3227  0.1941
  810YOPS   GL212204  14.032  15.283   5.930 -0.1603 -0.2706  0.4368
  810YOPS   C1A12205  14.511  15.143   6.037 -0.0247 -0.1179 -0.1460
  810YOPS   D2A12206  14.675  15.437   6.186 -0.0445 -0.2416 -0.0288
  810YOPS   C3A12207  14.611  15.831   6.348  0.0056  0.1559 -0.1421
  810YOPS   C4A12208  14.302  16.001   6.661 -0.3054 -0.0620 -0.0368
  810YOPS   C1B12209  14.147  15.271   6.298 -0.0837  0.2065 -0.4070
  810YOPS   C2B12210  14.311  15.444   6.633  0.0373 -0.1991 -0.0116
  810YOPS   D3B12211  14.452  15.626   7.021 -0.1683 -0.6732 -0.2234
  810YOPS   C4B12212  14.586  15.309   7.314 -0.0669 -0.1400  0.3167
  811YOPS   CNO12213   0.363  15.126   5.033  0.3537 -0.1241 -0.3759
  811YOPS   PO412214   0.573  15.004   5.423 -0.0156  0.0325 -0.0226
  811YOPS   GL112215   0.582  14.961   5.789  0.1352 -0.0711 -0.0276
  811YOPS   GL212216   0.820  15.211   5.972  0.1188  0.1065 -0.1183
  811YOPS   C1A12217   0.379  15.258   6.243 -0.0242  0.1098  0.0624
  811YOPS   D2A12218   0.186  15.400   6.601 -0.0127 -0.4341 -0.0613
  811YOPS   C3A12219   0.223  15.191   7.043 -0.0076  0.0061 -0.0904
  811YOPS   C4A12220   0.209  14.730   7.170 -0.0510 -0.3691 -0.1191
  811YOPS   C1B12221   0.934  15.581   6.165 -0.1553 -0.1716  0.3797
  811YOPS   C2B12222   1.022  15.593   6.622 -0.3321  0.2075 -0.0504
  811YOPS   D3B12223   1.278  15.754   6.983 -0.0682  0.0657 -0.2378
  811YOPS   C4B12224   1.224  15.450   7.369 -0.0218  0.1650  0.0024
  812YOPS   CNO12225   5.276   6.823   5.633 -0.1371  0.1071 -0.1779
  812YOPS   PO412226   4.896   6.788   5.823 -0.1803 -0.1915  0.0067
  812YOPS   GL112227   4.650   6.872   6.117 -0.3795 -0.0114 -0.1914
  812YOPS   GL212228   4.601   7.177   6.100 -0.0739  0.0419  0.1478
  812YOPS   C1A12229   4.462   6.861   6.549  0.3446  0.0705 -0.3216
  812YOPS   D2A12230   4.458   6.942   7.047  0.1843 -0.1944 -0.0091
  812YOPS   C3A12231   4.533   6.848   7.583  0.0665 -0.1462  0.0982
  812YOPS   C4A12232   4.537   7.097   7.989 -0.2675  0.2784 -0.0675
  812YOPS   C1B12233   4.879   7.147   6.460  0.1305  0.0996 -0.2007
  812YOPS   C2B12234   4.858   7.157   6.921 -0.1484 -0.0184 -0.0338
  812YOPS   D3B12235   5.075   7.237   7.363  0.1052 -0.1360  0.1106
  812YOPS   C4B12236   4.861   7.237   7.640 -0.0074  0.0878 -0.0568
  813YOPS   CNO12237   0.968  14.269   5.420 -0.1269 -0.1686 -0.4762
  813YOPS   PO412238   0.956  14.626   5.778 -0.1054  0.0611 -0.1921
  813YOPS   GL112239   1.150  14.726   6.153 -0.3361  0.0409 -0.1421
  813YOPS   GL212240   0.797  14.768   6.239 -0.2439 -0.2913  0.0060
  813YOPS   C1A12241   1.025  14.696   6.687 -0.0855  0.1283 -0.3844
  813YOPS   D2A12242   0.758  14.817   7.012  0.3273  0.0323  0.0021
  813YOPS   C3A12243   0.641  15.015   7.414  0.1309 -0.1288  0.3062
  813YOPS   C4A12244   0.729  14.883   7.767 -0.0419 -0.0208 -0.4033
  813YOPS   C1B12245   0.722  14.476   6.407 -0.0794 -0.2429 -0.2131
  813YOPS   C2B12246   0.694  14.322   6.841  0.1440  0.2460  0.1882
  813YOPS   D3B12247   0.698  14.005   7.254 -0.0855 -0.0067  0.2026
  813YOPS   C4B12248   1.028  13.823   7.659 -0.3159  0.0400  0.1368
  814YOPS   CNO12249   9.219  16.115   5.807 -0.3323 -0.1278  0.0579
  814YOPS   PO412250   8.808  15.799   5.774  0.0401  0.3822  0.2324
  814YOPS   GL112251   8.631  15.534   6.133  0.3711 -0.1054 -0.0482
  814YOPS   GL212252   8.789  15.721   6.348 -0.0419 -0.0159 -0.1123
  814YOPS   C1A12253   8.362  15.447   6.526  0.1416 -0.0968 -0.0575
  814YOPS   D2A12254   8.070  15.590   6.863  0.1703 -0.0222  0.1337
  814YOPS   C3A12255   8.006  15.640   7.256  0.0502  0.0028  0.2230
  814YOPS   C4A12256   8.194  15.999   7.524 -0.1248  0.4785  0.2112
  814YOPS   C1B12257   8.654  15.840   6.831  0.0135  0.1832  0.3621
  814YOPS   C2B12258   8.593  15.612   7.337 -0.0611 -0.1379 -0.2849
  814YOPS   D3B12259   8.448  15.315   7.545  0.2607 -0.2907  0.2069
  814YOPS   C4B12260   8.108  15.059   7.588  0.1302 -0.1053 -0.0346
  815YOPS   CNO12261   1.807   5.117   5.803 -0.0566 -0.3098  0.2472
  815YOPS   PO412262   2.074   5.581   5.764  0.1349 -0.3660 -0.3188
  815YOPS   GL112263   2.234   5.830   6.014 -0.0765  0.0034  0.1773
  815YOPS   GL212264   2.578   5.612   6.096 -0.4448 -0.0463  0.2029
  815YOPS   C1A12265   2.185   5.886   6.467  0.1712 -0.1159  0.3668
  815YOPS   D2A12266   2.265   5.857   6.923 -0.0038 -0.3843 -0.3404
  815YOPS   C3A12267   2.281   5.928   7.382  0.2577 -0.4499  0.1470
  815YOPS   C4A12268   1.978   6.324   7.525  0.1695  0.3566  0.1227
  815YOPS   C1B12269   2.570   5.561   6.590 -0.1952  0.1110  0.0353
  815YOPS   C2B12270   2.453   5.382   6.998 -0.3620  0.0705 -0.3470
  815YOPS   D3B12271   2.162   5.395   7.482  0.1869  0.1856 -0.1982
  815YOPS   C4B12272   2.225   5.625   7.796  0.1398 -0.2315 -0.1619
  816YOPS   CNO12273  15.164   5.139   5.254 -0.1631  0.0329 -0.0961
  816YOPS   PO412274  15.419   4.934   5.567  0.2100 -0.1091  0.1024
  816YOPS   GL112275  15.536   5.151   5.925  0.2540 -0.0567 -0.1784
  816YOPS   GL212276  15.283   5.102   6.127 -0.0789  0.1598  0.0951
  816YOPS   C1A12277  15.703   5.230   6.286 -0.1452 -0.2336 -0.2727
  816YOPS   D2A12278  15.456   5.288   6.648  0.2542 -0.2027 -0.1032
  816YOPS   C3A12279  15.238   5.604   6.770  0.3160 -0.3303  0.1056
  816YOPS   C4A12280  15.073   5.528   7.181 -0.3343 -0.0176  0.0718
  816YOPS   C1B12281  15.189   4.924   6.508 -0.0203  0.0752 -0.0143
  816YOPS   C2B12282  15.256   4.804   6.856 -0.0378  0.0727 -0.0754
  816YOPS   D3B12283  15.507   4.577   7.187 -0.1018 -0.4192 -0.1000
  816YOPS   C4B12284  15.246   4.428   7.422  0.1529  0.0783  0.0531
  817YOPS   CNO12285  12.114  13.798   4.915 -0.1095  0.0448  0.0868
  817YOPS   PO412286  12.018  14.199   5.220 -0.0509  0.3025 -0.0546
  817YOPS   GL112287  12.139  14.226   5.655 -0.0405  0.4030 -0.1026
  817YOPS   GL212288  11.924  13.980   5.739 -0.2101 -0.0953 -0.1828
  817YOPS   C1A12289  12.380  14.038   5.981  0.2255  0.0922  0.0605
  817YOPS   D2A12290  12.601  14.163   6.310 -0.1684  0.1227 -0.4269
  817YOPS   C3A12291  12.281  14.193   6.683 -0.0631  0.1870  0.2527
  817YOPS   C4A12292  12.398  14.501   6.898  0.0159 -0.1502  0.0015
  817YOPS   C1B12293  12.030  13.584   5.892  0.1963  0.0466 -0.3061
  817YOPS   C2B12294  11.987  13.368   6.306  0.4150 -0.1308 -0.1552
  817YOPS   D3B12295  11.776  13.380   6.662  0.4717  0.0660  0.2732
  817YOPS   C4B12296  11.881  13.228   7.013  0.2030  0.0462 -0.1694
  818YOPS   CNO12297   3.063  12.232   5.120 -0.4340  0.0204 -0.1083
  818YOPS   PO412298   2.834  12.635   5.350 -0.0899 -0.2987 -0.2854
  818YOPS   GL112299   3.070  12.566   5.678 -0.1548  0.1232  0.0727
  818YOPS   GL212300   3.204  12.784   5.797 -0.0424 -0.0971  0.2354
  818YOPS   C1A12301   3.017  12.379   6.095 -0.0402  0.0094  0.0011
  818YOPS   D2A12302   2.796  12.345   6.421 -0.1040 -0.4428 -0.0997
  818YOPS   C3A12303   2.389  12.434   6.487  0.3829 -0.1421  0.0631
  818YOPS   C4A12304   2.181  12.844   6.449 -0.0882  0.2680 -0.2792
  818YOPS   C1B12305   3.358  12.737   6.201 -0.0187 -0.1843  0.2834
  818YOPS   C2B12306   3.204  12.579   6.538 -0.3351  0.0623 -0.0210
  818YOPS   D3B12307   3.170  12.770   6.929  0.2880 -0.1353 -0.2979
  818YOPS   C4B12308   2.827  12.785   7.290 -0.1133  0.1638 -0.1499
  819YOPS   CNO12309   3.411   6.358   5.517 -0.0659  0.1611 -0.0376
  819YOPS   PO412310   3.387   6.119   5.856  0.0820 -0.0112  0.2338
  819YOPS   GL112311   3.292   6.137   6.284  0.0102  0.2671 -0.1385
  819YOPS   GL212312   2.947   6.016   6.427 -0.0981  0.2429 -0.3333
  819YOPS   C1A12313   3.234   6.383   6.671  0.2413 -0.0721 -0.0191
  819YOPS   D2A12314   3.560   6.355   7.071  0.4139  0.0494  0.0267
  819YOPS   C3A12315   3.821   6.116   7.407  0.0002  0.0109  0.0376
  819YOPS   C4A12316   4.020   5.705   7.236  0.0067 -0.1391 -0.0229
  819YOPS   C1B12317   2.772   6.089   6.790 -0.1329  0.2182 -0.1306
  819YOPS   C2B12318   2.760   5.772   7.098 -0.1435 -0.1322 -0.0031
  819YOPS   D3B12319   2.689   5.641   7.495  0.2001  0.0855  0.2011
  819YOPS   C4B12320   2.762   5.207   7.558 -0.1256 -0.2251 -0.0500
  820YOPS   CNO12321   0.924   9.238   5.337 -0.0173 -0.0527 -0.1662
  820YOPS   PO412322   1.312   9.474   5.526  0.0385 -0.1214  0.0166
  820YOPS   GL112323   1.473   9.388   5.993  0.0249  0.1069 -0.2261
  820YOPS   GL212324   1.112   9.327   6.196  0.4352  0.1210  0.2812
  820YOPS   C1A12325   1.472   9.509   6.426 -0.2978  0.1648 -0.6101
  820YOPS   D2A12326   1.547   9.435   6.909 -0.1577  0.3004 -0.0624
  820YOPS   C3A12327   1.386   9.599   7.246  0.1207  0.1338 -0.0951
  820YOPS   C4A12328   1.275  10.037   7.153 -0.2355  0.2822 -0.2221
  820YOPS   C1B12329   0.967   9.484   6.536 -0.1018  0.0258  0.2532
  820YOPS   C2B12330   0.946   9.652   6.949 -0.1333 -0.3501  0.2677
  820YOPS   D3B12331   0.777   9.855   7.381  0.1314  0.0209  0.0023
  820YOPS   C4B12332   0.347   9.734   7.457 -0.0213 -0.0168 -0.2308
  821YOPS   CNO12333   0.590   3.045   5.053 -0.1096  0.0997  0.0521
  821YOPS   PO412334   0.505   3.085   5.444 -0.0212 -0.0964 -0.1088
  821YOPS   GL112335   0.221   3.186   5.863  0.1401  0.2147 -0.0792
  821YOPS   GL212336   0.446   3.170   6.034  0.0497  0.1242  0.0893
  821YOPS   C1A12337   0.055   3.475   6.130 -0.0730 -0.2972 -0.2235
  821YOPS   D2A12338  -0.294   3.569   6.349  0.2187 -0.0336  0.0510
  821YOPS   C3A12339  -0.537   3.810   6.592 -0.1083 -0.0993 -0.1436
  821YOPS   C4A12340  -0.505   3.586   6.954  0.0691 -0.1264 -0.0783
  821YOPS   C1B12341   0.469   3.178   6.409 -0.0294 -0.5564 -0.4619
  821YOPS   C2B12342   0.453   2.925   6.752  0.0842  0.0459  0.1146
  821YOPS   D3B12343   0.794   2.774   6.964 -0.0154  0.2275  0.1155
  821YOPS   C4B12344   0.913   2.397   6.763 -0.5280  0.0423  0.0028
  822YOPS   CNO12345   5.721  11.392   5.333  0.1017  0.2015 -0.2567
  822YOPS   PO412346   5.477  11.854   5.407 -0.2393 -0.0068 -0.1114
  822YOPS   GL112347   5.766  11.889   5.754  0.4571 -0.3992 -0.1317
  822YOPS   GL212348   5.780  11.519   5.831 -0.6002 -0.1754  0.1185
  822YOPS   C1A12349   5.795  12.014   6.118 -0.3141  0.2548 -0.0441
  822YOPS   D2A12350   5.686  12.393   6.402 -0.0336  0.2666 -0.3654
  822YOPS   C3A12351   5.677  12.791   6.518  0.0431  0.1193 -0.0089
  822YOPS   C4A12352   5.817  12.808   6.913  0.1057  0.2704  0.0258
  822YOPS   C1B12353   5.518  11.570   6.214  0.2794 -0.1547  0.0872
  822YOPS   C2B12354   5.476  11.939   6.544 -0.0440  0.1258 -0.2583
  822YOPS   D3B12355   5.531  12.006   6.990  0.0919  0.4230  0.4099
  822YOPS   C4B12356   5.234  12.181   7.228 -0.1748 -0.0192 -0.1857
  823YOPS   CNO12357   6.789  16.226   5.965  0.1481 -0.3589  0.1366
  823YOPS   PO412358   6.403  16.042   5.779 -0.0179 -0.0252 -0.0384
  823YOPS   GL112359   6.041  16.086   6.118  0.1915 -0.1633  0.0971
  823YOPS   GL212360   6.353  16.038   6.321  0.1816 -0.1632 -0.0228
  823YOPS   C1A12361   5.859  15.660   6.269  0.0024 -0.2366 -0.1687
  823YOPS   D2A12362   5.577  15.672   6.633  0.0475 -0.1456  0.0195
  823YOPS   C3A12363   5.408  15.414   7.018  0.1565  0.2408 -0.1967
  823YOPS   C4A12364   5.023  15.308   7.050 -0.1332 -0.2206 -0.0321
  823YOPS   C1B12365   6.222  15.846   6.672  0.0004  0.1132  0.0235
  823YOPS   C2B12366   5.949  15.853   7.025 -0.0421  0.0545 -0.1608
  823YOPS   D3B12367   5.921  15.720   7.410  0.3112 -0.2261 -0.1417
  823YOPS   C4B12368   5.503  15.549   7.494 -0.0360  0.4977  0.3103
  824YOPS   CNO12369  11.681   4.964   5.711 -0.1751 -0.1518 -0.1345
  824YOPS   PO412370  11.314   4.743   5.802 -0.1247 -0.1013 -0.0637
  824YOPS   GL112371  11.447   4.955   6.172 -0.3795 -0.0969 -0.1064
  824YOPS   GL212372  11.270   4.863   6.501 -0.1136 -0.0491 -0.0428
  824YOPS   C1A12373  11.671   5.241   6.548 -0.1060 -0.0350  0.1353
  824YOPS   D2A12374  11.790   5.362   6.940 -0.0262  0.1411  0.1979
  824YOPS   C3A12375  11.793   5.095   7.322  0.3176 -0.3510 -0.0561
  824YOPS   C4A12376  12.057   4.796   7.079  0.0347  0.0802 -0.2566
  824YOPS   C1B12377  11.107   5.259   6.715 -0.0591  0.1347  0.1864
  824YOPS   C2B12378  10.960   5.630   6.752  0.1436  0.1011  0.1310
  824YOPS   D3B12379  10.913   6.013   7.016  0.2203 -0.0213  0.0559
  824YOPS   C4B12380  10.628   6.299   7.090 -0.3465  0.0854  0.0261
  825YOPS   CNO12381  10.112   1.166   5.762  0.2327 -0.0283 -0.1353
  825YOPS   PO412382   9.866   1.469   5.833 -0.1290 -0.1444 -0.1968
  825YOPS   GL112383  10.099   1.331   6.248 -0.1067 -0.3366 -0.0954
  825YOPS   GL212384  10.511   1.339   6.258 -0.0670  0.0123  0.3957
  825YOPS   C1A12385  10.161   1.263   6.739  0.1722  0.0468  0.0221
  825YOPS   D2A12386  10.205   1.274   7.195 -0.0254  0.1386 -0.1245
  825YOPS   C3A12387  10.213   1.215   7.601 -0.2053  0.0183  0.2160
  825YOPS   C4A12388  10.441   1.388   7.973  0.1179 -0.1188 -0.1583
  825YOPS   C1B12389  10.488   1.596   6.580  0.0739 -0.0480  0.0708
  825YOPS   C2B12390  10.604   1.793   7.010  0.1881 -0.3381 -0.0367
  825YOPS   D3B12391  10.805   1.907   7.316  0.1166  0.1080  0.2636
  825YOPS   C4B12392  10.686   2.201   7.432  0.2837 -0.2353 -0.0286
  826YOPS   CNO12393   7.996   7.046   6.538 -0.1130 -0.1144 -0.1258
  826YOPS   PO412394   7.766   6.668   6.385  0.0785  0.0671  0.0734
  826YOPS   GL112395   7.536   6.492   6.749 -0.1285 -0.3319 -0.1688
  826YOPS   GL212396   7.590   6.134   7.012 -0.0296 -0.0910  0.2876
  826YOPS   C1A12397   7.349   6.532   7.130  0.1294  0.1896  0.1772
  826YOPS   D2A12398   7.117   6.632   7.454 -0.2658  0.3192  0.1731
  826YOPS   C3A12399   7.048   7.072   7.622 -0.0382 -0.3203  0.1805
  826YOPS   C4A12400   7.012   7.121   8.093  0.2494 -0.2236 -0.0425
  826YOPS   C1B12401   7.531   6.126   7.455  0.0578  0.2403 -0.1270
  826YOPS   C2B12402   7.538   6.206   7.895 -0.0878  0.3689  0.1634
  826YOPS   D3B12403   7.809   6.083   8.264 -0.2999  0.0898  0.2622
  826YOPS   C4B12404   8.261   6.033   8.492  0.0883 -0.0809  0.0052
  827YOPS   CNO12405   0.620  13.426   5.085 -0.0052 -0.0413 -0.1759
  827YOPS   PO412406   0.429  13.497   5.439 -0.2866  0.2677  0.2137
  827YOPS   GL112407   0.451  13.474   5.860  0.2421  0.0700  0.1544
  827YOPS   GL212408   0.094  13.343   6.106 -0.0140  0.0557  0.0687
  827YOPS   C1A12409   0.658  13.545   6.288  0.0897 -0.1544  0.1492
  827YOPS   D2A12410   0.905  13.348   6.610 -0.0530 -0.0786  0.0511
  827YOPS   C3A12411   1.036  12.971   6.818 -0.2166 -0.1065  0.1779
  827YOPS   C4A12412   1.283  13.049   7.253  0.0821  0.1144  0.1705
  827YOPS   C1B12413   0.359  13.198   6.530 -0.0301 -0.2131 -0.1503
  827YOPS   C2B12414   0.474  13.313   6.988  0.2966 -0.1908  0.1269
  827YOPS   D3B12415   0.787  13.222   7.228  0.2137  0.3381 -0.0266
  827YOPS   C4B12416   1.114  13.537   7.325  0.1249  0.1117 -0.0172
  828YOPS   CNO12417   6.904  12.985   5.792  0.0187  0.1355 -0.0315
  828YOPS   PO412418   6.995  12.650   5.860 -0.1203  0.1696  0.0543
  828YOPS   GL112419   6.943  12.373   6.231  0.0245 -0.1125  0.0250
  828YOPS   GL212420   6.746  12.502   6.435  0.0862  0.2175 -0.2345
  828YOPS   C1A12421   7.075  12.135   6.661  0.4502 -0.1370 -0.0508
  828YOPS   D2A12422   7.299  11.944   6.843 -0.2171 -0.0504  0.0195
  828YOPS   C3A12423   7.689  11.770   7.133 -0.3695 -0.2685 -0.1255
  828YOPS   C4A12424   7.807  11.260   7.161  0.1593  0.0909 -0.0125
  828YOPS   C1B12425   7.121  12.721   6.676 -0.2645 -0.1743  0.1115
  828YOPS   C2B12426   7.344  12.725   6.928  0.0868  0.0001 -0.0234
  828YOPS   D3B12427   7.143  12.459   7.246 -0.0576  0.4245 -0.4014
  828YOPS   C4B12428   7.272  12.550   7.668  0.0997 -0.0630 -0.0866
  829YOPS   CNO12429   2.086   7.160   5.453 -0.2386 -0.1539 -0.1466
  829YOPS   PO412430   1.786   7.350   5.625  0.0661 -0.2881 -0.2512
  829YOPS   GL112431   1.643   7.148   5.934  0.0605 -0.1915 -0.0489
  829YOPS   GL212432   1.309   7.157   6.243 -0.0936  0.1130 -0.0699
  829YOPS   C1A12433   1.779   6.765   6.195  0.1505  0.1603 -0.0051
  829YOPS   D2A12434   1.529   6.849   6.603  0.1188  0.0278  0.1091
  829YOPS   C3A12435   1.197   6.926   6.939 -0.1761  0.1007  0.2136
  829YOPS   C4A12436   1.189   6.850   7.437 -0.3927 -0.1159  0.1171
  829YOPS   C1B12437   1.437   7.392   6.653  0.2042 -0.0017 -0.1158
  829YOPS   C2B12438   1.414   7.407   7.118 -0.2076 -0.0821 -0.1525
  829YOPS   D3B12439   1.464   7.400   7.590  0.0587  0.2856  0.1387
  829YOPS   C4B12440   1.318   7.648   7.844 -0.2739 -0.1613  0.0206
  830YOPS   CNO12441   3.190   5.922   5.447 -0.0334  0.1270 -0.1393
  830YOPS   PO412442   3.020   5.583   5.648  0.0505 -0.0094  0.2227
  830YOPS   GL112443   2.992   5.281   6.007 -0.0210 -0.0611 -0.3916
  830YOPS   GL212444   3.206   4.912   6.044  0.1364  0.2399 -0.1412
  830YOPS   C1A12445   2.939   5.245   6.383 -0.0031  0.2514  0.0969
  830YOPS   D2A12446   3.039   5.559   6.704  0.2311 -0.2142 -0.1979
  830YOPS   C3A12447   3.031   5.425   7.197  0.1483 -0.0871 -0.0894
  830YOPS   C4A12448   3.179   4.987   7.277 -0.1565 -0.0810 -0.4282
  830YOPS   C1B12449   3.217   4.879   6.451 -0.2952  0.2251 -0.2456
  830YOPS   C2B12450   2.984   4.884   6.799  0.1688  0.1450 -0.0648
  830YOPS   D3B12451   2.729   4.969   7.114 -0.0432  0.0121 -0.0057
  830YOPS   C4B12452   2.533   4.538   7.290  0.1864 -0.6496  0.0752
  831YOPS   CNO12453  10.037   0.675   5.887 -0.2897 -0.3622  0.0508
  831YOPS   PO412454  10.263   0.889   6.132  0.1290  0.1556  0.0209
  831YOPS   GL112455  10.222   0.798   6.509  0.0622  0.1236  0.2478
  831YOPS   GL212456  10.302   0.462   6.479 -0.0339  0.1893 -0.0274
  831YOPS   C1A12457  10.254   0.808   6.949  0.2025  0.0830  0.3609
  831YOPS   D2A12458  10.572   0.945   7.272  0.5294 -0.2461  0.2102
  831YOPS   C3A12459  10.699   0.883   7.748 -0.1332  0.1204  0.0742
  831YOPS   C4A12460  11.048   0.928   7.997 -0.2416 -0.1486  0.0158
  831YOPS   C1B12461  10.595   0.506   6.813 -0.3003  0.1868 -0.3203
  831YOPS   C2B12462  10.817   0.241   7.026 -0.1958  0.1352 -0.0234
  831YOPS   D3B12463  11.142   0.122   7.300  0.0823 -0.0871  0.1692
  831YOPS   C4B12464  11.132   0.044   7.712  0.0113 -0.0356  0.2045
  832YOPS   CNO12465  13.143  17.233   5.371 -0.0419  0.0525 -0.2707
  832YOPS   PO412466  12.838  17.500   5.607 -0.1749  0.1176 -0.0317
  832YOPS   GL112467  12.628  17.308   5.981 -0.3435 -0.3699  0.2287
  832YOPS   GL212468  12.362  17.320   6.077  0.1506 -0.0388 -0.0908
  832YOPS   C1A12469  12.697  17.567   6.416 -0.1524  0.0784 -0.1446
  832YOPS   D2A12470  12.706  18.009   6.711 -0.0134  0.4581  0.0728
  832YOPS   C3A12471  12.975  18.282   7.009  0.0669  0.0993  0.1465
  832YOPS   C4A12472  13.398  18.152   6.910  0.1891  0.1269  0.0182
  832YOPS   C1B12473  12.176  17.369   6.484 -0.0719  0.1647  0.2693
  832YOPS   C2B12474  11.956  17.077   6.739 -0.2217 -0.0148  0.0449
  832YOPS   D3B12475  11.725  16.812   7.033 -0.0530 -0.0079 -0.1407
  832YOPS   C4B12476  11.811  16.837   7.592  0.2237  0.1444 -0.4757
  833YOPS   CNO12477   3.014   0.613   5.113 -0.1967 -0.1186  0.5799
  833YOPS   PO412478   2.659   0.866   5.012  0.3009 -0.6623  0.2752
  833YOPS   GL112479   2.634   0.757   5.425 -0.0164 -0.0391 -0.2159
  833YOPS   GL212480   2.398   0.649   5.585 -0.0422  0.1575  0.3903
  833YOPS   C1A12481   2.960   0.679   5.907  0.0758  0.1235 -0.1256
  833YOPS   D2A12482   3.445   0.585   5.945  0.0619  0.2318 -0.1076
  833YOPS   C3A12483   3.838   0.329   5.907 -0.0571 -0.0685  0.2185
  833YOPS   C4A12484   3.623   0.109   5.563 -0.0433 -0.0825 -0.0111
  833YOPS   C1B12485   2.075   0.538   5.784 -0.1192 -0.0330 -0.0301
  833YOPS   C2B12486   1.842   0.711   6.233 -0.2549  0.1482  0.3167
  833YOPS   D3B12487   1.875   1.111   6.136 -0.1212  0.0487 -0.3716
  833YOPS   C4B12488   2.099   1.249   6.393 -0.0453 -0.0366 -0.0346
  834YOPS   CNO12489  15.314  15.501   4.841 -0.1311 -0.1091  0.0415
  834YOPS   PO412490  15.036  15.556   5.134 -0.2612 -0.0731 -0.2518
  834YOPS   GL112491  15.201  15.638   5.623  0.2192 -0.2808  0.3070
  834YOPS   GL212492  15.482  15.772   5.818 -0.0794 -0.1320 -0.0258
  834YOPS   C1A12493  15.235  15.339   6.013 -0.0267  0.0462  0.1022
  834YOPS   D2A12494  15.136  15.330   6.394  0.3079  0.0428 -0.1544
  834YOPS   C3A12495  14.956  15.353   6.848  0.0263 -0.4715  0.1216
  834YOPS   C4A12496  14.904  14.970   7.106 -0.3923 -0.0652 -0.2170
  834YOPS   C1B12497  15.766  15.913   6.021  0.1704 -0.0923 -0.0909
  834YOPS   C2B12498  15.821  15.913   6.460  0.0220  0.1459 -0.0325
  834YOPS   D3B12499  15.858  15.836   6.908 -0.1866  0.0330 -0.2636
  834YOPS   C4B12500  15.607  16.074   7.289  0.0852  0.1210  0.0047
  835POPE   NH312501   3.800   8.128   5.905 -0.2753  0.2221 -0.0857
  835POPE   PO412502   3.938   8.520   5.712 -0.1848 -0.4423 -0.0116
  835POPE   GL112503   4.044   8.460   6.155  0.0722 -0.0821 -0.0481
  835POPE   GL212504   4.221   8.207   6.310 -0.1247  0.1020 -0.2703
  835POPE   C1A12505   4.342   8.671   6.526 -0.3783 -0.0823 -0.1883
  835POPE   D2A12506   4.515   8.466   6.956 -0.1746  0.1496 -0.1955
  835POPE   C3A12507   4.406   8.609   7.386  0.2385  0.1391  0.1704
  835POPE   C4A12508   4.341   8.395   7.650 -0.0802 -0.0187  0.0312
  835POPE   C1B12509   4.338   8.073   6.642 -0.1971  0.3436  0.3646
  835POPE   C2B12510   4.321   7.940   7.025  0.0004  0.3903 -0.1469
  835POPE   C3B12511   4.287   7.895   7.439  0.0281  0.2353  0.1410
  835POPE   C4B12512   4.405   7.521   7.766 -0.0976  0.1596  0.1050
  836POPE   NH312513   3.082  17.030   5.320 -0.1419  0.3354  0.0384
  836POPE   PO412514   2.820  16.918   5.702 -0.0043  0.1441 -0.1252
  836POPE   GL112515   2.620  16.883   6.092  0.4630  0.0685 -0.1338
  836POPE   GL212516   2.311  16.882   6.154  0.0626  0.2495 -0.1895
  836POPE   C1A12517   2.526  16.833   6.592  0.0828  0.3864 -0.0930
  836POPE   D2A12518   2.291  16.923   7.024 -0.2397  0.2205  0.1351
  836POPE   C3A12519   2.153  17.328   7.152 -0.1153 -0.2106 -0.1744
  836POPE   C4A12520   1.908  17.715   7.272 -0.1826  0.0254 -0.1819
  836POPE   C1B12521   2.371  17.272   6.395 -0.0997 -0.0984 -0.0768
  836POPE   C2B12522   2.536  17.404   6.822  0.0964 -0.1796 -0.0807
  836POPE   C3B12523   2.767  17.319   7.271  0.1158  0.1315 -0.1262
  836POPE   C4B12524   2.648  17.114   7.704  0.2744 -0.1711  0.1058
  837POPE   NH312525   5.910  15.449   5.275 -0.0689 -0.1372 -0.2695
  837POPE   PO412526   6.387  15.610   5.403  0.1886  0.3333  0.0018
  837POPE   GL112527   6.646  15.471   5.815  0.0010 -0.0184 -0.0627
  837POPE   GL212528   6.604  15.610   6.052 -0.2661  0.1927  0.1669
  837POPE   C1A12529   6.628  15.120   6.033  0.1086 -0.2145  0.0852
  837POPE   D2A12530   6.520  14.726   6.136 -0.2080  0.2516  0.0876
  837POPE   C3A12531   6.421  14.491   6.430 -0.1054 -0.0500 -0.0256
  837POPE   C4A12532   6.165  14.284   6.814 -0.1905 -0.0714 -0.1407
  837POPE   C1B12533   6.422  15.514   6.418  0.0429 -0.2075  0.0789
  837POPE   C2B12534   6.052  15.349   6.735 -0.1469  0.1536  0.1199
  837POPE   C3B12535   5.917  15.023   7.033 -0.0797  0.1931 -0.5278
  837POPE   C4B12536   5.748  14.576   6.966  0.0980  0.2713 -0.1789
  838POPE   NH312537   5.824  13.711   5.502  0.1359 -0.1048  0.1887
  838POPE   PO412538   5.846  13.807   5.874 -0.0457 -0.2192  0.1543
  838POPE   GL112539   5.849  14.234   6.193 -0.0789 -0.2400  0.1100
  838POPE   GL212540   5.628  14.481   6.068  0.3025  0.1001 -0.1796
  838POPE   C1A12541   5.972  14.612   6.444 -0.1515 -0.1046  0.3868
  838POPE   D2A12542   6.244  14.746   6.805 -0.2793  0.2083  0.2365
  838POPE   C3A12543   6.199  14.643   7.168 -0.1280 -0.0516 -0.0465
  838POPE   C4A12544   6.241  14.670   7.691 -0.0519 -0.0390  0.0085
  838POPE   C1B12545   5.493  14.412   6.552  0.1072 -0.1494  0.3590
  838POPE   C2B12546   5.248  14.429   6.925 -0.0376 -0.0749  0.2088
  838POPE   C3B12547   5.035  14.472   7.328 -0.1073 -0.2282 -0.2027
  838POPE   C4B12548   4.453  14.394   7.371 -0.0826 -0.1760 -0.1705
  839POPE   NH312549   7.290   6.630   6.291 -0.1557  0.0070  0.0056
  839POPE   PO412550   7.438   7.036   6.353 -0.0181 -0.1980 -0.0945
  839POPE   GL112551   7.465   7.042   6.788  0.0681  0.1977  0.0302
  839POPE   GL212552   7.631   7.418   6.776  0.1713 -0.2549  0.0522
  839POPE   C1A12553   7.673   6.992   7.100  0.0217  0.1446  0.2719
  839POPE   D2A12554   7.699   7.136   7.547  0.0162 -0.2450 -0.2482
  839POPE   C3A12555   7.676   6.947   7.944  0.0723 -0.0889  0.2868
  839POPE   C4A12556   7.271   6.712   7.916  0.1380  0.0349 -0.0138
  839POPE   C1B12557   7.998   7.378   7.047  0.0552 -0.0832  0.1600
  839POPE   C2B12558   8.356   7.243   7.329  0.0602 -0.1933  0.2129
  839POPE   C3B12559   8.510   7.410   7.775  0.2494  0.2142 -0.2067
  839POPE   C4B12560   8.500   7.242   8.243 -0.1228  0.1587  0.0457
  840POPE   NH312561   3.368  16.685   5.714 -0.0576 -0.0491 -0.1594
  840POPE   PO412562   3.789  16.548   5.552  0.2274 -0.0164  0.0615
  840POPE   GL112563   3.774  16.799   6.012 -0.0600  0.1376  0.2134
  840POPE   GL212564   3.772  16.496   6.179 -0.1133 -0.1128 -0.1383
  840POPE   C1A12565   3.584  16.922   6.452 -0.1860  0.0789  0.0093
  840POPE   D2A12566   3.694  17.156   6.868  0.0235 -0.0099  0.4438
  840POPE   C3A12567   3.971  17.440   6.916  0.0442 -0.1356 -0.0484
  840POPE   C4A12568   4.236  17.673   6.983 -0.1613 -0.1512  0.1895
  840POPE   C1B12569   3.892  16.540   6.611 -0.0529 -0.2786  0.0596
  840POPE   C2B12570   3.898  16.660   7.044  0.0532 -0.3150  0.0396
  840POPE   C3B12571   3.670  16.902   7.377 -0.1852  0.0225 -0.0820
  840POPE   C4B12572   3.679  17.130   7.834  0.3084 -0.1424  0.0591
  841POPE   NH312573   5.388  17.812   5.523 -0.0108  0.0038 -0.0139
  841POPE   PO412574   5.452  17.447   5.462  0.0858 -0.2304  0.3929
  841POPE   GL112575   5.337  17.465   5.900 -0.0168 -0.0925  0.4133
  841POPE   GL212576   5.442  17.835   6.040 -0.0143 -0.1573  0.1558
  841POPE   C1A12577   5.173  17.452   6.321 -0.2572 -0.1344 -0.0012
  841POPE   D2A12578   5.154  17.326   6.776  0.1361  0.2489 -0.1170
  841POPE   C3A12579   5.479  17.584   7.063  0.0379  0.2227  0.1173
  841POPE   C4A12580   6.043  17.719   7.065  0.1325  0.2342 -0.1879
  841POPE   C1B12581   5.630  17.791   6.464 -0.0360 -0.1326  0.1236
  841POPE   C2B12582   5.696  17.927   6.845  0.2288  0.1341  0.1219
  841POPE   C3B12583   5.805  18.027   7.350 -0.1720 -0.0226 -0.1377
  841POPE   C4B12584   5.728  18.353   7.635 -0.2412  0.1534 -0.2625
  842POPE   NH312585  11.833   4.503   5.615  0.2611  0.1901  0.0535
  842POPE   PO412586  11.822   4.025   5.805  0.1189 -0.1302 -0.1158
  842POPE   GL112587  11.833   3.891   6.182  0.4026 -0.0807 -0.0313
  842POPE   GL212588  11.635   3.928   6.402 -0.0731 -0.1703  0.2857
  842POPE   C1A12589  11.854   3.530   6.576  0.2535  0.1048  0.1620
  842POPE   D2A12590  12.004   3.514   6.993 -0.1128  0.0714 -0.0264
  842POPE   C3A12591  11.820   3.690   7.365 -0.3533  0.1292 -0.0326
  842POPE   C4A12592  11.908   3.442   7.653  0.0541  0.1141  0.1194
  842POPE   C1B12593  11.922   4.008   6.663 -0.0905 -0.0617  0.0419
  842POPE   C2B12594  12.010   4.014   7.055  0.2397  0.1137 -0.1199
  842POPE   C3B12595  12.319   3.838   7.403  0.2050  0.1166 -0.2440
  842POPE   C4B12596  12.279   3.815   7.851  0.2256 -0.0407  0.2093
  843POPE   NH312597   6.051  18.426   5.830 -0.1369 -0.0612  0.0209
  843POPE   PO412598   6.217  18.153   5.611  0.1986  0.2236 -0.0531
  843POPE   GL112599   5.916  17.975   5.989  0.0858  0.0114 -0.1191
  843POPE   GL212600   5.911  18.170   6.281  0.2643  0.1595 -0.1904
  843POPE   C1A12601   6.184  17.837   6.461  0.2934  0.0105 -0.1236
  843POPE   D2A12602   6.531  17.774   6.635  0.2034  0.0907 -0.0028
  843POPE   C3A12603   6.567  17.695   7.100 -0.0950  0.0596  0.3520
  843POPE   C4A12604   6.770  17.408   7.417  0.0109  0.0617  0.0616
  843POPE   C1B12605   5.874  18.297   6.584  0.5460  0.2160  0.2928
  843POPE   C2B12606   5.812  18.400   7.013 -0.2930 -0.2585 -0.0561
  843POPE   C3B12607   5.427  18.614   7.153 -0.1293  0.5137  0.0297
  843POPE   C4B12608   5.257  18.951   7.411 -0.0734  0.0763 -0.3317
  844POPE   NH312609  18.082   6.281   5.652 -0.0767 -0.0542  0.2529
  844POPE   PO412610  17.603   6.162   5.602 -0.0905 -0.2331  0.1980
  844POPE   GL112611  17.672   5.924   5.984  0.0523  0.0162 -0.1409
  844POPE   GL212612  17.349   5.744   5.978 -0.1331 -0.0027  0.2880
  844POPE   C1A12613  17.714   5.936   6.419 -0.0975 -0.1601  0.1647
  844POPE   D2A12614  17.667   5.818   6.819  0.1306 -0.1363  0.0234
  844POPE   C3A12615  17.875   5.988   7.239 -0.1239 -0.1850  0.1705
  844POPE   C4A12616  17.981   6.023   7.719 -0.1590 -0.2024  0.0741
  844POPE   C1B12617  17.075   5.429   6.080 -0.0605 -0.0058 -0.3233
  844POPE   C2B12618  16.930   5.222   6.484 -0.0164 -0.0830 -0.1896
  844POPE   C3B12619  16.609   5.379   6.800  0.4300  0.2926 -0.0743
  844POPE   C4B12620  16.673   5.378   7.197 -0.3085 -0.2455 -0.1680
  845POPE   NH312621  16.649   9.815   5.748  0.0238 -0.0227 -0.0667
  845POPE   PO412622  16.193   9.684   5.885  0.2634 -0.1703  0.1951
  845POPE   GL112623  16.444   9.841   6.230  0.1972 -0.2058  0.0498
  845POPE   GL212624  16.666   9.711   6.216  0.1128  0.1311  0.0413
  845POPE   C1A12625  16.317  10.123   6.626 -0.0284  0.2843  0.1263
  845POPE   D2A12626  16.347  10.190   6.987 -0.2267 -0.4262  0.1243
  845POPE   C3A12627  16.698  10.346   7.186 -0.1354  0.3775 -0.1202
  845POPE   C4A12628  16.818  10.450   7.512  0.1232  0.3220 -0.2875
  845POPE   C1B12629  16.881  10.006   6.427 -0.1549 -0.1736  0.0309
  845POPE   C2B12630  16.885  10.317   6.735  0.1845  0.2069  0.4394
  845POPE   C3B12631  17.038  10.612   6.916  0.0728  0.3357 -0.0317
  845POPE   C4B12632  17.328  10.706   7.274 -0.0558 -0.1665 -0.1008
  846POPE   NH312633   7.801   3.533   6.422  0.0357  0.2255  0.0054
  846POPE   PO412634   7.511   3.301   6.555  0.0061  0.3070 -0.0733
  846POPE   GL112635   7.709   3.228   6.865  0.1020 -0.0141 -0.1589
  846POPE   GL212636   7.912   3.402   6.887  0.0427  0.0027  0.0059
  846POPE   C1A12637   7.551   3.142   7.331  0.2004  0.2414  0.0044
  846POPE   D2A12638   7.577   2.788   7.744 -0.2304 -0.0124 -0.0391
  846POPE   C3A12639   7.265   2.865   8.140  0.1628 -0.2202 -0.2718
  846POPE   C4A12640   7.318   2.653   8.476  0.1557 -0.3449  0.1091
  846POPE   C1B12641   7.923   3.482   7.276 -0.2525  0.2731  0.0894
  846POPE   C2B12642   8.048   3.669   7.657  0.0187 -0.3601 -0.1385
  846POPE   C3B12643   8.043   3.657   8.199  0.2001 -0.1644  0.0031
  846POPE   C4B12644   8.028   3.771   8.610  0.1660  0.2071 -0.0915
  847POPE   NH312645   7.241  18.270   6.150  0.2051 -0.0481  0.1049
  847POPE   PO412646   6.916  18.628   6.082  0.1553  0.1518  0.0880
  847POPE   GL112647   6.908  18.644   6.514 -0.0478  0.2720  0.5373
  847POPE   GL212648   6.600  18.851   6.612  0.0132 -0.1885 -0.0850
  847POPE   C1A12649   6.854  18.467   6.821  0.0364 -0.0873  0.0864
  847POPE   D2A12650   7.028  18.436   7.208  0.2327 -0.0187 -0.4627
  847POPE   C3A12651   6.803  18.159   7.431 -0.0686 -0.2354  0.1627
  847POPE   C4A12652   6.758  17.798   7.698  0.2454  0.0813 -0.3061
  847POPE   C1B12653   6.510  18.724   7.020 -0.0241  0.3216  0.0368
  847POPE   C2B12654   6.203  18.757   7.260  0.4607  0.0731 -0.1354
  847POPE   C3B12655   5.825  18.865   7.011 -0.4663  0.1117 -0.0854
  847POPE   C4B12656   5.462  18.859   6.769  0.0029 -0.0591 -0.1207
  848POPE   NH312657  16.671  13.082   5.770 -0.0518 -0.0601 -0.0731
  848POPE   PO412658  16.352  12.908   5.487  0.0115 -0.0383  0.1641
  848POPE   GL112659  16.186  12.946   5.933  0.1063 -0.0264  0.0695
  848POPE   GL212660  15.872  12.773   6.015 -0.2773  0.0297 -0.2019
  848POPE   C1A12661  16.367  12.737   6.323 -0.0025 -0.3257 -0.2762
  848POPE   D2A12662  16.470  12.768   6.805 -0.0095  0.2425 -0.0456
  848POPE   C3A12663  16.145  12.484   6.969  0.0107  0.2347  0.1284
  848POPE   C4A12664  16.082  12.524   7.454 -0.0874  0.0879  0.0903
  848POPE   C1B12665  15.905  12.526   6.399 -0.1481 -0.1790 -0.1047
  848POPE   C2B12666  15.622  12.500   6.785 -0.0253  0.0544  0.2263
  848POPE   C3B12667  15.385  12.324   7.179 -0.1183  0.2244  0.1121
  848POPE   C4B12668  15.292  12.198   7.446  0.1988 -0.2823 -0.0537
  849POPE   NH312669   0.045  13.197   5.620 -0.2433 -0.3660 -0.2240
  849POPE   PO412670  -0.093  13.435   5.272  0.0698 -0.1196 -0.0580
  849POPE   GL112671  -0.136  13.681   5.606  0.2394 -0.1300 -0.2993
  849POPE   GL212672  -0.302  13.567   5.827  0.1216 -0.2932  0.1473
  849POPE   C1A12673   0.103  13.926   5.875  0.0866  0.1755 -0.3720
  849POPE   D2A12674   0.468  14.014   6.140 -0.1428  0.2674  0.0550
  849POPE   C3A12675   0.621  13.976   6.551  0.3291  0.0069  0.1713
  849POPE   C4A12676   0.719  13.726   6.919  0.0059  0.0156  0.1981
  849POPE   C1B12677  -0.233  13.832   6.177  0.0546 -0.0671 -0.0287
  849POPE   C2B12678   0.126  13.769   6.408 -0.1604  0.2948 -0.1855
  849POPE   C3B12679   0.217  13.693   6.757  0.3258 -0.3364 -0.0626
  849POPE   C4B12680   0.131  13.718   7.102  0.0346  0.2775 -0.2392
  850POPE   NH312681  16.824   4.276   5.299 -0.0338 -0.1940  0.0580
  850POPE   PO412682  17.250   4.506   5.303 -0.2301  0.2189  0.1098
  850POPE   GL112683  17.123   4.338   5.756  0.2820  0.0262  0.0238
  850POPE   GL212684  16.770   4.296   5.826 -0.1220 -0.0174  0.0323
  850POPE   C1A12685  17.109   4.194   6.199  0.0150  0.0009  0.0498
  850POPE   D2A12686  17.336   3.991   6.549  0.0806  0.1781 -0.4423
  850POPE   C3A12687  17.739   4.173   6.800  0.1536  0.2192 -0.0403
  850POPE   C4A12688  18.119   4.304   6.645  0.1605 -0.1893 -0.1829
  850POPE   C1B12689  16.447   4.255   6.104 -0.0872  0.0247  0.1840
  850POPE   C2B12690  16.039   4.489   6.376  0.2022 -0.2462 -0.0322
  850POPE   C3B12691  15.566   4.660   6.254 -0.2302  0.1004 -0.0038
  850POPE   C4B12692  15.467   4.328   5.996  0.3919  0.3915  0.3012
  851POPE   NH312693   4.171   4.851   5.737 -0.2253  0.1644 -0.1337
  851POPE   PO412694   4.130   5.256   5.974 -0.3694  0.0612  0.3115
  851POPE   GL112695   4.333   5.524   6.241 -0.1009  0.0444 -0.1234
  851POPE   GL212696   4.212   5.859   6.397 -0.2102 -0.1167  0.0276
  851POPE   C1A12697   4.643   5.538   6.532  0.2976  0.2112 -0.3675
  851POPE   D2A12698   4.975   5.783   6.682 -0.2715  0.1474 -0.0992
  851POPE   C3A12699   5.113   5.645   7.061  0.2851  0.1713 -0.2396
  851POPE   C4A12700   4.971   5.558   7.418  0.1213 -0.3714  0.2137
  851POPE   C1B12701   3.990   5.522   6.682 -0.1578  0.3485 -0.3190
  851POPE   C2B12702   3.883   5.320   6.959  0.0451  0.1937 -0.2126
  851POPE   C3B12703   3.878   5.032   7.090  0.0047  0.2623  0.0360
  851POPE   C4B12704   4.134   4.806   7.360 -0.1198  0.1090 -0.2376
  852POPE   NH312705   5.588   5.199   5.921  0.0211 -0.1111  0.1148
  852POPE   PO412706   5.376   5.600   5.957  0.1392 -0.1551  0.0203
  852POPE   GL112707   5.275   5.305   6.293 -0.0673  0.2074 -0.0483
  852POPE   GL212708   5.115   5.124   6.220 -0.1807 -0.1194  0.2032
  852POPE   C1A12709   5.263   5.314   6.697  0.1635  0.0412  0.0328
  852POPE   D2A12710   5.303   5.051   7.075 -0.0367 -0.1335  0.1656
  852POPE   C3A12711   5.606   5.065   7.401  0.1882 -0.0542 -0.0667
  852POPE   C4A12712   5.906   5.072   7.461  0.2130 -0.0323  0.1514
  852POPE   C1B12713   4.790   5.052   6.550 -0.1010  0.1625 -0.2180
  852POPE   C2B12714   4.830   5.230   7.068 -0.2943  0.3703 -0.0651
  852POPE   C3B12715   5.118   5.016   7.517 -0.0664 -0.1572 -0.2726
  852POPE   C4B12716   5.498   4.925   7.863  0.1944 -0.0266 -0.1495
  853POPE   NH312717   2.061   2.739   5.421 -0.1500 -0.2892 -0.0241
  853POPE   PO412718   2.063   3.250   5.305 -0.2510 -0.1987  0.2008
  853POPE   GL112719   2.085   3.217   5.775  0.3045 -0.2159 -0.1609
  853POPE   GL212720   1.770   3.262   5.981 -0.1745  0.2512 -0.0927
  853POPE   C1A12721   2.228   3.527   6.075 -0.0208  0.0853 -0.1478
  853POPE   D2A12722   2.226   3.666   6.480  0.0742  0.0902  0.3328
  853POPE   C3A12723   2.054   3.608   6.945 -0.2219 -0.2798 -0.0232
  853POPE   C4A12724   2.102   3.393   7.338 -0.0141  0.0021 -0.3236
  853POPE   C1B12725   1.365   3.190   6.299 -0.1304  0.2659 -0.2577
  853POPE   C2B12726   1.158   3.074   6.646  0.0304 -0.0639  0.0440
  853POPE   C3B12727   1.233   3.047   6.993  0.1553  0.2008 -0.2726
  853POPE   C4B12728   1.136   2.839   7.332  0.0474  0.2229  0.0639
  854POPE   NH312729   5.811  10.661   5.461 -0.1698 -0.0333  0.1117
  854POPE   PO412730   5.805  10.161   5.351 -0.2742 -0.0162  0.3154
  854POPE   GL112731   5.930  10.176   5.745 -0.0115 -0.1230 -0.1834
  854POPE   GL212732   6.082  10.467   5.845 -0.2942 -0.1057  0.0070
  854POPE   C1A12733   5.668  10.286   6.192  0.0942 -0.2175  0.1269
  854POPE   D2A12734   5.661  10.374   6.637 -0.3355  0.0551 -0.0340
  854POPE   C3A12735   5.247  10.412   6.807 -0.2348 -0.2444  0.0785
  854POPE   C4A12736   4.877  10.317   6.782 -0.0464  0.0635  0.1512
  854POPE   C1B12737   5.984  10.655   6.248  0.0693 -0.0652 -0.1405
  854POPE   C2B12738   5.905  11.067   6.583  0.1776 -0.1672 -0.1921
  854POPE   C3B12739   5.811  11.157   7.058  0.1479  0.2065  0.0412
  854POPE   C4B12740   5.697  11.376   7.527  0.1633 -0.3167  0.4464
  855POPE   NH312741   8.157   9.667   5.860  0.0733  0.1536 -0.1986
  855POPE   PO412742   7.829   9.257   5.901 -0.2688  0.0577  0.0319
  855POPE   GL112743   7.784   9.425   6.287 -0.1635 -0.0124  0.2396
  855POPE   GL212744   7.771   9.787   6.313  0.0012  0.1234  0.2417
  855POPE   C1A12745   7.699   9.369   6.612 -0.3650 -0.0348  0.0430
  855POPE   D2A12746   7.671   9.313   7.133 -0.2463 -0.0542  0.0946
  855POPE   C3A12747   7.245   9.406   7.362 -0.1894  0.3789 -0.2159
  855POPE   C4A12748   6.864   9.485   7.408 -0.0082 -0.1149  0.2237
  855POPE   C1B12749   7.789   9.837   6.835 -0.4332 -0.0781 -0.2365
  855POPE   C2B12750   7.951   9.877   7.220 -0.0398 -0.1492 -0.2592
  855POPE   C3B12751   7.788   9.635   7.675  0.1058 -0.1609  0.0572
  855POPE   C4B12752   7.587   9.349   7.940  0.1576 -0.0650  0.0453
  856POPE   NH312753  14.510  10.787   5.540 -0.0731  0.0515  0.3811
  856POPE   PO412754  14.870  10.921   5.732  0.1855  0.0482  0.2927
  856POPE   GL112755  14.677  10.832   5.981  0.1001  0.0401  0.0619
  856POPE   GL212756  14.568  10.644   6.069 -0.0552  0.1213 -0.0916
  856POPE   C1A12757  14.655  11.158   6.217  0.0988 -0.3021 -0.2675
  856POPE   D2A12758  14.481  11.190   6.574 -0.3604  0.0861  0.1523
  856POPE   C3A12759  14.068  11.571   6.782  0.1710  0.1701  0.3133
  856POPE   C4A12760  13.746  11.885   6.915 -0.0619 -0.2095  0.3454
  856POPE   C1B12761  14.530  10.686   6.459  0.0222 -0.1983 -0.1321
  856POPE   C2B12762  14.572  10.734   6.799 -0.2406 -0.0782  0.0895
  856POPE   C3B12763  14.948  10.843   7.004  0.0663  0.1085  0.0459
  856POPE   C4B12764  15.189  11.156   7.275  0.1953  0.1797  0.0533
  857POPE   NH312765  11.070  15.627   5.485  0.0123  0.1675 -0.1170
  857POPE   PO412766  11.377  15.952   5.392  0.0180 -0.3145 -0.0439
  857POPE   GL112767  11.331  15.806   5.885  0.0626  0.0971  0.3657
  857POPE   GL212768  11.124  16.006   6.012 -0.1944  0.0117  0.3202
  857POPE   C1A12769  11.398  15.502   6.064 -0.1730 -0.0367 -0.4232
  857POPE   D2A12770  11.169  15.112   6.056 -0.0319 -0.1045  0.0971
  857POPE   C3A12771  10.766  14.965   5.963 -0.1396  0.2783  0.0679
  857POPE   C4A12772  10.453  14.757   5.838 -0.0203  0.1810  0.2301
  857POPE   C1B12773  11.295  15.871   6.469  0.0872 -0.1622  0.0304
  857POPE   C2B12774  11.412  16.199   6.644 -0.3219  0.2040 -0.0851
  857POPE   C3B12775  11.525  16.358   7.092 -0.0096 -0.0665 -0.1732
  857POPE   C4B12776  11.836  16.397   7.360  0.2210 -0.0372  0.0337
  858POPE   NH312777  12.774   1.180   5.214 -0.0732  0.0894  0.1608
  858POPE   PO412778  12.697   1.538   5.497 -0.2197  0.1228  0.1397
  858POPE   GL112779  12.504   1.512   5.832  0.1823 -0.1347  0.0435
  858POPE   GL212780  12.293   1.769   5.886 -0.3279  0.3655  0.0979
  858POPE   C1A12781  12.581   1.629   6.284  0.0300  0.2014  0.2977
  858POPE   D2A12782  12.692   1.666   6.772  0.0841 -0.1880 -0.0123
  858POPE   C3A12783  12.397   1.409   7.067 -0.0972  0.2425 -0.1919
  858POPE   C4A12784  12.065   1.610   7.162  0.0796  0.3557  0.2129
  858POPE   C1B12785  12.132   1.315   6.203 -0.0819  0.1236  0.0799
  858POPE   C2B12786  12.053   0.979   6.592  0.0686 -0.0157  0.0713
  858POPE   C3B12787  12.312   0.883   6.976 -0.0936 -0.0942 -0.0962
  858POPE   C4B12788  12.590   0.787   7.282  0.2515 -0.3257 -0.1008
  859POPE   NH312789  13.081  13.460   5.088 -0.0164 -0.1494 -0.2417
  859POPE   PO412790  13.555  13.223   5.131  0.0022  0.1043 -0.1875
  859POPE   GL112791  13.563  12.970   5.495 -0.3002 -0.1651 -0.1636
  859POPE   GL212792  13.213  12.802   5.564 -0.0485 -0.0243 -0.1630
  859POPE   C1A12793  13.598  12.574   5.795  0.1160  0.2182  0.2186
  859POPE   D2A12794  13.657  12.296   6.102  0.1458 -0.0945 -0.4386
  859POPE   C3A12795  13.677  12.194   6.487  0.1790  0.0687  0.2319
  859POPE   C4A12796  13.774  12.422   6.925  0.0423 -0.3461 -0.2707
  859POPE   C1B12797  13.337  12.997   5.966 -0.0922  0.1664 -0.1702
  859POPE   C2B12798  13.599  13.168   6.215  0.1412 -0.0645 -0.0939
  859POPE   C3B12799  13.799  13.337   6.612 -0.4351 -0.0778 -0.1627
  859POPE   C4B12800  14.044  13.759   6.735  0.0563 -0.4355  0.1915
  860POPE   NH312801   5.253   6.407   5.947 -0.2344 -0.0738  0.1332
  860POPE   PO412802   4.852   6.387   6.242  0.1286  0.1942  0.2007
  860POPE   GL112803   4.844   6.335   6.597 -0.0350 -0.2883 -0.1015
  860POPE   GL212804   4.830   6.584   6.679  0.1132  0.0733  0.1599
  860POPE   C1A12805   4.766   6.147   6.945  0.2130 -0.2374  0.2765
  860POPE   D2A12806   4.815   6.004   7.287 -0.0719  0.1601 -0.0141
  860POPE   C3A12807   4.404   5.890   7.399  0.0809  0.0126 -0.3854
  860POPE   C4A12808   4.189   5.766   7.796  0.0077 -0.1900  0.1857
  860POPE   C1B12809   4.904   6.562   7.130  0.3427 -0.1269 -0.0876
  860POPE   C2B12810   5.070   6.721   7.599  0.0307 -0.1079  0.0755
  860POPE   C3B12811   5.277   6.369   7.977  0.1448  0.1413  0.1451
  860POPE   C4B12812   5.577   6.363   8.290 -0.1235  0.0102 -0.1233
  861POPE   NH312813  10.267   9.118   5.210  0.0230 -0.1029 -0.0585
  861POPE   PO412814  10.022   9.349   5.595 -0.4442 -0.1362 -0.1126
  861POPE   GL112815   9.998   9.439   6.076  0.0079  0.0795  0.1719
  861POPE   GL212816   9.941   9.805   6.194  0.0832 -0.0269  0.0826
  861POPE   C1A12817   9.953   9.367   6.509  0.0151  0.0444 -0.4952
  861POPE   D2A12818   9.813   9.270   6.924  0.6405 -0.1226  0.1421
  861POPE   C3A12819   9.532   9.068   6.767 -0.2030  0.6273 -0.0123
  861POPE   C4A12820   9.176   8.782   6.949 -0.1555 -0.0505  0.1121
  861POPE   C1B12821   9.768  10.149   6.549 -0.0177 -0.0108 -0.2331
  861POPE   C2B12822   9.439  10.386   6.857 -0.0167 -0.1766  0.1905
  861POPE   C3B12823   9.055  10.531   6.646 -0.2639  0.3897  0.1609
  861POPE   C4B12824   8.583  10.482   6.605 -0.2722 -0.5316  0.1911
  862POPE   NH312825   0.476   4.281   5.570  0.0328  0.1583 -0.0196
  862POPE   PO412826   0.114   4.147   5.553 -0.2333 -0.0741 -0.1581
  862POPE   GL112827  -0.057   4.138   5.912  0.1129 -0.1385 -0.2047
  862POPE   GL212828  -0.238   4.353   5.854  0.1222  0.0968  0.0565
  862POPE   C1A12829  -0.520   4.004   6.144 -0.1492  0.1358 -0.1115
  862POPE   D2A12830  -0.908   4.144   6.252  0.0476 -0.0626 -0.0527
  862POPE   C3A12831  -1.265   3.958   6.095 -0.1105 -0.4071 -0.2425
  862POPE   C4A12832  -1.553   3.601   6.165  0.0158  0.1403 -0.2617
  862POPE   C1B12833  -0.250   4.361   6.366  0.1113  0.1101  0.2071
  862POPE   C2B12834  -0.178   4.271   6.750 -0.1999  0.1125 -0.0198
  862POPE   C3B12835   0.039   4.448   6.970  0.1895 -0.0802 -0.0255
  862POPE   C4B12836  -0.014   4.914   7.026  0.0486  0.1393  0.4310
  863POPE   NH312837  15.810  10.039   5.668 -0.1667  0.3301 -0.1413
  863POPE   PO412838  15.427  10.420   5.527 -0.0309  0.1383  0.0831
  863POPE   GL112839  15.546  10.449   5.973 -0.3335  0.0296  0.2069
  863POPE   GL212840  15.607  10.716   6.030  0.1106  0.1330 -0.0482
  863POPE   C1A12841  15.483  10.207   6.418 -0.1371 -0.0619  0.2846
  863POPE   D2A12842  15.431  10.185   6.897 -0.1710  0.1992 -0.3085
  863POPE   C3A12843  15.126  10.237   7.303 -0.0213 -0.0769 -0.0596
  863POPE   C4A12844  14.738  10.129   7.605 -0.2234 -0.2551 -0.1112
  863POPE   C1B12845  15.490  10.723   6.452 -0.1930  0.2611 -0.0342
  863POPE   C2B12846  15.478  10.671   6.878 -0.2102 -0.3655 -0.3958
  863POPE   C3B12847  15.381  10.675   7.331 -0.0698 -0.0566 -0.0357
  863POPE   C4B12848  15.374  10.870   7.683  0.2022 -0.0315  0.1452
  864YOPE   NH312849   4.738   9.479   5.749 -0.0120  0.4078 -0.2746
  864YOPE   PO412850   4.260   9.472   5.699  0.0515 -0.0345 -0.3183
  864YOPE   GL112851   4.079   9.651   6.028 -0.0057 -0.0797  0.0339
  864YOPE   GL212852   3.911   9.604   6.265 -0.2796 -0.0243  0.0070
  864YOPE   C1A12853   4.405   9.579   6.295 -0.2760  0.0766 -0.4297
  864YOPE   D2A12854   4.266   9.376   6.629  0.1322  0.4893  0.3572
  864YOPE   C3A12855   4.404   9.408   7.003 -0.2784 -0.1250 -0.1444
  864YOPE   C4A12856   4.661   9.498   7.413  0.0338 -0.4064  0.1739
  864YOPE   C1B12857   3.785   9.410   6.550  0.2358  0.0310  0.0503
  864YOPE   C2B12858   3.946   8.976   6.631  0.2770  0.2610 -0.0498
  864YOPE   D3B12859   3.886   8.546   6.684 -0.1157 -0.1990 -0.2677
  864YOPE   C4B12860   3.849   8.084   6.629  0.1216  0.0591 -0.0221
  865YOPE   NH312861  10.119   8.320   5.827  0.0680 -0.0064  0.1606
  865YOPE   PO412862   9.973   8.000   5.974 -0.0481 -0.0935  0.0320
  865YOPE   GL112863   9.856   8.168   6.203  0.0213 -0.1130  0.3289
  865YOPE   GL212864   9.881   8.562   6.201  0.2632 -0.0312 -0.1831
  865YOPE   C1A12865   9.625   8.011   6.614  0.2209  0.1022 -0.1354
  865YOPE   D2A12866   9.556   8.046   7.008  0.3496 -0.1703  0.0345
  865YOPE   C3A12867   9.442   8.467   7.218 -0.0009 -0.2027 -0.1402
  865YOPE   C4A12868   9.452   8.886   7.371  0.2623  0.0292 -0.1918
  865YOPE   C1B12869  10.168   8.752   6.547  0.1218 -0.1598  0.1836
  865YOPE   C2B12870  10.326   9.135   6.798  0.1729  0.0980 -0.0844
  865YOPE   D3B12871  10.288   9.436   7.194 -0.0370 -0.0539  0.4097
  865YOPE   C4B12872   9.982   9.627   7.468  0.1920 -0.1690 -0.2775
  866YOPE   NH312873   9.814   2.716   6.327 -0.4610 -0.2118 -0.2422
  866YOPE   PO412874  10.121   2.565   6.334  0.3769 -0.0062 -0.2459
  866YOPE   GL112875  10.492   2.728   6.244 -0.0000 -0.1794  0.3212
  866YOPE   GL212876  10.471   3.065   6.385 -0.3351 -0.0102  0.0751
  866YOPE   C1A12877  10.912   2.877   6.510  0.2819 -0.1682 -0.2999
  866YOPE   D2A12878  11.026   3.081   6.880 -0.0851  0.0495 -0.1258
  866YOPE   C3A12879  11.442   2.813   6.901 -0.0108 -0.1329 -0.1960
  866YOPE   C4A12880  11.525   2.571   7.136 -0.0633  0.0297 -0.0958
  866YOPE   C1B12881  10.455   2.923   6.843  0.0743 -0.0845  0.1078
  866YOPE   C2B12882  10.681   3.032   7.304 -0.0990  0.0298 -0.2640
  866YOPE   D3B12883  10.693   3.208   7.772 -0.1539  0.2990 -0.0338
  866YOPE   C4B12884  10.924   3.431   8.079 -0.2891 -0.1262  0.1990
  867YOPE   NH312885  10.762   4.602   6.069  0.0794 -0.0334  0.0387
  867YOPE   PO412886  10.371   4.900   6.086  0.2751 -0.4053 -0.4424
  867YOPE   GL112887  10.438   4.704   6.430 -0.4276  0.1643  0.1939
  867YOPE   GL212888  10.683   4.865   6.505 -0.1603  0.0688 -0.2884
  867YOPE   C1A12889  10.429   4.519   6.788  0.2878 -0.0482  0.0201
  867YOPE   D2A12890  10.504   4.557   7.179 -0.4190  0.1144  0.0448
  867YOPE   C3A12891  10.494   4.862   7.410  0.3440 -0.0477 -0.2591
  867YOPE   C4A12892  10.720   5.142   7.718  0.2041  0.1510 -0.5119
  867YOPE   C1B12893  10.905   4.763   6.846 -0.0903  0.1620  0.3462
  867YOPE   C2B12894  11.116   4.908   7.282  0.0412 -0.0318  0.0301
  867YOPE   D3B12895  11.346   4.708   7.659  0.0237  0.1200 -0.0897
  867YOPE   C4B12896  11.184   4.770   8.045  0.0973  0.0117  0.1348
  868YOPE   NH312897   3.857  14.189   5.586 -0.0903 -0.1672 -0.3150
  868YOPE   PO412898   3.637  14.609   5.757  0.0496  0.0795  0.1115
  868YOPE   GL112899   3.519  14.635   6.167 -0.2265  0.1027 -0.1872
  868YOPE   GL212900   3.391  14.936   6.087 -0.1249  0.2717  0.1467
  868YOPE   C1A12901   3.512  14.791   6.552  0.0934  0.1999  0.2815
  868YOPE   D2A12902   3.296  14.852   6.811 -0.1380 -0.1772  0.2950
  868YOPE   C3A12903   3.395  14.961   7.250  0.3912 -0.0426  0.0700
  868YOPE   C4A12904   3.597  14.604   7.529  0.3084 -0.1325  0.1407
  868YOPE   C1B12905   2.971  14.919   6.333  0.0985  0.0016  0.3226
  868YOPE   C2B12906   2.821  14.664   6.675  0.2224 -0.0585 -0.0567
  868YOPE   D3B12907   2.865  14.747   7.150  0.1311  0.1184 -0.2008
  868YOPE   C4B12908   2.908  14.991   7.468 -0.2527 -0.0665  0.1598
  869YOPE   NH312909   1.371   3.947   5.665 -0.0460 -0.0255 -0.4614
  869YOPE   PO412910   1.687   4.235   5.540  0.1662  0.1966  0.0318
  869YOPE   GL112911   1.666   4.354   5.918  0.0452 -0.0191  0.0128
  869YOPE   GL212912   1.905   4.409   5.972  0.0678 -0.3185 -0.0155
  869YOPE   C1A12913   1.793   4.090   6.322  0.1928  0.2215 -0.0672
  869YOPE   D2A12914   1.859   4.104   6.743  0.0930  0.2218 -0.0616
  869YOPE   C3A12915   1.814   3.958   7.162 -0.2095 -0.0614 -0.0681
  869YOPE   C4A12916   1.833   3.750   7.534 -0.0928 -0.0301  0.2320
  869YOPE   C1B12917   1.568   4.745   6.197  0.1885  0.1260 -0.0765
  869YOPE   C2B12918   1.182   5.101   6.212  0.0608  0.4433 -0.3455
  869YOPE   D3B12919   0.963   5.209   6.597  0.3048  0.1177  0.1779
  869YOPE   C4B12920   0.708   5.183   6.933  0.2722  0.0001  0.1428
  870YOPE   NH312921   0.873  16.536   5.347  0.0082  0.0182  0.0680
  870YOPE   PO412922   1.149  16.864   5.342 -0.3495  0.1028 -0.0444
  870YOPE   GL112923   1.275  16.659   5.744  0.1635  0.1285  0.1823
  870YOPE   GL212924   1.256  16.879   5.846  0.4942  0.1500 -0.4928
  870YOPE   C1A12925   1.463  16.469   6.133  0.0794  0.1390 -0.2976
  870YOPE   D2A12926   1.323  16.292   6.434  0.1818  0.0193 -0.1243
  870YOPE   C3A12927   1.505  16.200   6.796  0.4002  0.1648 -0.2600
  870YOPE   C4A12928   1.746  16.103   7.118  0.1442  0.1749 -0.0684
  870YOPE   C1B12929   1.381  16.916   6.273 -0.2327 -0.2521 -0.2425
  870YOPE   C2B12930   1.570  16.759   6.686 -0.1000  0.1489  0.3329
  870YOPE   D3B12931   1.691  16.775   7.054  0.0825 -0.2970  0.2170
  870YOPE   C4B12932   1.867  16.897   7.415 -0.0693  0.2904 -0.3819
  871YOPE   NH312933   4.044  11.873   5.677  0.3082 -0.0145 -0.0704
  871YOPE   PO412934   3.711  11.918   5.444  0.1733 -0.3491  0.2470
  871YOPE   GL112935   3.608  12.206   5.770  0.0510 -0.3159  0.2950
  871YOPE   GL212936   3.373  12.119   5.902  0.1141 -0.0173  0.0170
  871YOPE   C1A12937   3.694  12.392   6.216  0.1440  0.0078 -0.0956
  871YOPE   D2A12938   4.082  12.552   6.450  0.2261  0.3074 -0.0919
  871YOPE   C3A12939   4.316  12.941   6.426  0.2382 -0.0234  0.1503
  871YOPE   C4A12940   4.204  13.341   6.242  0.0246 -0.3706  0.2424
  871YOPE   C1B12941   3.283  12.094   6.349 -0.1895 -0.1410 -0.0860
  871YOPE   C2B12942   3.063  11.883   6.620  0.0157 -0.0241  0.1376
  871YOPE   D3B12943   2.827  11.484   6.846 -0.0156  0.1432  0.1141
  871YOPE   C4B12944   2.406  11.410   7.046 -0.0164  0.2498  0.2625
  872YOPE   NH312945   3.981   1.299   5.241 -0.0421 -0.0734 -0.3780
  872YOPE   PO412946   4.045   1.766   5.223 -0.2322  0.0571  0.0509
  872YOPE   GL112947   3.839   1.828   5.584 -0.0124 -0.0788 -0.2043
  872YOPE   GL212948   3.458   1.905   5.773  0.4479  0.0149 -0.0538
  872YOPE   C1A12949   3.750   1.490   5.940  0.0414  0.3117 -0.0966
  872YOPE   D2A12950   4.105   1.268   6.253 -0.3834 -0.1065  0.1462
  872YOPE   C3A12951   4.543   1.360   6.367  0.0262 -0.2816 -0.1755
  872YOPE   C4A12952   4.894   1.710   6.382 -0.3100 -0.2378 -0.0870
  872YOPE   C1B12953   3.527   1.861   6.213 -0.3044 -0.0609  0.2568
  872YOPE   C2B12954   3.553   2.118   6.470 -0.1625  0.0607  0.0322
  872YOPE   D3B12955   3.660   2.149   6.849  0.0455  0.2710  0.0845
  872YOPE   C4B12956   3.433   2.264   7.274  0.1483  0.0413  0.0558
  873YOPE   NH312957  17.108   1.928   5.422  0.0141 -0.3471 -0.0720
  873YOPE   PO412958  17.088   1.566   5.448  0.2013  0.3518 -0.0020
  873YOPE   GL112959  17.155   1.723   5.908 -0.0057  0.0152  0.0083
  873YOPE   GL212960  17.121   1.372   6.103 -0.0264  0.2207 -0.1792
  873YOPE   C1A12961  17.398   1.747   6.327 -0.0074  0.1466 -0.1578
  873YOPE   D2A12962  17.390   1.844   6.730  0.0285  0.1358 -0.1975
  873YOPE   C3A12963  17.021   1.565   6.938  0.0243  0.4013  0.4468
  873YOPE   C4A12964  16.707   1.553   7.297  0.0430  0.0501 -0.0452
  873YOPE   C1B12965  16.978   1.213   6.586  0.3646  0.0305  0.2544
  873YOPE   C2B12966  16.775   1.095   6.912  0.0190 -0.2470  0.1185
  873YOPE   D3B12967  16.666   1.070   7.345  0.0391  0.1169  0.1933
  873YOPE   C4B12968  16.606   1.235   7.707  0.0341 -0.0876  0.1908
  874YOPE   NH312969   9.562  15.169   5.743  0.2240 -0.1380 -0.1914
  874YOPE   PO412970   9.970  15.236   5.930  0.0593  0.0463 -0.1505
  874YOPE   GL112971   9.945  15.093   6.246 -0.2653 -0.1621  0.3857
  874YOPE   GL212972   9.605  15.116   6.237 -0.0511  0.2392  0.2950
  874YOPE   C1A12973  10.264  14.712   6.315 -0.1665 -0.1487  0.3004
  874YOPE   D2A12974  10.635  14.488   6.370  0.1195  0.2475  0.0997
  874YOPE   C3A12975  10.892  14.418   6.098  0.0581  0.2652 -0.0459
  874YOPE   C4A12976  10.936  14.613   5.671 -0.2916  0.0857  0.1977
  874YOPE   C1B12977   9.683  15.110   6.708  0.2947  0.0126 -0.1010
  874YOPE   C2B12978   9.580  15.165   7.160  0.2127  0.0678 -0.2084
  874YOPE   D3B12979   9.573  15.421   7.594  0.4579  0.0271  0.3461
  874YOPE   C4B12980   9.566  15.634   7.992  0.3029 -0.2036 -0.2852
  875YOPE   NH312981  10.771  11.418   5.510 -0.0439 -0.1199  0.1138
  875YOPE   PO412982  10.455  11.795   5.382 -0.0479  0.0711 -0.0310
  875YOPE   GL112983  10.414  11.652   5.828  0.0790 -0.1370 -0.0154
  875YOPE   GL212984  10.758  11.675   5.929 -0.0178 -0.0966 -0.0637
  875YOPE   C1A12985  10.510  11.809   6.363 -0.0995 -0.1753 -0.1852
  875YOPE   D2A12986  10.554  11.632   6.858 -0.1422 -0.3359  0.3508
  875YOPE   C3A12987  10.431  11.702   7.296  0.0116 -0.2191  0.0028
  875YOPE   C4A12988  10.228  11.764   7.636  0.2540  0.2430 -0.2124
  875YOPE   C1B12989  11.148  12.065   5.897  0.0440 -0.0802 -0.1383
  875YOPE   C2B12990  11.460  12.257   6.069 -0.0305 -0.1908  0.0271
  875YOPE   D3B12991  11.517  12.531   6.323  0.2174 -0.1092  0.1014
  875YOPE   C4B12992  11.781  12.895   6.398 -0.2841 -0.0670 -0.2791
  876YOPE   NH312993   6.552  12.811   6.152 -0.1265 -0.0611  0.3375
  876YOPE   PO412994   6.176  12.827   6.074  0.1231 -0.1909  0.0546
  876YOPE   GL112995   6.180  12.791   6.517 -0.1483 -0.1145  0.1759
  876YOPE   GL212996   6.207  12.411   6.358  0.0715  0.0994  0.0403
  876YOPE   C1A12997   6.314  12.585   6.851 -0.2591 -0.1917  0.1006
  876YOPE   D2A12998   6.636  12.432   7.169  0.2219  0.0861  0.0124
  876YOPE   C3A12999   6.688  12.729   7.576  0.1608 -0.2193 -0.1174
  876YOPE   C4A13000   7.017  12.956   7.845  0.3205 -0.1566  0.0030
  876YOPE   C1B13001   5.997  12.233   6.739 -0.3687 -0.0012  0.1839
  876YOPE   C2B13002   6.093  12.193   7.176 -0.1480  0.1363  0.1199
  876YOPE   D3B13003   6.128  12.669   7.396  0.3359 -0.1026 -0.1619
  876YOPE   C4B13004   6.235  13.001   7.693 -0.2377 -0.0014  0.2832
  877YOPE   NH313005   0.040   6.708   5.617  0.0360  0.0384 -0.1567
  877YOPE   PO413006  -0.246   6.457   5.527  0.2270 -0.1802  0.3038
  877YOPE   GL113007  -0.341   6.425   5.921 -0.0378  0.2629  0.0399
  877YOPE   GL213008  -0.208   6.601   6.051  0.2056 -0.2873 -0.2341
  877YOPE   C1A13009  -0.439   6.081   6.168 -0.1020  0.1540 -0.0923
  877YOPE   D2A13010  -0.472   5.720   6.375 -0.4051 -0.2162 -0.1686
  877YOPE   C3A13011  -0.653   5.739   6.853  0.1658  0.2184 -0.0062
  877YOPE   C4A13012  -0.628   5.557   7.271 -0.2428 -0.2002 -0.0865
  877YOPE   C1B13013  -0.507   6.539   6.357  0.1076  0.0250  0.0519
  877YOPE   C2B13014  -0.652   6.139   6.646  0.2264 -0.0233 -0.1166
  877YOPE   D3B13015  -0.501   6.224   7.041  0.3923 -0.0716  0.1284
  877YOPE   C4B13016  -0.468   6.060   7.466  0.0564 -0.0384 -0.1892
  878YOPE   NH313017  16.725   9.838   5.205 -0.2222 -0.0513 -0.3403
  878YOPE   PO413018  16.601   9.460   5.350  0.0896  0.2556 -0.1229
  878YOPE   GL113019  16.755   9.306   5.792  0.0426 -0.1287 -0.1064
  878YOPE   GL213020  16.509   9.322   6.015  0.4952  0.2969  0.1264
  878YOPE   C1A13021  17.043   9.411   6.161 -0.3580 -0.0455 -0.0261
  878YOPE   D2A13022  17.040   9.371   6.615  0.1056  0.1610 -0.0310
  878YOPE   C3A13023  17.081   9.821   6.841 -0.1497  0.1072  0.0837
  878YOPE   C4A13024  17.228  10.229   7.115  0.0010  0.0650 -0.0848
  878YOPE   C1B13025  16.409   9.322   6.416  0.0562  0.1476  0.0186
  878YOPE   C2B13026  16.469   9.535   6.755  0.0029 -0.0298  0.1911
  878YOPE   D3B13027  16.666   9.742   7.059  0.2348  0.4293  0.0018
  878YOPE   C4B13028  16.963   9.692   7.416  0.2115 -0.0453 -0.3788
  879YOPE   NH313029  14.986  12.741   5.551  0.1415 -0.1475 -0.1779
  879YOPE   PO413030  14.523  12.838   5.539 -0.3492 -0.2795  0.5381
  879YOPE   GL113031  14.731  12.721   5.988 -0.0247 -0.0284 -0.1497
  879YOPE   GL213032  15.016  12.802   6.097 -0.1467  0.2440 -0.1291
  879YOPE   C1A13033  14.681  12.713   6.423  0.0011  0.2921  0.3169
  879YOPE   D2A13034  14.766  12.778   6.865 -0.1447  0.0937  0.0434
  879YOPE   C3A13035  14.589  12.751   7.184 -0.0164  0.0080  0.1016
  879YOPE   C4A13036  14.260  12.955   7.430  0.0409 -0.2499 -0.1157
  879YOPE   C1B13037  14.901  13.154   6.333  0.1655 -0.1524 -0.1219
  879YOPE   C2B13038  14.723  13.226   6.652  0.2466 -0.0650 -0.0397
  879YOPE   D3B13039  14.515  13.428   6.853  0.0350 -0.1670  0.2027
  879YOPE   C4B13040  14.073  13.364   7.035 -0.0182  0.1272 -0.1635
  880YOPE   NH313041  10.940  13.344   5.303 -0.1928  0.0963 -0.1745
  880YOPE   PO413042  10.474  13.263   5.323 -0.2753 -0.0146  0.3396
  880YOPE   GL113043  10.400  13.469   5.766 -0.1207 -0.1795 -0.1769
  880YOPE   GL213044  10.700  13.651   5.787 -0.3458 -0.0556 -0.0056
  880YOPE   C1A13045  10.241  13.677   6.139 -0.3049 -0.0103 -0.1277
  880YOPE   D2A13046  10.526  13.749   6.520 -0.1457 -0.0069  0.1061
  880YOPE   C3A13047  10.893  14.071   6.522  0.0034 -0.1753  0.0225
  880YOPE   C4A13048  11.009  14.418   6.720  0.0222 -0.0449  0.0054
  880YOPE   C1B13049  10.613  14.023   6.084 -0.0861  0.0277  0.0014
  880YOPE   C2B13050  10.212  14.120   6.322 -0.0848  0.0075  0.0757
  880YOPE   D3B13051  10.041  13.877   6.593  0.2556  0.0645  0.2235
  880YOPE   C4B13052  10.132  13.801   6.897  0.1927 -0.0175  0.0929
  881YOPE   NH313053  12.364   8.423   5.752  0.4061 -0.2386 -0.0892
  881YOPE   PO413054  12.527   8.084   5.787 -0.0365 -0.1397 -0.1764
  881YOPE   GL113055  12.601   8.443   6.157 -0.1599 -0.1627 -0.1036
  881YOPE   GL213056  12.651   8.368   6.495  0.0958 -0.0035  0.2758
  881YOPE   C1A13057  12.882   8.791   6.293  0.0995  0.3001 -0.0069
  881YOPE   D2A13058  12.718   8.988   6.677 -0.0314 -0.3273  0.3763
  881YOPE   C3A13059  12.726   8.898   7.049 -0.1493 -0.1616 -0.3655
  881YOPE   C4A13060  12.610   8.909   7.421  0.0092 -0.1426  0.2726
  881YOPE   C1B13061  12.730   8.342   6.953  0.0690  0.0355  0.0168
  881YOPE   C2B13062  12.700   8.177   7.417  0.1086  0.1687  0.1717
  881YOPE   D3B13063  12.515   8.071   7.742 -0.1445 -0.0140 -0.1272
  881YOPE   C4B13064  12.520   7.590   7.914  0.1071 -0.1203  0.2775
  882YOPE   NH313065  12.115   4.044   5.331 -0.5463 -0.1212  0.0691
  882YOPE   PO413066  12.221   4.219   5.532  0.0415  0.0432 -0.3654
  882YOPE   GL113067  12.340   4.599   5.891  0.0355  0.1980  0.2899
  882YOPE   GL213068  12.634   4.467   5.948 -0.0954 -0.3155 -0.2661
  882YOPE   C1A13069  12.298   4.531   6.290 -0.0184 -0.0107 -0.1432
  882YOPE   D2A13070  12.168   4.452   6.717 -0.3036 -0.1707 -0.5222
  882YOPE   C3A13071  12.333   4.346   7.142 -0.0482  0.0644  0.2982
  882YOPE   C4A13072  12.616   4.351   7.473  0.2576  0.2344 -0.2411
  882YOPE   C1B13073  12.836   4.277   6.192  0.0098 -0.1322  0.0710
  882YOPE   C2B13074  13.194   3.944   6.144 -0.1793  0.0639 -0.1703
  882YOPE   D3B13075  13.657   3.988   6.068  0.0933 -0.2131  0.2459
  882YOPE   C4B13076  14.006   3.651   6.087 -0.0242  0.1648  0.1791
  883YOPE   NH313077  12.775   5.669   5.237  0.0203  0.1915 -0.1083
  883YOPE   PO413078  12.647   6.113   5.486 -0.3300 -0.3277 -0.2654
  883YOPE   GL113079  12.780   6.324   5.924 -0.1658 -0.0823  0.3281
  883YOPE   GL213080  12.808   6.531   6.243  0.0142  0.1238 -0.1344
  883YOPE   C1A13081  13.011   6.085   6.090 -0.1984 -0.2816  0.0824
  883YOPE   D2A13082  13.048   5.693   6.283 -0.1889 -0.0457  0.1733
  883YOPE   C3A13083  12.942   5.548   6.688  0.1072 -0.0449 -0.0326
  883YOPE   C4A13084  12.629   5.541   6.934  0.0231  0.2473  0.1605
  883YOPE   C1B13085  12.912   6.250   6.560  0.1734  0.1355 -0.1918
  883YOPE   C2B13086  12.917   5.965   6.955 -0.1932  0.0706  0.4204
  883YOPE   D3B13087  13.148   5.645   7.181  0.1478 -0.1795  0.3563
  883YOPE   C4B13088  13.244   5.281   7.092 -0.0846 -0.1712 -0.0255
  884YOPE   NH313089   6.171  17.680   5.668  0.1815  0.0263 -0.1456
  884YOPE   PO413090   6.402  17.323   5.596  0.0400  0.0065  0.1283
  884YOPE   GL113091   6.449  17.126   6.063  0.0385  0.0749 -0.1935
  884YOPE   GL213092   6.311  17.485   6.120 -0.0091  0.3770  0.0753
  884YOPE   C1A13093   6.691  16.752   6.288  0.0409 -0.0608  0.1580
  884YOPE   D2A13094   6.854  16.327   6.490  0.1831  0.0524  0.0057
  884YOPE   C3A13095   7.027  16.345   6.895 -0.0154 -0.0125  0.1367
  884YOPE   C4A13096   6.824  16.518   7.223 -0.0397 -0.0823 -0.1423
  884YOPE   C1B13097   6.321  17.296   6.525  0.0896  0.0358 -0.0333
  884YOPE   C2B13098   6.433  17.217   6.900  0.2660  0.1119  0.2046
  884YOPE   D3B13099   6.534  16.966   7.232  0.1376  0.2379  0.0485
  884YOPE   C4B13100   6.535  16.997   7.726 -0.0926  0.2244 -0.0902
  885YOPE   NH313101   1.409   2.430   4.777 -0.1283  0.2116  0.4337
  885YOPE   PO413102   1.487   2.298   5.226 -0.1161 -0.0513 -0.1534
  885YOPE   GL113103   1.548   2.406   5.725 -0.0643 -0.1398  0.0503
  885YOPE   GL213104   1.290   2.232   5.841 -0.0560 -0.1149 -0.3554
  885YOPE   C1A13105   1.772   2.693   5.980  0.2284 -0.2438  0.2121
  885YOPE   D2A13106   1.710   2.844   6.395 -0.2512 -0.3115  0.1301
  885YOPE   C3A13107   1.825   2.661   6.720 -0.2319 -0.0021  0.2620
  885YOPE   C4A13108   2.221   2.592   6.871  0.2189  0.0768  0.0057
  885YOPE   C1B13109   1.400   2.484   6.186  0.2902 -0.1190 -0.2298
  885YOPE   C2B13110   1.313   2.622   6.479  0.2044 -0.0410 -0.0737
  885YOPE   D3B13111   1.375   2.608   6.911  0.0599 -0.1458  0.4472
  885YOPE   C4B13112   1.619   2.663   7.227 -0.4102 -0.1960 -0.2028
  886YOPE   NH313113  14.790   1.476   5.497 -0.1338  0.1605  0.0713
  886YOPE   PO413114  14.915   1.952   5.342 -0.2549  0.3427  0.1081
  886YOPE   GL113115  15.286   1.917   5.563  0.0869 -0.0703  0.2645
  886YOPE   GL213116  15.130   1.667   5.808  0.0475  0.1082  0.2797
  886YOPE   C1A13117  15.469   2.023   5.885 -0.0297  0.0198 -0.0248
  886YOPE   D2A13118  15.323   2.418   6.047  0.2877 -0.0024 -0.2170
  886YOPE   C3A13119  15.180   2.694   5.868  0.2519 -0.3485 -0.0180
  886YOPE   C4A13120  15.025   3.012   6.100 -0.1375 -0.1492  0.1369
  886YOPE   C1B13121  15.251   1.630   6.206  0.2212  0.0207  0.1715
  886YOPE   C2B13122  15.231   1.678   6.589  0.0705  0.0856 -0.4054
  886YOPE   D3B13123  15.139   1.874   6.981 -0.3228  0.0251 -0.0014
  886YOPE   C4B13124  14.927   2.114   7.180  0.1659  0.1191 -0.1866
  887YOPE   NH313125  12.580  12.772   5.267  0.2478 -0.2222  0.0608
  887YOPE   PO413126  12.820  13.044   5.087  0.1642 -0.1040  0.1302
  887YOPE   GL113127  12.797  13.236   5.560 -0.0689  0.4593 -0.0947
  887YOPE   GL213128  12.566  13.460   5.705 -0.1965 -0.2970 -0.1806
  887YOPE   C1A13129  13.145  13.419   5.807 -0.1170 -0.0019 -0.1184
  887YOPE   D2A13130  13.566  13.377   5.756 -0.1731 -0.1669 -0.2588
  887YOPE   C3A13131  13.810  13.701   5.995  0.1023  0.0592  0.2015
  887YOPE   C4A13132  14.208  13.887   6.211  0.1041 -0.0427 -0.1900
  887YOPE   C1B13133  12.444  13.529   6.144 -0.1141  0.2579 -0.0764
  887YOPE   C2B13134  12.356  13.770   6.411 -0.2730 -0.1091 -0.3567
  887YOPE   D3B13135  12.363  13.488   6.731 -0.0822 -0.0556 -0.3241
  887YOPE   C4B13136  12.720  13.477   7.067 -0.0131  0.1482  0.1075
  888YOPE   NH313137   8.138   8.932   5.674  0.0581 -0.0289  0.4065
  888YOPE   PO413138   8.358   9.176   6.058  0.2835 -0.2426  0.1054
  888YOPE   GL113139   8.209   9.229   6.510 -0.2299 -0.0498  0.0758
  888YOPE   GL213140   8.284   9.620   6.477 -0.1574 -0.2004  0.2510
  888YOPE   C1A13141   8.093   9.111   6.883 -0.2599  0.3279 -0.0250
  888YOPE   D2A13142   7.837   8.838   7.172  0.3173  0.2824  0.0786
  888YOPE   C3A13143   7.978   8.561   7.444 -0.2758  0.3857  0.0349
  888YOPE   C4A13144   8.402   8.320   7.523  0.2890 -0.1595 -0.2297
  888YOPE   C1B13145   8.221   9.565   6.925 -0.1971 -0.0697 -0.1883
  888YOPE   C2B13146   8.160   9.382   7.369 -0.0731 -0.0241  0.3784
  888YOPE   D3B13147   7.911   9.124   7.583  0.1173  0.1242  0.2168
  888YOPE   C4B13148   7.531   8.943   7.603 -0.1006  0.0201  0.0528
  889YOPE   NH313149   8.041   5.933   6.241  0.3027 -0.1127  0.0634
  889YOPE   PO413150   7.759   5.586   6.308  0.4381  0.0994  0.1285
  889YOPE   GL113151   7.746   5.639   6.704  0.2126 -0.2849  0.0091
  889YOPE   GL213152   7.694   5.374   6.772  0.2062  0.0045 -0.0667
  889YOPE   C1A13153   8.002   5.781   7.028 -0.1497 -0.1056  0.2318
  889YOPE   D2A13154   8.001   5.892   7.437 -0.1382  0.0189 -0.1602
  889YOPE   C3A13155   8.146   6.165   7.668  0.3150  0.1174 -0.1880
  889YOPE   C4A13156   8.602   6.225   7.822  0.0526  0.1747  0.0911
  889YOPE   C1B13157   7.829   5.318   7.233 -0.2042  0.0071 -0.0923
  889YOPE   C2B13158   7.662   5.180   7.548  0.2106 -0.0569  0.0145
  889YOPE   D3B13159   7.554   5.107   8.029  0.1557  0.0073  0.0222
  889YOPE   C4B13160   7.157   5.343   8.297  0.0932 -0.0121 -0.0814
  890YOPE   NH313161  14.745   0.591   5.303 -0.1203 -0.0773 -0.2681
  890YOPE   PO413162  15.030   1.008   5.264  0.3507  0.1533  0.2093
  890YOPE   GL113163  15.057   1.101   5.659 -0.1056 -0.2023  0.6360
  890YOPE   GL213164  15.410   1.236   5.824 -0.0004  0.1843 -0.0636
  890YOPE   C1A13165  14.963   1.141   6.092 -0.2419 -0.2448  0.0254
  890YOPE   D2A13166  14.994   1.019   6.550 -0.2557 -0.0029  0.1851
  890YOPE   C3A13167  14.974   1.213   6.864  0.2418  0.1712  0.0377
  890YOPE   C4A13168  15.398   1.405   7.050  0.0236 -0.3203 -0.0541
  890YOPE   C1B13169  15.556   1.122   6.129 -0.2466  0.0453 -0.4304
  890YOPE   C2B13170  15.471   1.204   6.515  0.0656  0.0900  0.0542
  890YOPE   D3B13171  15.748   1.023   6.820  0.1637 -0.0567 -0.1105
  890YOPE   C4B13172  15.820   1.058   7.216 -0.0508  0.0036 -0.0914
  891YOPE   NH313173   3.526  10.801   6.055 -0.1108 -0.1033 -0.0706
  891YOPE   PO413174   3.855  11.010   5.882 -0.0226 -0.2914 -0.3670
  891YOPE   GL113175   4.125  10.914   6.146 -0.1473 -0.0751  0.0128
  891YOPE   GL213176   3.989  10.930   6.454 -0.0437  0.1538  0.5628
  891YOPE   C1A13177   4.315  10.570   6.430  0.1753 -0.0912 -0.0265
  891YOPE   D2A13178   4.379  10.359   6.775  0.0779  0.0731 -0.1583
  891YOPE   C3A13179   4.094  10.238   7.006 -0.2467 -0.2632  0.0933
  891YOPE   C4A13180   3.768  10.443   7.031  0.1475  0.1157  0.0472
  891YOPE   C1B13181   3.812  10.947   6.905  0.0618 -0.0003  0.0660
  891YOPE   C2B13182   3.641  11.208   7.146  0.3911  0.2331 -0.2763
  891YOPE   D3B13183   3.581  11.589   7.406 -0.2486  0.2147  0.4747
  891YOPE   C4B13184   3.728  12.061   7.411  0.2919  0.1715  0.0954
  892YOPE   NH313185   7.309  11.385   5.386  0.2393  0.2485  0.2570
  892YOPE   PO413186   7.011  11.405   5.643  0.1187 -0.2807 -0.0255
  892YOPE   GL113187   7.196  11.428   6.080  0.0226 -0.0499 -0.3513
  892YOPE   GL213188   7.203  11.205   6.310 -0.0677  0.2990  0.2935
  892YOPE   C1A13189   7.053  11.576   6.571  0.1170 -0.0106  0.1733
  892YOPE   D2A13190   6.893  11.733   6.967  0.2273 -0.0704 -0.3289
  892YOPE   C3A13191   6.906  12.032   7.286  0.1578 -0.0690  0.0306
  892YOPE   C4A13192   6.741  12.169   7.621  0.2096 -0.1721  0.1093
  892YOPE   C1B13193   7.220  11.101   6.741 -0.0310  0.1426 -0.1657
  892YOPE   C2B13194   7.198  11.335   7.133 -0.0424  0.3369 -0.1117
  892YOPE   D3B13195   7.416  11.495   7.456  0.0632 -0.2127 -0.0844
  892YOPE   C4B13196   7.775  11.610   7.681  0.0926  0.0283  0.1133
  893YOPE   NH313197  17.857   7.766   5.490 -0.3744 -0.1401  0.0573
  893YOPE   PO413198  17.357   7.478   5.443 -0.1873  0.0703 -0.2104
  893YOPE   GL113199  17.588   7.409   5.828  0.1473  0.0850 -0.0444
  893YOPE   GL213200  17.747   7.063   5.834 -0.1416 -0.1753  0.1337
  893YOPE   C1A13201  17.275   7.194   6.001  0.1342 -0.0394 -0.0606
  893YOPE   D2A13202  17.118   7.190   6.408  0.2055 -0.2740 -0.3120
  893YOPE   C3A13203  16.698   6.997   6.569  0.1298  0.2188 -0.2765
  893YOPE   C4A13204  16.436   6.609   6.751  0.0596 -0.2117  0.1720
  893YOPE   C1B13205  17.522   6.791   6.144 -0.0847  0.1466  0.1074
  893YOPE   C2B13206  17.565   6.820   6.617  0.0180  0.3387  0.1325
  893YOPE   D3B13207  17.553   6.661   6.965  0.6199  0.1696 -0.0359
  893YOPE   C4B13208  17.474   6.263   7.253 -0.2258  0.0542  0.0837
  894YOPE   NH313209   3.462  10.780   5.575  0.0189  0.1015 -0.0081
  894YOPE   PO413210   3.040  10.819   5.583 -0.0360  0.1100  0.0284
  894YOPE   GL113211   2.837  10.940   5.945  0.0818  0.0559 -0.1783
  894YOPE   GL213212   3.045  10.769   6.131 -0.3000 -0.1552  0.0932
  894YOPE   C1A13213   2.636  11.001   6.326 -0.0313 -0.0291 -0.0752
  894YOPE   D2A13214   2.551  11.042   6.705 -0.4274  0.0037  0.1378
  894YOPE   C3A13215   2.804  11.037   7.098  0.1767  0.1331  0.1624
  894YOPE   C4A13216   3.135  11.344   7.304 -0.1972  0.2419  0.0019
  894YOPE   C1B13217   3.027  10.950   6.612 -0.0795  0.1692  0.2598
  894YOPE   C2B13218   3.274  11.329   6.742  0.0120  0.1671  0.1159
  894YOPE   D3B13219   3.261  11.712   7.047  0.0832  0.2375  0.2009
  894YOPE   C4B13220   3.159  12.027   7.413 -0.1204  0.1412 -0.1083
  895YOPE   NH313221  13.629   5.633   5.571  0.1041  0.0816  0.1813
  895YOPE   PO413222  13.944   5.685   5.821 -0.0305  0.0995 -0.0258
  895YOPE   GL113223  14.057   5.580   6.254  0.6607  0.2579 -0.1256
  895YOPE   GL213224  14.341   5.751   6.332  0.0748 -0.1650 -0.1009
  895YOPE   C1A13225  14.063   5.500   6.676  0.1177  0.1796  0.1277
  895YOPE   D2A13226  13.872   5.782   7.070 -0.1236 -0.1378  0.1187
  895YOPE   C3A13227  13.600   5.530   7.412  0.0888  0.3487  0.2327
  895YOPE   C4A13228  13.102   5.430   7.629  0.0222  0.0352  0.1396
  895YOPE   C1B13229  14.426   5.936   6.789  0.0988 -0.2463  0.1485
  895YOPE   C2B13230  14.326   6.004   7.242  0.0155 -0.0706 -0.2890
  895YOPE   D3B13231  13.884   5.991   7.489  0.0265  0.0433 -0.1689
  895YOPE   C4B13232  13.536   6.087   7.416  0.0194  0.1839  0.2378
  896YOPE   NH313233  13.096   6.526   5.492 -0.0601  0.0230 -0.2544
  896YOPE   PO413234  13.463   6.300   5.301  0.0864 -0.1589 -0.0080
  896YOPE   GL113235  13.536   6.129   5.691 -0.2925  0.1019  0.3794
  896YOPE   GL213236  13.684   6.367   5.741  0.0419 -0.0530 -0.2227
  896YOPE   C1A13237  13.512   6.076   6.154  0.0581  0.1810  0.2675
  896YOPE   D2A13238  13.376   6.323   6.504  0.0116 -0.2496  0.3174
  896YOPE   C3A13239  13.755   6.565   6.645 -0.0663  0.0104 -0.0151
  896YOPE   C4A13240  14.012   6.804   6.849 -0.1126 -0.2128 -0.1818
  896YOPE   C1B13241  13.711   6.644   6.160 -0.0263  0.2218 -0.0682
  896YOPE   C2B13242  13.946   6.962   6.324  0.1298  0.0085  0.0884
  896YOPE   D3B13243  14.344   7.021   6.540 -0.1097  0.2236 -0.3672
  896YOPE   C4B13244  14.471   7.016   6.824  0.2401 -0.3009  0.0325
  897YOPE   NH313245   4.190  16.446   5.785  0.1307 -0.2966  0.3255
  897YOPE   PO413246   4.355  16.106   5.669 -0.1140 -0.2932 -0.0893
  897YOPE   GL113247   4.287  15.991   6.014  0.0700 -0.0451 -0.0644
  897YOPE   GL213248   4.191  16.188   6.291 -0.2596  0.0344  0.0990
  897YOPE   C1A13249   4.011  15.722   6.365  0.1990  0.2329  0.0964
  897YOPE   D2A13250   3.916  15.704   6.792 -0.1438  0.3414  0.1135
  897YOPE   C3A13251   4.357  15.681   6.930 -0.0287 -0.0734  0.1344
  897YOPE   C4A13252   4.777  15.688   6.846  0.5866  0.5944  0.0756
  897YOPE   C1B13253   4.178  16.169   6.691  0.0428  0.1175 -0.1523
  897YOPE   C2B13254   4.324  16.181   7.020 -0.2848 -0.2793  0.1136
  897YOPE   D3B13255   4.251  16.333   7.436 -0.1910  0.0328 -0.0775
  897YOPE   C4B13256   4.498  16.492   7.752 -0.0279  0.2522 -0.1346
  898YOPE   NH313257   6.601   5.848   6.193 -0.3741  0.2741  0.1110
  898YOPE   PO413258   6.912   5.631   6.413 -0.0156 -0.2051  0.3768
  898YOPE   GL113259   6.639   5.349   6.636 -0.1238  0.1054 -0.0770
  898YOPE   GL213260   6.758   4.939   6.514  0.2653  0.0005  0.0078
  898YOPE   C1A13261   6.465   5.402   6.940 -0.1229 -0.0106 -0.4817
  898YOPE   D2A13262   6.217   5.398   7.301  0.2413 -0.2153 -0.1671
  898YOPE   C3A13263   6.276   5.316   7.693  0.1999 -0.0021  0.0029
  898YOPE   C4A13264   5.847   5.412   7.849 -0.3514  0.0463  0.0518
  898YOPE   C1B13265   6.972   5.067   6.878 -0.0035 -0.0108  0.1214
  898YOPE   C2B13266   7.007   4.822   7.403  0.1663 -0.0930  0.1175
  898YOPE   D3B13267   6.895   4.461   7.654 -0.0164 -0.1117  0.1467
  898YOPE   C4B13268   6.777   4.237   8.039  0.1593 -0.1062 -0.2718
  899YOPE   NH313269   2.543  10.688   5.549  0.2750  0.1359  0.1473
  899YOPE   PO413270   2.680  10.351   5.727 -0.2140 -0.1662  0.0836
  899YOPE   GL113271   2.783  10.333   6.132  0.0788  0.0902 -0.1107
  899YOPE   GL213272   2.847   9.959   6.241  0.1899  0.0117 -0.1799
  899YOPE   C1A13273   2.557  10.513   6.394  0.1212  0.1298  0.3265
  899YOPE   D2A13274   2.220  10.694   6.458  0.0953  0.3112  0.1484
  899YOPE   C3A13275   2.095  10.833   6.702 -0.2765  0.3378 -0.4184
  899YOPE   C4A13276   2.199  10.908   7.058  0.3144  0.2790  0.0446
  899YOPE   C1B13277   2.639  10.083   6.640  0.3807  0.0626  0.0323
  899YOPE   C2B13278   2.631  10.133   7.056  0.1738  0.2307 -0.2176
  899YOPE   D3B13279   2.608  10.199   7.491 -0.0116 -0.0881  0.2142
  899YOPE   C4B13280   2.805   9.916   7.786  0.2152 -0.0836  0.3121
  900YOPE   NH313281  17.229   2.451   5.420 -0.2002  0.2814 -0.0490
  900YOPE   PO413282  17.664   2.557   5.490 -0.0784 -0.0382  0.2400
  900YOPE   GL113283  17.466   2.527   5.909  0.1970  0.0605 -0.0484
  900YOPE   GL213284  17.746   2.559   6.072  0.1166  0.2729  0.4063
  900YOPE   C1A13285  17.388   2.231   6.204  0.1107 -0.0556 -0.0911
  900YOPE   D2A13286  17.202   2.230   6.501  0.1845  0.3051 -0.1583
  900YOPE   C3A13287  16.734   2.282   6.327 -0.1854 -0.3300 -0.1417
  900YOPE   C4A13288  16.423   2.114   6.563 -0.0416  0.0219  0.1385
  900YOPE   C1B13289  17.996   2.739   6.262  0.2054  0.0130 -0.2911
  900YOPE   C2B13290  17.968   2.773   6.662  0.4119  0.1428 -0.3091
  900YOPE   D3B13291  18.214   2.828   6.988  0.3416  0.0286  0.0951
  900YOPE   C4B13292  18.486   2.707   7.142 -0.4085  0.2297  0.1007
  901YOPE   NH313293  12.252   3.105   5.796 -0.1717  0.0801  0.2077
  901YOPE   PO413294  12.004   3.500   5.866  0.1406  0.0447  0.2472
  901YOPE   GL113295  12.277   3.399   6.200 -0.0999  0.0295 -0.0938
  901YOPE   GL213296  12.388   3.041   6.248  0.1378  0.3891 -0.1952
  901YOPE   C1A13297  12.442   3.415   6.583 -0.2842 -0.0656 -0.2093
  901YOPE   D2A13298  12.538   3.092   6.807 -0.0029  0.1426  0.0712
  901YOPE   C3A13299  12.580   2.934   7.231 -0.1821  0.0033  0.1837
  901YOPE   C4A13300  12.678   3.023   7.740  0.2193  0.3510 -0.0096
  901YOPE   C1B13301  12.496   2.633   6.431 -0.0331  0.0013  0.0303
  901YOPE   C2B13302  12.599   2.540   6.846  0.0397 -0.0753  0.1173
  901YOPE   D3B13303  12.940   2.500   7.109  0.3365 -0.2449 -0.2776
  901YOPE   C4B13304  13.133   2.175   7.312  0.0822  0.0952  0.1279
  902YOPE   NH313305  14.434   5.905   5.870  0.0897  0.0097  0.0003
  902YOPE   PO413306  14.782   5.759   5.789  0.3296  0.0153  0.3430
  902YOPE   GL113307  14.684   5.388   5.948 -0.2061 -0.2183 -0.1219
  902YOPE   GL213308  14.308   5.334   5.991  0.0458 -0.0313  0.2443
  902YOPE   C1A13309  14.726   4.973   6.136  0.1853  0.0279 -0.0057
  902YOPE   D2A13310  14.685   4.745   6.582 -0.0734 -0.2012 -0.0043
  902YOPE   C3A13311  14.368   4.558   6.968 -0.0854  0.0840 -0.3231
  902YOPE   C4A13312  14.515   4.478   7.351 -0.1805  0.1634 -0.0647
  902YOPE   C1B13313  14.474   5.263   6.471  0.0771 -0.1957 -0.1821
  902YOPE   C2B13314  14.574   5.500   6.795 -0.2643  0.5164  0.0890
  902YOPE   D3B13315  14.559   5.538   7.220 -0.3240  0.0694  0.2678
  902YOPE   C4B13316  14.760   5.412   7.588 -0.0346 -0.2323  0.0543
  903YOPE   NH313317   9.028   9.333   5.775  0.0653  0.2049 -0.2118
  903YOPE   PO413318   8.849   9.149   6.184  0.0327  0.1382 -0.2570
  903YOPE   GL113319   8.894   9.165   6.548 -0.0775 -0.0739  0.0145
  903YOPE   GL213320   8.599   9.067   6.797  0.2155  0.2178 -0.2514
  903YOPE   C1A13321   9.052   9.339   6.996  0.0363  0.2880  0.1918
  903YOPE   D2A13322   9.460   9.408   7.278 -0.0030 -0.0746 -0.0258
  903YOPE   C3A13323   9.301   9.510   7.740 -0.1167  0.4059  0.2667
  903YOPE   C4A13324   9.048   9.548   8.153 -0.1853  0.3620 -0.0460
  903YOPE   C1B13325   8.554   9.177   7.203 -0.2914  0.2370  0.1884
  903YOPE   C2B13326   8.510   8.913   7.514  0.4402 -0.1180  0.0443
  903YOPE   D3B13327   8.708   8.695   7.821  0.1538 -0.0825 -0.0924
  903YOPE   C4B13328   8.682   8.705   8.315 -0.2392  0.1642 -0.0311
  904YOPE   NH313329   8.753  13.363   5.216  0.2197 -0.0753  0.2487
  904YOPE   PO413330   8.634  13.788   5.412 -0.0486 -0.0093 -0.3966
  904YOPE   GL113331   8.848  14.065   5.738  0.0060 -0.1846 -0.1055
  904YOPE   GL213332   8.601  14.286   5.853  0.1817 -0.1923  0.0976
  904YOPE   C1A13333   8.918  13.914   6.172 -0.2217 -0.0694  0.1936
  904YOPE   D2A13334   8.661  13.781   6.522  0.1800 -0.0167 -0.0267
  904YOPE   C3A13335   8.546  13.896   7.039 -0.1231 -0.1095  0.0944
  904YOPE   C4A13336   8.207  14.032   7.251  0.1885  0.0999 -0.2046
  904YOPE   C1B13337   8.421  14.240   6.236  0.1677  0.0288 -0.1030
  904YOPE   C2B13338   8.142  13.912   6.397 -0.2703  0.0292 -0.0653
  904YOPE   D3B13339   8.209  13.667   6.697  0.2743  0.1476  0.2355
  904YOPE   C4B13340   7.970  13.428   7.027 -0.1907  0.0216 -0.2121
  905YOPE   NH313341  17.599   5.647   5.564 -0.2936 -0.2428  0.2329
  905YOPE   PO413342  17.548   5.160   5.377 -0.0698  0.2050  0.2656
  905YOPE   GL113343  17.315   4.846   5.683 -0.1664  0.1303 -0.2713
  905YOPE   GL213344  17.578   4.929   5.860  0.0052 -0.1040 -0.1633
  905YOPE   C1A13345  17.057   4.853   6.046 -0.2890 -0.1262  0.0629
  905YOPE   D2A13346  16.870   4.634   6.296 -0.0907  0.1697 -0.1172
  905YOPE   C3A13347  16.848   4.714   6.645  0.3714  0.1461  0.4469
  905YOPE   C4A13348  16.915   4.946   6.875 -0.1570  0.1372 -0.2465
  905YOPE   C1B13349  17.407   5.060   6.306  0.4348  0.0412  0.0670
  905YOPE   C2B13350  17.347   5.006   6.748 -0.1994 -0.2924  0.2886
  905YOPE   D3B13351  17.533   4.941   7.096 -0.0180  0.0402 -0.0781
  905YOPE   C4B13352  17.613   4.759   7.531 -0.0099  0.0130  0.0910
  906YOPE   NH313353  14.458  16.854   5.428  0.2515  0.0416  0.0050
  906YOPE   PO413354  14.325  17.225   5.434  0.2556 -0.2009 -0.1049
  906YOPE   GL113355  14.163  17.296   5.835  0.0537  0.2707  0.0956
  906YOPE   GL213356  14.299  17.551   6.081 -0.0394 -0.1015 -0.2254
  906YOPE   C1A13357  14.221  17.040   6.261  0.2622 -0.0527 -0.1365
  906YOPE   D2A13358  14.314  17.025   6.708  0.2464  0.0247 -0.2816
  906YOPE   C3A13359  14.357  16.905   7.075 -0.0687 -0.3285 -0.0171
  906YOPE   C4A13360  14.677  16.620   7.215  0.0805  0.1855  0.2178
  906YOPE   C1B13361  14.129  17.495   6.430 -0.3329  0.1053 -0.2449
  906YOPE   C2B13362  13.908  17.509   6.740 -0.2495  0.2375  0.0297
  906YOPE   D3B13363  13.596  17.524   6.900 -0.0551  0.0546  0.1531
  906YOPE   C4B13364  13.262  17.406   6.986  0.0872 -0.1189 -0.2731
  907YOPE   NH313365  14.710  11.460   5.268  0.2074  0.0348  0.1305
  907YOPE   PO413366  14.294  11.699   5.470  0.1491  0.0152 -0.0661
  907YOPE   GL113367  14.270  11.735   5.867 -0.1117  0.1078  0.0698
  907YOPE   GL213368  14.121  11.417   5.916  0.0658 -0.2354 -0.2235
  907YOPE   C1A13369  14.566  11.786   6.332  0.0326  0.0022  0.0327
  907YOPE   D2A13370  14.655  12.059   6.592 -0.0556 -0.1266  0.0021
  907YOPE   C3A13371  14.494  11.892   6.950 -0.2037 -0.0966  0.1000
  907YOPE   C4A13372  14.398  11.722   7.214  0.0335  0.1295 -0.4106
  907YOPE   C1B13373  14.169  11.469   6.258 -0.1250  0.2491  0.1349
  907YOPE   C2B13374  13.847  11.217   6.500  0.1739  0.1538  0.0675
  907YOPE   D3B13375  13.631  10.996   6.890  0.0632 -0.2660  0.0857
  907YOPE   C4B13376  13.289  11.146   7.293  0.1870  0.1074  0.0964
  908YOPE   NH313377   4.079   9.995   5.636 -0.0633  0.0632 -0.0842
  908YOPE   PO413378   4.427  10.330   5.681  0.2955  0.0785  0.0239
  908YOPE   GL113379   4.562  10.447   5.997  0.1262  0.1195 -0.0265
  908YOPE   GL213380   4.647  10.713   6.085 -0.3292  0.1032 -0.0177
  908YOPE   C1A13381   4.642  10.193   6.397  0.1441  0.0335  0.0698
  908YOPE   D2A13382   4.635   9.876   6.703  0.1813 -0.1431 -0.0481
  908YOPE   C3A13383   4.485   9.900   7.040 -0.2018 -0.1435 -0.0434
  908YOPE   C4A13384   4.227   9.661   7.335  0.4778  0.2852 -0.2952
  908YOPE   C1B13385   4.882  10.708   6.395 -0.2360 -0.1243  0.2329
  908YOPE   C2B13386   4.886  10.922   6.755 -0.1623  0.3208 -0.1689
  908YOPE   D3B13387   5.065  10.821   7.130 -0.1381  0.1438  0.1501
  908YOPE   C4B13388   5.366  11.025   7.356 -0.1585 -0.3654 -0.1878
  909YOPE   NH313389   1.780  10.117   5.776 -0.1031 -0.0570  0.2721
  909YOPE   PO413390   1.792   9.640   5.726 -0.1650 -0.1210 -0.0280
  909YOPE   GL113391   1.862   9.747   6.116 -0.0474  0.0648 -0.0617
  909YOPE   GL213392   1.696  10.044   6.259 -0.3496 -0.1526  0.0866
  909YOPE   C1A13393   1.930   9.678   6.523 -0.0203  0.0270  0.0825
  909YOPE   D2A13394   2.124   9.505   6.898 -0.0801 -0.0544  0.3066
  909YOPE   C3A13395   1.907   9.284   7.210  0.0367 -0.1991  0.1701
  909YOPE   C4A13396   1.482   9.254   7.542 -0.3107  0.0493  0.1013
  909YOPE   C1B13397   1.508  10.030   6.662  0.0792 -0.0740  0.0408
  909YOPE   C2B13398   1.747   9.889   6.974 -0.0906 -0.3093 -0.1349
  909YOPE   D3B13399   2.030   9.792   7.355 -0.1736 -0.0352  0.0725
  909YOPE   C4B13400   2.136  10.029   7.632  0.2583  0.3703  0.0647
  910YOPE   NH313401   3.615   5.614   5.638  0.2996 -0.1843  0.4005
  910YOPE   PO413402   3.602   5.332   5.967  0.0718 -0.0104 -0.2307
  910YOPE   GL113403   3.453   5.277   6.327  0.2144 -0.3169  0.1477
  910YOPE   GL213404   3.785   5.102   6.395  0.0791  0.2891 -0.2280
  910YOPE   C1A13405   3.399   5.225   6.772 -0.1557  0.0592 -0.1274
  910YOPE   D2A13406   3.503   5.382   7.274 -0.4240 -0.1078 -0.1426
  910YOPE   C3A13407   3.881   5.320   7.465 -0.0231  0.2581  0.1267
  910YOPE   C4A13408   4.246   5.137   7.859  0.0481 -0.2698 -0.0466
  910YOPE   C1B13409   3.683   4.846   6.658 -0.1365 -0.0812  0.0014
  910YOPE   C2B13410   3.476   4.717   6.943 -0.1179 -0.0074 -0.1430
  910YOPE   D3B13411   3.368   4.457   7.311 -0.0150 -0.2212 -0.0528
  910YOPE   C4B13412   3.345   4.527   7.709 -0.1404  0.0571  0.0806
  911YOPE   NH313413  15.685   5.382   5.420  0.0047 -0.1656  0.1088
  911YOPE   PO413414  16.119   5.323   5.123  0.3026  0.1550  0.1471
  911YOPE   GL113415  16.412   5.511   5.421  0.6561 -0.1040  0.3914
  911YOPE   GL213416  16.698   5.761   5.326  0.0731  0.2462 -0.2943
  911YOPE   C1A13417  16.417   5.680   5.877  0.6481  0.0822  0.1063
  911YOPE   D2A13418  16.643   5.546   6.200 -0.1841 -0.2614 -0.0746
  911YOPE   C3A13419  16.841   5.799   6.463  0.0300  0.0749 -0.2164
  911YOPE   C4A13420  16.767   6.213   6.626  0.2752  0.0037  0.3423
  911YOPE   C1B13421  16.866   5.543   5.684 -0.2353 -0.5029 -0.0148
  911YOPE   C2B13422  16.692   5.168   5.775 -0.2041  0.0531 -0.1441
  911YOPE   D3B13423  16.456   4.756   5.860  0.2892  0.1683  0.3030
  911YOPE   C4B13424  15.923   4.613   5.924  0.2966 -0.2464 -0.1100
  912YOPE   NH313425   7.219  10.090   5.596  0.3295  0.0488 -0.0657
  912YOPE   PO413426   7.024   9.624   5.731  0.0786 -0.2302  0.3060
  912YOPE   GL113427   6.842   9.456   6.166  0.1241  0.0872 -0.1093
  912YOPE   GL213428   6.663   9.215   6.234  0.0225 -0.2353  0.1134
  912YOPE   C1A13429   6.858   9.437   6.654 -0.1878  0.1181  0.0075
  912YOPE   D2A13430   7.276   9.453   6.874  0.4008 -0.0507  0.1300
  912YOPE   C3A13431   7.342   9.866   7.157  0.3854  0.3944  0.1244
  912YOPE   C4A13432   7.412  10.173   7.381  0.1865 -0.1453  0.1504
  912YOPE   C1B13433   6.379   9.117   6.652  0.1462 -0.1902 -0.0540
  912YOPE   C2B13434   6.094   8.816   6.827 -0.1329 -0.2622 -0.2041
  912YOPE   D3B13435   5.842   8.790   7.182  0.1718  0.1471 -0.0782
  912YOPE   C4B13436   6.094   8.821   7.553  0.0634 -0.0023 -0.2772
  913YOPE   NH313437  18.557  18.440   5.584 -0.1948  0.2033  0.0592
  913YOPE   PO413438  18.130  18.626   5.515  0.1277  0.0990  0.3567
  913YOPE   GL113439  18.305  18.816   5.913  0.2294  0.1465 -0.4410
  913YOPE   GL213440  18.535  18.639   6.029 -0.0574  0.0554  0.0741
  913YOPE   C1A13441  18.481  18.975   6.371 -0.0245  0.1760  0.0979
  913YOPE   D2A13442  18.834  19.026   6.599  0.1219 -0.1249  0.1136
  913YOPE   C3A13443  19.351  19.116   6.597 -0.1857 -0.1860  0.0359
  913YOPE   C4A13444  19.660  19.017   6.957 -0.4665  0.1631  0.2559
  913YOPE   C1B13445  18.758  18.414   6.336  0.1931  0.1638  0.3652
  913YOPE   C2B13446  18.642  18.449   6.682  0.1701 -0.1452  0.0678
  913YOPE   D3B13447  18.458  18.754   6.893 -0.4069 -0.1816  0.0864
  913YOPE   C4B13448  18.561  19.094   7.067  0.0070 -0.0599  0.3567
  914YOPE   NH313449  10.814  10.519   5.639  0.1983  0.0630 -0.0497
  914YOPE   PO413450  10.976  10.810   5.323  0.2807 -0.1485  0.0595
  914YOPE   GL113451  10.984  11.008   5.736 -0.2119  0.0954  0.0498
  914YOPE   GL213452  11.146  11.386   5.780 -0.0871  0.3814 -0.1325
  914YOPE   C1A13453  10.858  11.132   6.165 -0.3491  0.0176  0.0514
  914YOPE   D2A13454  10.813  11.319   6.551 -0.0353 -0.1323  0.1569
  914YOPE   C3A13455  11.009  11.711   6.497  0.2972  0.1969 -0.0190
  914YOPE   C4A13456  11.389  11.733   6.104 -0.2642 -0.1585 -0.0530
  914YOPE   C1B13457  11.337  11.308   6.304  0.1941  0.0064  0.1783
  914YOPE   C2B13458  11.478  11.311   6.750  0.0565 -0.0340 -0.0452
  914YOPE   D3B13459  11.178  11.562   6.900 -0.3828  0.0305  0.2779
  914YOPE   C4B13460  10.958  11.944   6.971 -0.1671  0.1209  0.4571
  915YOPE   NH313461  16.178  18.009   5.514 -0.0555 -0.1750 -0.3040
  915YOPE   PO413462  16.650  18.076   5.445 -0.0112  0.1951  0.0549
  915YOPE   GL113463  16.725  18.101   5.848 -0.0777  0.0281  0.2132
  915YOPE   GL213464  16.527  18.378   5.889  0.0588  0.0020 -0.0275
  915YOPE   C1A13465  17.050  18.113   6.083  0.0357  0.1025  0.0595
  915YOPE   D2A13466  17.146  18.239   6.542  0.2614  0.0008 -0.0865
  915YOPE   C3A13467  17.072  18.003   6.905 -0.2485 -0.2808  0.1928
  915YOPE   C4A13468  17.281  17.750   7.178  0.1475 -0.0826 -0.1617
  915YOPE   C1B13469  16.460  18.394   6.225  0.0144  0.2265 -0.0904
  915YOPE   C2B13470  16.637  18.508   6.489 -0.4127  0.1334  0.4901
  915YOPE   D3B13471  16.821  18.448   6.896 -0.2929  0.1914 -0.1759
  915YOPE   C4B13472  16.965  18.327   7.214  0.4051 -0.0207  0.1642
  916YOPE   NH313473  11.493   3.500   5.987 -0.0973  0.1917 -0.0983
  916YOPE   PO413474  11.121   3.228   5.758  0.1850  0.1697  0.1873
  916YOPE   GL113475  11.313   3.042   6.192  0.0230 -0.0191 -0.1090
  916YOPE   GL213476  11.451   2.863   6.305 -0.0178  0.0218  0.2648
  916YOPE   C1A13477  11.422   3.284   6.704 -0.0220  0.0640 -0.1528
  916YOPE   D2A13478  11.426   3.323   7.126  0.0307  0.1229 -0.2620
  916YOPE   C3A13479  11.125   3.106   7.487  0.1048  0.1205  0.2943
  916YOPE   C4A13480  11.247   3.024   7.957 -0.0775 -0.2557  0.1152
  916YOPE   C1B13481  11.719   2.507   6.533  0.1192  0.2607 -0.1650
  916YOPE   C2B13482  12.098   2.335   6.564  0.3255  0.1881 -0.1407
  916YOPE   D3B13483  12.291   2.000   6.874 -0.3179 -0.2447 -0.1690
  916YOPE   C4B13484  12.633   2.076   7.124  0.0070 -0.1859 -0.0297
  917YOPE   NH313485  14.271  18.167   4.914 -0.0642  0.0334 -0.0324
  917YOPE   PO413486  14.301  18.148   5.405  0.4066  0.0497  0.0320
  917YOPE   GL113487  14.165  18.130   5.798 -0.0003 -0.0735 -0.3494
  917YOPE   GL213488  14.275  18.394   6.027 -0.1422 -0.0741 -0.1998
  917YOPE   C1A13489  14.018  17.925   6.138 -0.2626 -0.2318  0.0104
  917YOPE   D2A13490  13.688  17.545   6.082  0.0188 -0.0045 -0.1126
  917YOPE   C3A13491  13.515  17.404   6.397  0.1723 -0.0225  0.1654
  917YOPE   C4A13492  13.171  17.617   6.502  0.1140  0.1251 -0.1331
  917YOPE   C1B13493  14.186  18.402   6.406  0.3391  0.0892 -0.0922
  917YOPE   C2B13494  14.087  18.516   6.839 -0.1541  0.3270  0.0116
  917YOPE   D3B13495  13.844  18.376   7.195 -0.1387  0.1858  0.0970
  917YOPE   C4B13496  13.491  18.229   7.374  0.0109 -0.2246 -0.2712
  918YOPE   NH313497  18.551  17.133   5.343  0.0886 -0.0187 -0.0525
  918YOPE   PO413498  18.448  16.630   5.342  0.1302 -0.0515  0.0223
  918YOPE   GL113499  18.759  16.733   5.795 -0.2652  0.1777 -0.0703
  918YOPE   GL213500  18.978  16.817   5.760 -0.0717  0.1187 -0.1460
  918YOPE   C1A13501  18.857  16.200   6.021 -0.1860 -0.1950  0.1557
  918YOPE   D2A13502  18.832  15.777   6.218  0.2403  0.0531  0.1148
  918YOPE   C3A13503  18.547  15.698   6.543 -0.1118  0.2788 -0.0910
  918YOPE   C4A13504  18.298  15.504   6.944 -0.0712  0.1439 -0.4848
  918YOPE   C1B13505  18.932  16.692   6.224  0.1425  0.2787 -0.2510
  918YOPE   C2B13506  18.666  16.747   6.584  0.1890  0.0745 -0.0114
  918YOPE   D3B13507  18.582  16.957   6.996 -0.0648  0.1058 -0.2549
  918YOPE   C4B13508  18.343  17.127   7.291 -0.1740 -0.2007  0.4162
  919YOPE   NH313509   1.731  13.286   5.756  0.0128  0.1240 -0.0430
  919YOPE   PO413510   2.209  13.328   5.792 -0.1216  0.0986  0.3208
  919YOPE   GL113511   2.141  13.058   6.024  0.1435  0.0937  0.1165
  919YOPE   GL213512   1.803  12.979   6.142 -0.0242  0.1134  0.0843
  919YOPE   C1A13513   2.162  12.586   5.943  0.1984 -0.1846  0.1328
  919YOPE   D2A13514   2.349  12.206   6.036  0.0162  0.0553 -0.1796
  919YOPE   C3A13515   2.142  11.872   6.379 -0.1934  0.1045 -0.3142
  919YOPE   C4A13516   2.117  11.811   6.890 -0.1271  0.0221 -0.3303
  919YOPE   C1B13517   1.735  12.874   6.684 -0.0213  0.0719 -0.0749
  919YOPE   C2B13518   1.775  13.182   6.918  0.3445 -0.0425  0.0248
  919YOPE   D3B13519   2.052  13.233   7.167 -0.0633 -0.0188 -0.1529
  919YOPE   C4B13520   2.328  12.936   7.364 -0.0225 -0.1273  0.0050
  920YOPE   NH313521  11.337   8.277   5.559  0.0661  0.1277  0.1874
  920YOPE   PO413522  11.173   8.491   5.927 -0.1696 -0.0538  0.1912
  920YOPE   GL113523  11.238   8.543   6.362  0.0761 -0.0969 -0.4156
  920YOPE   GL213524  11.100   8.739   6.615 -0.3737 -0.0770  0.2112
  920YOPE   C1A13525  11.414   8.225   6.727  0.2558 -0.0436  0.1780
  920YOPE   D2A13526  11.413   8.183   7.154 -0.2484 -0.0049  0.1388
  920YOPE   C3A13527  11.722   8.206   7.502  0.2552 -0.1159  0.0916
  920YOPE   C4A13528  12.107   8.327   7.759 -0.1467 -0.4097 -0.2828
  920YOPE   C1B13529  11.067   8.674   7.113 -0.1117 -0.1342 -0.0251
  920YOPE   C2B13530  10.764   8.490   7.495  0.0682  0.4239 -0.2499
  920YOPE   D3B13531  10.371   8.210   7.576 -0.0561 -0.0797  0.2180
  920YOPE   C4B13532   9.965   8.277   7.823 -0.4312 -0.0982  0.0237
  921YOPE   NH313533  15.499  11.513   5.458  0.2006 -0.0921 -0.3214
  921YOPE   PO413534  15.133  11.347   5.654  0.0001  0.2143  0.0325
  921YOPE   GL113535  15.366  11.252   5.989 -0.3386  0.0042 -0.0118
  921YOPE   GL213536  15.177  10.943   6.094  0.1158 -0.1252  0.2209
  921YOPE   C1A13537  15.549  11.336   6.328  0.0493 -0.0022 -0.2830
  921YOPE   D2A13538  15.496  11.541   6.651 -0.0146 -0.0389 -0.0571
  921YOPE   C3A13539  15.398  11.519   7.047  0.1448 -0.0685  0.0357
  921YOPE   C4A13540  15.547  11.696   7.341  0.1666 -0.3163 -0.1072
  921YOPE   C1B13541  15.065  11.012   6.411 -0.0579 -0.2160  0.2369
  921YOPE   C2B13542  15.334  11.100   6.749 -0.1026  0.3614  0.3470
  921YOPE   D3B13543  15.690  11.105   7.036  0.1729  0.0067  0.0752
  921YOPE   C4B13544  15.681  11.188   7.473 -0.1205  0.0926  0.0250
  922YOPE   NH313545  10.940   4.531   5.540  0.0532  0.0841 -0.1410
  922YOPE   PO413546  10.893   4.149   5.895 -0.0480 -0.0885  0.2558
  922YOPE   GL113547  10.836   4.083   6.311  0.0745 -0.0596  0.0909
  922YOPE   GL213548  10.771   4.352   6.498 -0.0812  0.2281  0.0370
  922YOPE   C1A13549  11.156   3.825   6.584  0.2393  0.0168  0.0667
  922YOPE   D2A13550  11.484   3.783   6.889  0.0540 -0.0047 -0.0247
  922YOPE   C3A13551  11.408   3.944   7.272 -0.1012  0.3011  0.1060
  922YOPE   C4A13552  11.238   4.076   7.634 -0.3027  0.0695 -0.0400
  922YOPE   C1B13553  10.920   4.205   6.842  0.0284 -0.2922  0.0878
  922YOPE   C2B13554  11.077   4.424   7.263  0.1982 -0.0733  0.2138
  922YOPE   D3B13555  10.816   4.425   7.597  0.0715 -0.4473 -0.1711
  922YOPE   C4B13556  10.298   4.455   7.666 -0.2742 -0.1759  0.1601
  923YOPE   NH313557  16.792  14.335   5.488 -0.2145  0.2964 -0.3796
  923YOPE   PO413558  17.139  14.396   5.852  0.0336  0.2859  0.1676
  923YOPE   GL113559  17.038  14.126   6.249  0.2572 -0.2057 -0.0918
  923YOPE   GL213560  17.188  13.852   6.426  0.1072  0.1984 -0.2368
  923YOPE   C1A13561  16.691  14.220   6.603  0.1729 -0.3836  0.0247
  923YOPE   D2A13562  16.463  14.549   6.878  0.2180 -0.0211  0.1128
  923YOPE   C3A13563  16.085  14.502   6.766  0.0291 -0.4239 -0.2416
  923YOPE   C4A13564  15.784  14.631   6.555  0.2827 -0.0612  0.4605
  923YOPE   C1B13565  17.077  14.064   6.777 -0.1990  0.2969  0.2619
  923YOPE   C2B13566  17.033  14.344   6.982 -0.4761  0.0598  0.0645
  923YOPE   D3B13567  16.888  14.628   7.155 -0.0206 -0.1057 -0.0629
  923YOPE   C4B13568  16.452  14.735   7.390 -0.0773 -0.0840  0.4404
  924YOPE   NH313569  12.670  15.690   5.717  0.1652 -0.0183  0.1336
  924YOPE   PO413570  12.404  16.058   5.503 -0.1825 -0.1275 -0.1043
  924YOPE   GL113571  12.178  15.840   5.901 -0.1600 -0.0386  0.0350
  924YOPE   GL213572  12.262  15.501   6.036 -0.0154 -0.0599  0.1129
  924YOPE   C1A13573  11.853  15.723   6.073  0.1039  0.0765  0.1665
  924YOPE   D2A13574  11.636  15.550   6.476 -0.0123  0.2184  0.1024
  924YOPE   C3A13575  11.562  15.767   6.895 -0.0716 -0.2604  0.0405
  924YOPE   C4A13576  11.699  15.924   7.259 -0.0140  0.0437 -0.0771
  924YOPE   C1B13577  12.148  15.414   6.367  0.0525  0.0768  0.4256
  924YOPE   C2B13578  12.005  15.400   6.696 -0.0018 -0.1227  0.0099
  924YOPE   D3B13579  11.656  15.221   6.873  0.0202  0.2679 -0.0434
  924YOPE   C4B13580  11.346  15.190   7.082 -0.1225  0.1868 -0.0770
  925YOPE   NH313581   0.132  18.761   5.639 -0.1449  0.0570 -0.1022
  925YOPE   PO413582   0.464  19.002   5.710 -0.0734  0.0028 -0.5125
  925YOPE   GL113583   0.547  19.078   6.086  0.0631 -0.2145  0.1352
  925YOPE   GL213584   0.197  18.950   6.130 -0.0255 -0.0111 -0.1902
  925YOPE   C1A13585   1.001  18.978   6.171  0.1660  0.0305  0.1840
  925YOPE   D2A13586   1.111  18.756   6.526 -0.1481  0.1077  0.1848
  925YOPE   C3A13587   1.024  18.537   6.908  0.1358  0.1742 -0.4829
  925YOPE   C4A13588   1.136  18.365   7.323 -0.0411 -0.1437  0.1668
  925YOPE   C1B13589   0.164  19.401   6.325 -0.1554 -0.0222 -0.1124
  925YOPE   C2B13590   0.308  19.772   6.571 -0.1824 -0.0139  0.1371
  925YOPE   D3B13591   0.140  20.045   6.925  0.0639 -0.1430  0.0155
  925YOPE   C4B13592   0.295  20.458   7.022  0.1761 -0.0373 -0.0085
  926YOPE   NH313593  11.344  13.018   5.050 -0.0893 -0.0508 -0.1394
  926YOPE   PO413594  11.427  12.648   5.195  0.0290  0.2576  0.1465
  926YOPE   GL113595  11.120  12.576   5.578  0.0706  0.0382  0.3700
  926YOPE   GL213596  10.818  12.301   5.640 -0.0815 -0.1289  0.4457
  926YOPE   C1A13597  11.115  12.575   5.986 -0.2826 -0.1201 -0.3292
  926YOPE   D2A13598  10.802  12.645   6.339  0.2623  0.0940 -0.1627
  926YOPE   C3A13599  11.010  12.551   6.686  0.1546  0.0046  0.3925
  926YOPE   C4A13600  11.084  12.374   7.112  0.1301 -0.2494 -0.0341
  926YOPE   C1B13601  10.682  12.187   6.074  0.2918 -0.1305  0.2112
  926YOPE   C2B13602  10.857  12.158   6.447  0.0313 -0.0627  0.1603
  926YOPE   D3B13603  11.301  12.124   6.494  0.1343 -0.2682  0.0920
  926YOPE   C4B13604  11.601  12.322   6.764  0.1194  0.1314  0.2497
  927YOPE   NH313605   4.236  11.334   5.675  0.1483  0.1071 -0.1056
  927YOPE   PO413606   3.744  11.480   5.729 -0.2390 -0.1198 -0.0860
  927YOPE   GL113607   3.638  11.702   6.039  0.1705 -0.1956 -0.1004
  927YOPE   GL213608   3.788  11.881   6.116 -0.0868 -0.0380 -0.0879
  927YOPE   C1A13609   3.571  11.742   6.520 -0.1726  0.2613  0.1788
  927YOPE   D2A13610   3.692  11.796   6.899 -0.2677 -0.2231 -0.1606
  927YOPE   C3A13611   4.016  12.125   6.957  0.4398  0.2726  0.1998
  927YOPE   C4A13612   4.383  12.257   6.851 -0.1880 -0.0570  0.1066
  927YOPE   C1B13613   3.941  12.057   6.457 -0.0942 -0.1570 -0.3580
  927YOPE   C2B13614   3.619  12.331   6.731 -0.0655  0.3886  0.0607
  927YOPE   D3B13615   3.201  12.256   6.887  0.2112 -0.0009 -0.2450
  927YOPE   C4B13616   2.773  12.423   6.869 -0.3151  0.0907  0.0750
  928YOPE   NH313617  18.153  14.540   5.884 -0.3842  0.0290  0.2703
  928YOPE   PO413618  18.430  14.717   5.571 -0.3067 -0.0093  0.2119
  928YOPE   GL113619  18.669  14.848   5.956  0.1036 -0.0352  0.1120
  928YOPE   GL213620  18.581  14.595   6.211 -0.1156 -0.3492  0.0329
  928YOPE   C1A13621  18.568  15.142   6.308 -0.1071  0.0646  0.1900
  928YOPE   D2A13622  18.611  15.182   6.792 -0.0045 -0.0537 -0.2175
  928YOPE   C3A13623  18.621  14.983   7.103  0.0177  0.0929 -0.0141
  928YOPE   C4A13624  18.745  15.055   7.452  0.0448 -0.1551 -0.1248
  928YOPE   C1B13625  18.496  14.513   6.622  0.1044 -0.1166  0.0583
  928YOPE   C2B13626  18.383  14.549   7.066  0.1462 -0.0186 -0.0719
  928YOPE   D3B13627  18.062  14.456   7.418 -0.0293 -0.1249  0.1161
  928YOPE   C4B13628  17.782  14.266   7.693  0.1315  0.0718  0.4745
  929YOPE   NH313629   8.624   7.957   6.214  0.2229  0.1188 -0.1552
  929YOPE   PO413630   8.751   7.572   6.166 -0.0498  0.2451  0.0147
  929YOPE   GL113631   9.013   7.273   6.402 -0.3468 -0.0577 -0.0600
  929YOPE   GL213632   8.837   7.188   6.565 -0.1086  0.1264  0.2472
  929YOPE   C1A13633   9.247   7.137   6.830  0.2533  0.2186  0.3802
  929YOPE   D2A13634   9.638   7.096   6.924 -0.0471 -0.3826 -0.0892
  929YOPE   C3A13635   9.714   7.103   7.392 -0.2185 -0.1888  0.0605
  929YOPE   C4A13636   9.913   7.078   7.801 -0.1891 -0.0397 -0.0342
  929YOPE   C1B13637   8.701   7.271   6.915 -0.0605 -0.2442  0.2108
  929YOPE   C2B13638   8.876   7.369   7.282  0.1084 -0.0498 -0.1081
  929YOPE   D3B13639   9.029   7.590   7.691 -0.1218  0.2390 -0.0666
  929YOPE   C4B13640   9.207   8.011   7.910 -0.1628 -0.2902 -0.2479
  930YOPE   NH313641   3.030   8.190   5.620 -0.0245 -0.2243  0.0549
  930YOPE   PO413642   3.387   8.144   5.517  0.1606 -0.0183 -0.0726
  930YOPE   GL113643   3.309   8.013   6.018 -0.3455  0.1127 -0.1544
  930YOPE   GL213644   2.929   8.147   6.144  0.1122 -0.2154  0.2316
  930YOPE   C1A13645   3.402   7.869   6.388  0.2093  0.0363  0.0442
  930YOPE   D2A13646   3.388   7.868   6.797  0.0419 -0.0633 -0.1059
  930YOPE   C3A13647   3.622   8.204   7.063 -0.1284 -0.1950 -0.0962
  930YOPE   C4A13648   4.040   8.307   7.107 -0.1641 -0.3529  0.1549
  930YOPE   C1B13649   2.971   8.189   6.589  0.0028 -0.1688  0.1947
  930YOPE   C2B13650   2.926   8.053   7.002 -0.0280  0.1027 -0.2837
  930YOPE   D3B13651   2.813   7.734   7.244 -0.3127  0.0517  0.0038
  930YOPE   C4B13652   2.722   7.467   7.575 -0.2007 -0.0918 -0.2358
  931YOPE   NH313653   6.006   0.596   5.608 -0.2277 -0.5869  0.0081
  931YOPE   PO413654   6.408   0.549   5.836 -0.1166 -0.1143 -0.1528
  931YOPE   GL113655   6.044   0.406   6.110 -0.1049 -0.4735  0.0777
  931YOPE   GL213656   6.213   0.441   6.476  0.1435  0.1496 -0.2306
  931YOPE   C1A13657   5.773   0.359   6.546  0.1056 -0.1011 -0.2146
  931YOPE   D2A13658   5.767   0.540   6.914 -0.2079  0.0033 -0.0641
  931YOPE   C3A13659   5.438   0.545   7.248 -0.1036  0.0104 -0.1029
  931YOPE   C4A13660   5.233   0.562   7.642 -0.1702  0.2945 -0.0635
  931YOPE   C1B13661   6.311   0.427   6.877 -0.0320 -0.1492  0.2507
  931YOPE   C2B13662   6.603   0.483   7.194  0.0666 -0.2474 -0.2976
  931YOPE   D3B13663   6.605   0.823   7.472  0.1123 -0.2026  0.0999
  931YOPE   C4B13664   6.478   0.891   7.852 -0.3727  0.0351 -0.2327
  932POPC   NC313665   4.969  17.103   5.636  0.2053 -0.0574  0.1509
  932POPC   PO413666   5.037  16.690   5.636 -0.0604 -0.1122  0.1622
  932POPC   GL113667   5.044  16.857   6.067  0.1566 -0.2738 -0.1272
  932POPC   GL213668   5.213  17.030   6.178 -0.0126 -0.0014  0.4014
  932POPC   C1A13669   4.813  16.909   6.463  0.3613  0.1336  0.0803
  932POPC   D2A13670   4.909  16.849   6.948 -0.2111  0.2463  0.0523
  932POPC   C3A13671   4.904  17.100   7.317  0.0904  0.3126 -0.3398
  932POPC   C4A13672   4.660  17.042   7.660  0.2463  0.3034  0.4222
  932POPC   C1B13673   5.287  16.873   6.596 -0.0259  0.1091  0.0569
  932POPC   C2B13674   5.432  16.929   6.978 -0.4635 -0.1194 -0.4142
  932POPC   C3B13675   5.384  17.138   7.283 -0.0255 -0.0026  0.0445
  932POPC   C4B13676   5.624  17.419   7.586  0.1179  0.0870 -0.3155
  933POPC   NC313677  17.379  13.949   5.821 -0.0378  0.0411 -0.2996
  933POPC   PO413678  17.668  13.698   5.662  0.1603 -0.5044  0.1276
  933POPC   GL113679  17.604  13.510   6.080  0.1796  0.0837 -0.0712
  933POPC   GL213680  17.684  13.750   6.226 -0.3583 -0.1170  0.2980
  933POPC   C1A13681  17.872  13.283   6.312 -0.0298  0.1871 -0.0070
  933POPC   D2A13682  17.949  13.070   6.616 -0.2644 -0.1146  0.2618
  933POPC   C3A13683  18.244  13.216   7.014  0.0359 -0.1663  0.3184
  933POPC   C4A13684  18.311  13.082   7.481 -0.0089 -0.0904 -0.1739
  933POPC   C1B13685  17.433  13.442   6.588 -0.0595  0.0554  0.0986
  933POPC   C2B13686  17.101  13.525   6.941 -0.1456 -0.0041  0.1137
  933POPC   C3B13687  16.795  13.932   7.196 -0.2237  0.1708 -0.0525
  933POPC   C4B13688  16.535  14.249   7.340  0.1501  0.2911 -0.3173
  934POPC   NC313689   2.038  11.530   5.522 -0.0054  0.1526  0.1443
  934POPC   PO413690   1.672  11.355   5.643 -0.1168  0.1345 -0.0693
  934POPC   GL113691   1.371  11.445   5.900 -0.1067 -0.2281  0.0694
  934POPC   GL213692   1.163  11.209   5.874  0.1674 -0.2122 -0.1643
  934POPC   C1A13693   1.203  11.437   6.323  0.1064 -0.0165  0.0571
  934POPC   D2A13694   1.123  11.436   6.734  0.0715  0.1594  0.0411
  934POPC   C3A13695   0.823  11.231   7.011 -0.0596 -0.0913  0.0516
  934POPC   C4A13696   0.518  11.182   7.289  0.1668 -0.4672  0.1753
  934POPC   C1B13697   1.050  10.954   6.235 -0.1840  0.4243 -0.1284
  934POPC   C2B13698   0.903  10.999   6.564 -0.0862 -0.0462  0.0318
  934POPC   C3B13699   0.485  10.973   6.758  0.1077 -0.0035 -0.0580
  934POPC   C4B13700   0.474  10.490   6.908 -0.2057  0.0252  0.1976
  935POPC   NC313701  12.600   9.352   5.233 -0.0070 -0.2621  0.0950
  935POPC   PO413702  12.432   9.576   5.612  0.0304 -0.0268 -0.1444
  935POPC   GL113703  12.230   9.607   6.049 -0.2256 -0.0677 -0.0963
  935POPC   GL213704  12.400   9.939   6.220  0.0242  0.0643  0.6807
  935POPC   C1A13705  12.115   9.570   6.483  0.0928 -0.2034  0.2261
  935POPC   D2A13706  12.247   9.157   6.724 -0.1434 -0.3177 -0.1839
  935POPC   C3A13707  11.956   8.981   6.690 -0.0288  0.1015  0.1587
  935POPC   C4A13708  11.666   8.627   6.677 -0.2034  0.0482  0.0310
  935POPC   C1B13709  12.456  10.008   6.666  0.1045 -0.0527  0.0872
  935POPC   C2B13710  12.591  10.315   6.967  0.1800  0.2205 -0.5272
  935POPC   C3B13711  12.712  10.310   7.401  0.0162 -0.0450 -0.0043
  935POPC   C4B13712  12.756  10.211   7.876 -0.1253 -0.1913  0.1203
  936POPC   NC313713  18.015   2.853   5.266 -0.1955 -0.0200 -0.2035
  936POPC   PO413714  18.429   2.736   5.304  0.1566 -0.0902  0.2684
  936POPC   GL113715  18.750   2.609   5.589 -0.1805 -0.2269  0.1632
  936POPC   GL213716  19.055   2.694   5.694  0.0797 -0.0485  0.1396
  936POPC   C1A13717  18.693   2.429   6.033 -0.1593  0.0662 -0.0728
  936POPC   D2A13718  18.280   2.357   6.122  0.0119  0.0649  0.1917
  936POPC   C3A13719  17.969   2.172   5.885  0.3045 -0.2293 -0.0205
  936POPC   C4A13720  17.681   1.976   5.793  0.0140  0.3422  0.0618
  936POPC   C1B13721  19.132   2.617   6.174 -0.1189  0.0181 -0.2857
  936POPC   C2B13722  19.096   2.466   6.593  0.2477  0.0184  0.2005
  936POPC   C3B13723  18.898   2.635   6.945  0.3385 -0.0947  0.2910
  936POPC   C4B13724  18.958   2.812   7.278 -0.2891  0.1359  0.1393
  937POPC   NC313725  11.204   1.837   5.765 -0.0225 -0.1134 -0.2083
  937POPC   PO413726  11.410   1.435   5.699 -0.1799  0.2513  0.0435
  937POPC   GL113727  11.675   1.452   6.085 -0.0921 -0.0664 -0.0316
  937POPC   GL213728  11.472   1.662   6.223  0.3744  0.2632 -0.3802
  937POPC   C1A13729  11.763   1.383   6.503 -0.0279  0.0111 -0.1793
  937POPC   D2A13730  11.899   1.242   6.962 -0.0595 -0.1102  0.2857
  937POPC   C3A13731  11.644   1.217   7.401 -0.1272  0.4155  0.1345
  937POPC   C4A13732  11.528   1.205   7.779  0.1143 -0.3392 -0.3253
  937POPC   C1B13733  11.457   1.750   6.639 -0.2631 -0.1792  0.0780
  937POPC   C2B13734  11.813   1.968   6.784  0.2286  0.2352  0.1790
  937POPC   C3B13735  11.878   2.204   7.113 -0.1247 -0.1244  0.1582
  937POPC   C4B13736  11.884   2.457   7.552  0.0056 -0.1205 -0.4018
  938POPC   NC313737  16.523  14.070   4.828 -0.0067 -0.0931 -0.0826
  938POPC   PO413738  16.450  14.349   5.110 -0.0458  0.0046 -0.1744
  938POPC   GL113739  16.300  14.480   5.530 -0.1440 -0.1928 -0.0597
  938POPC   GL213740  16.368  14.719   5.722 -0.0287  0.2842 -0.1439
  938POPC   C1A13741  16.049  14.388   5.912  0.0579  0.1786  0.0447
  938POPC   D2A13742  15.992  14.205   6.314 -0.3916 -0.2261 -0.0784
  938POPC   C3A13743  16.266  13.920   6.486 -0.3290  0.0678 -0.0727
  938POPC   C4A13744  16.268  14.056   6.919 -0.1208 -0.0075  0.0963
  938POPC   C1B13745  16.380  14.686   6.200  0.0083  0.1293 -0.0165
  938POPC   C2B13746  16.788  14.731   6.442 -0.1622 -0.2169 -0.2067
  938POPC   C3B13747  16.838  14.907   6.739  0.1834 -0.1030  0.0065
  938POPC   C4B13748  16.915  15.142   7.133  0.2054 -0.3096 -0.0033
  939POPC   NC313749  13.173   1.721   5.368 -0.3633 -0.2694  0.0467
  939POPC   PO413750  13.319   1.412   5.430  0.1090 -0.3031 -0.0091
  939POPC   GL113751  13.160   1.279   5.791 -0.0657 -0.2264 -0.2261
  939POPC   GL213752  12.798   1.140   5.786 -0.4178 -0.0675  0.4423
  939POPC   C1A13753  13.105   1.299   6.175 -0.2082  0.0494 -0.1175
  939POPC   D2A13754  13.107   1.328   6.591  0.0619 -0.1849 -0.2399
  939POPC   C3A13755  13.171   1.655   6.873  0.1301  0.1079 -0.0195
  939POPC   C4A13756  13.475   1.909   6.986 -0.0299 -0.0354 -0.2901
  939POPC   C1B13757  12.621   1.150   6.176  0.0025 -0.0315 -0.0795
  939POPC   C2B13758  12.621   1.196   6.583  0.2110 -0.0406  0.1217
  939POPC   C3B13759  12.866   1.168   7.053 -0.0047 -0.1669 -0.1713
  939POPC   C4B13760  12.833   1.566   7.258  0.1063 -0.1291  0.2022
  940POPC   NC313761  18.135  18.309   5.133 -0.0882 -0.1921 -0.1235
  940POPC   PO413762  17.833  18.253   5.570  0.0347 -0.1259 -0.1710
  940POPC   GL113763  17.631  18.505   5.842 -0.0070 -0.0530  0.1962
  940POPC   GL213764  17.342  18.730   5.699  0.0920  0.1591  0.1147
  940POPC   C1A13765  17.766  18.718   6.129  0.4080 -0.3682 -0.4671
  940POPC   D2A13766  17.903  18.780   6.625 -0.1333  0.0128  0.0243
  940POPC   C3A13767  18.134  19.134   6.717  0.2203 -0.0187 -0.0923
  940POPC   C4A13768  18.135  19.372   7.034 -0.0057 -0.1767  0.0230
  940POPC   C1B13769  17.430  19.084   5.990 -0.1906  0.0649 -0.1746
  940POPC   C2B13770  17.621  19.250   6.303 -0.0771 -0.0236 -0.1553
  940POPC   C3B13771  17.633  19.438   6.644 -0.4822 -0.0336  0.1874
  940POPC   C4B13772  17.573  19.564   7.096  0.0277  0.1015 -0.0484
  941POPC   NC313773   2.807  18.328   4.932 -0.0954  0.0186  0.1440
  941POPC   PO413774   2.566  18.186   5.239  0.0275  0.1559  0.0811
  941POPC   GL113775   2.662  18.359   5.704  0.3832 -0.1443 -0.1165
  941POPC   GL213776   2.929  18.630   5.769 -0.1131  0.0103 -0.0217
  941POPC   C1A13777   2.814  18.210   6.055 -0.0882 -0.0192  0.2699
  941POPC   D2A13778   2.978  18.306   6.543 -0.1586 -0.2881 -0.0795
  941POPC   C3A13779   3.360  18.017   6.709 -0.1892 -0.4458 -0.2812
  941POPC   C4A13780   3.463  17.562   6.811  0.1144 -0.0349 -0.1191
  941POPC   C1B13781   2.676  18.738   6.161  0.4866 -0.2336  0.0583
  941POPC   C2B13782   2.531  19.097   6.454  0.0757  0.1300 -0.3063
  941POPC   C3B13783   2.295  19.132   6.839 -0.0215 -0.4303 -0.0562
  941POPC   C4B13784   2.392  19.071   7.228 -0.1364 -0.2511  0.0353
  942POPC   NC313785  17.504  13.251   5.644 -0.0907  0.0309  0.0875
  942POPC   PO413786  17.091  13.011   5.480  0.2552 -0.4110  0.2400
  942POPC   GL113787  17.200  12.988   5.911  0.1977 -0.1282 -0.1198
  942POPC   GL213788  17.449  13.017   6.146 -0.0983  0.0514  0.1778
  942POPC   C1A13789  17.111  12.676   6.315  0.1771 -0.2428  0.0551
  942POPC   D2A13790  17.268  12.411   6.552 -0.0389  0.0977 -0.0301
  942POPC   C3A13791  17.379  12.167   6.887 -0.2635  0.1008 -0.3320
  942POPC   C4A13792  17.773  12.304   7.262  0.3895  0.0036  0.2204
  942POPC   C1B13793  17.420  12.975   6.690 -0.2110  0.0110  0.0202
  942POPC   C2B13794  17.605  13.199   6.967  0.1740  0.1444 -0.1634
  942POPC   C3B13795  17.853  13.474   7.196 -0.2065 -0.0950  0.3218
  942POPC   C4B13796  17.973  13.407   7.519 -0.0248  0.2390 -0.0356
  943POPC   NC313797   7.218   0.196   6.092 -0.3860  0.1273 -0.0581
  943POPC   PO413798   7.363   0.025   6.437  0.0239  0.1553 -0.0910
  943POPC   GL113799   7.112   0.384   6.523 -0.1549  0.1897 -0.1455
  943POPC   GL213800   6.867   0.450   6.407 -0.3955  0.2382  0.2658
  943POPC   C1A13801   6.963   0.242   6.935 -0.0132 -0.2266  0.3507
  943POPC   D2A13802   6.872   0.054   7.323  0.0667 -0.0523 -0.1505
  943POPC   C3A13803   6.700  -0.018   7.711 -0.1233 -0.2364 -0.0933
  943POPC   C4A13804   6.441   0.083   8.014  0.0932  0.1395  0.2487
  943POPC   C1B13805   6.763   0.724   6.801 -0.0144  0.3405 -0.2689
  943POPC   C2B13806   7.044   0.634   7.220  0.2371  0.1184  0.4172
  943POPC   C3B13807   7.261   0.372   7.385 -0.1886 -0.1476 -0.0174
  943POPC   C4B13808   7.254   0.019   7.680 -0.1075  0.1101 -0.2336
  944POPC   NC313809  15.996   3.904   5.494  0.0174  0.1344  0.2938
  944POPC   PO413810  16.366   4.005   5.187  0.3628  0.0534  0.2888
  944POPC   GL113811  16.542   3.871   5.577 -0.1512  0.3692 -0.1158
  944POPC   GL213812  16.413   3.665   5.757 -0.3180 -0.3387 -0.0368
  944POPC   C1A13813  16.776   3.881   5.967  0.2676 -0.4479  0.1907
  944POPC   D2A13814  16.807   3.829   6.369  0.2344  0.2445  0.1604
  944POPC   C3A13815  16.842   4.085   6.788  0.0093 -0.3282  0.2165
  944POPC   C4A13816  16.872   4.081   7.212 -0.1183  0.0182  0.2519
  944POPC   C1B13817  16.624   3.407   6.117  0.1041  0.3547  0.0345
  944POPC   C2B13818  16.409   3.293   6.504  0.1927 -0.0835  0.1524
  944POPC   C3B13819  16.352   3.155   6.857 -0.1236  0.2768  0.0950
  944POPC   C4B13820  16.394   3.269   7.247 -0.0929 -0.1614  0.0546
  945POPC   NC313821   9.304   1.445   5.649 -0.3281  0.1161 -0.2115
  945POPC   PO413822   9.277   1.270   6.078  0.0201  0.0964 -0.2117
  945POPC   GL113823   9.120   1.542   6.460  0.1247 -0.0460 -0.1459
  945POPC   GL213824   9.318   1.856   6.544 -0.2639  0.2560 -0.1327
  945POPC   C1A13825   9.167   1.548   6.922 -0.1458  0.5057 -0.1012
  945POPC   D2A13826   9.264   1.524   7.273 -0.0341  0.0840 -0.0383
  945POPC   C3A13827   9.665   1.526   7.469 -0.0174  0.1737 -0.3202
  945POPC   C4A13828   9.833   1.594   7.852 -0.2510 -0.0472 -0.0461
  945POPC   C1B13829   9.076   2.017   6.891  0.0338  0.0669 -0.0583
  945POPC   C2B13830   9.361   2.070   7.258  0.4512  0.1852  0.0977
  945POPC   C3B13831   9.731   2.055   7.591  0.0333 -0.0277 -0.1221
  945POPC   C4B13832  10.097   2.353   7.747  0.1856  0.1720 -0.0436
  946POPC   NC313833  16.157   2.424   5.406 -0.1620 -0.0282 -0.4217
  946POPC   PO413834  15.836   2.196   5.188  0.0510  0.2164  0.1182
  946POPC   GL113835  15.942   2.008   5.621 -0.2212  0.1377 -0.2974
  946POPC   GL213836  16.198   2.097   5.815 -0.3829 -0.1722 -0.3465
  946POPC   C1A13837  15.818   1.646   5.978  0.1010 -0.1648 -0.0415
  946POPC   D2A13838  15.730   1.571   6.414 -0.1396  0.1297  0.1909
  946POPC   C3A13839  16.145   1.401   6.610 -0.2959 -0.1199 -0.2560
  946POPC   C4A13840  16.485   1.661   6.721  0.1683 -0.0134  0.1968
  946POPC   C1B13841  15.920   2.155   6.102 -0.0440 -0.0988  0.2791
  946POPC   C2B13842  15.606   2.140   6.387  0.2555  0.2265  0.3196
  946POPC   C3B13843  15.514   2.353   6.652 -0.2179  0.2271 -0.0562
  946POPC   C4B13844  15.568   2.292   7.085 -0.2238 -0.0644 -0.1348
  947POPC   NC313845   5.307  11.268   5.611 -0.0760  0.1167 -0.1263
  947POPC   PO413846   4.817  11.211   5.601 -0.2381  0.0434  0.0292
  947POPC   GL113847   4.581  11.214   6.049  0.0111 -0.0713 -0.0638
  947POPC   GL213848   4.784  11.317   6.308 -0.0005 -0.0994 -0.0365
  947POPC   C1A13849   4.471  11.043   6.489  0.2167 -0.1205 -0.1721
  947POPC   D2A13850   4.325  10.883   6.867  0.3468  0.1401  0.2199
  947POPC   C3A13851   4.599  10.723   7.220 -0.2909 -0.2391 -0.1691
  947POPC   C4A13852   4.620  10.375   7.252  0.1610 -0.0830  0.0215
  947POPC   C1B13853   5.058  11.584   6.549 -0.0057 -0.0810 -0.3179
  947POPC   C2B13854   5.062  11.919   6.822  0.3038  0.1863  0.0093
  947POPC   C3B13855   4.840  12.356   6.919 -0.2383 -0.0490  0.3404
  947POPC   C4B13856   4.982  12.743   6.976  0.0047  0.5815 -0.1858
  948POPC   NC313857   4.439   1.554   5.045  0.4457 -0.1569 -0.1617
  948POPC   PO413858   4.857   1.309   5.183 -0.0102  0.2349 -0.3550
  948POPC   GL113859   4.501   1.316   5.534  0.4694  0.0945  0.0288
  948POPC   GL213860   4.783   1.399   5.781  0.2369 -0.0819  0.2126
  948POPC   C1A13861   4.231   1.481   5.838 -0.2085  0.1452  0.0063
  948POPC   D2A13862   4.112   1.785   6.274 -0.2098  0.0914  0.1993
  948POPC   C3A13863   3.905   1.659   6.585  0.0601 -0.1035 -0.3826
  948POPC   C4A13864   3.805   1.328   6.681 -0.0563  0.2304  0.2462
  948POPC   C1B13865   4.535   1.038   6.011  0.0455 -0.1046 -0.1702
  948POPC   C2B13866   4.418   0.889   6.414 -0.1682 -0.4722  0.2256
  948POPC   C3B13867   4.408   1.089   6.821 -0.0939  0.1626 -0.0001
  948POPC   C4B13868   4.691   1.077   7.188  0.1813  0.0039 -0.0350
  949POPC   NC313869  10.537   9.192   5.810  0.2169 -0.1144  0.1439
  949POPC   PO413870  10.313   8.777   5.622 -0.1086  0.0453 -0.1394
  949POPC   GL113871  10.365   8.775   6.081 -0.0552 -0.0784  0.0051
  949POPC   GL213872  10.394   9.080   6.257  0.1477 -0.0467  0.0905
  949POPC   C1A13873  10.659   8.714   6.488  0.2486  0.1841 -0.2684
  949POPC   D2A13874  10.568   8.701   6.958 -0.2021  0.0139  0.2078
  949POPC   C3A13875  10.598   9.083   7.361 -0.1054 -0.1853 -0.1514
  949POPC   C4A13876  10.403   9.303   7.674  0.2629 -0.0144  0.3518
  949POPC   C1B13877  10.816   9.166   6.474 -0.0171 -0.1745 -0.4033
  949POPC   C2B13878  10.924   9.243   6.968 -0.0582 -0.3384 -0.0959
  949POPC   C3B13879  11.260   9.552   7.195  0.1608  0.0325  0.1763
  949POPC   C4B13880  11.427   9.927   7.259 -0.4658  0.0439 -0.4502
  950POPC   NC313881  14.127   2.230   5.381  0.0295  0.0521  0.3045
  950POPC   PO413882  13.653   2.079   5.342 -0.0573 -0.4537 -0.0046
  950POPC   GL113883  13.863   1.918   5.764  0.0512  0.0373 -0.3927
  950POPC   GL213884  13.519   1.783   5.835 -0.0078  0.2804  0.1292
  950POPC   C1A13885  13.847   1.915   6.252  0.0569  0.1537  0.0504
  950POPC   D2A13886  13.891   2.219   6.548 -0.0579  0.1246 -0.2233
  950POPC   C3A13887  13.702   2.590   6.603 -0.0769 -0.2751 -0.3501
  950POPC   C4A13888  13.507   2.833   6.956  0.0277  0.0489  0.0349
  950POPC   C1B13889  13.588   1.429   6.139  0.0657  0.2464  0.0257
  950POPC   C2B13890  13.484   1.072   6.414 -0.3258  0.1827  0.0770
  950POPC   C3B13891  13.594   0.502   6.481 -0.4049 -0.1022 -0.0953
  950POPC   C4B13892  13.335   0.248   6.487 -0.1630  0.2623 -0.1298
  951POPC   NC313893  17.434   9.486   5.261  0.2431 -0.1376 -0.2693
  951POPC   PO413894  17.032   9.432   5.130  0.0122 -0.2665 -0.0062
  951POPC   GL113895  17.178   9.125   5.543  0.1191 -0.1171  0.0363
  951POPC   GL213896  17.317   9.383   5.757  0.2276 -0.0710  0.1653
  951POPC   C1A13897  17.153   8.846   5.857 -0.1164 -0.0161  0.1057
  951POPC   D2A13898  17.515   8.804   6.099 -0.0280 -0.2315  0.0833
  951POPC   C3A13899  17.685   8.831   6.534 -0.4411 -0.0701 -0.0781
  951POPC   C4A13900  18.120   8.887   6.545 -0.1100  0.0205 -0.0359
  951POPC   C1B13901  17.487   9.277   6.161 -0.2042  0.2737 -0.2814
  951POPC   C2B13902  17.520   9.248   6.685 -0.1034  0.0120 -0.2217
  951POPC   C3B13903  17.648   9.087   7.034 -0.0592 -0.0967  0.0087
  951POPC   C4B13904  17.421   9.215   7.358 -0.0879  0.0664 -0.0692
  952POPC   NC313905  14.303  15.865   5.250  0.2205  0.2267 -0.0673
  952POPC   PO413906  14.237  16.376   5.353  0.0910 -0.1180  0.1607
  952POPC   GL113907  14.137  16.164   5.776 -0.0449  0.0217  0.2903
  952POPC   GL213908  13.750  16.305   5.754 -0.0653 -0.3273 -0.1304
  952POPC   C1A13909  14.439  16.268   6.118 -0.0542  0.0179 -0.0600
  952POPC   D2A13910  14.698  16.270   6.459 -0.2421 -0.3210 -0.1694
  952POPC   C3A13911  14.621  16.512   6.743  0.0769  0.2778  0.2756
  952POPC   C4A13912  14.772  16.948   6.753  0.1187  0.1048  0.0667
  952POPC   C1B13913  13.913  16.446   6.169  0.1936  0.3506  0.2920
  952POPC   C2B13914  14.190  16.542   6.450 -0.1438 -0.1911  0.0302
  952POPC   C3B13915  14.641  16.779   6.273  0.2187 -0.3740  0.1688
  952POPC   C4B13916  15.003  16.959   6.140  0.1962  0.0794  0.0107
  953POPC   NC313917  13.503   3.526   5.599  0.1037  0.5360 -0.0819
  953POPC   PO413918  13.164   3.230   5.634 -0.0588 -0.2359  0.1364
  953POPC   GL113919  13.269   2.987   5.960  0.2656 -0.0081 -0.0606
  953POPC   GL213920  13.529   2.770   5.949 -0.0769 -0.1154 -0.4685
  953POPC   C1A13921  13.283   2.844   6.411 -0.1742  0.1511 -0.1980
  953POPC   D2A13922  13.027   2.866   6.781  0.2493  0.2692  0.0927
  953POPC   C3A13923  12.984   3.213   7.134 -0.1051  0.3629  0.0730
  953POPC   C4A13924  13.088   3.223   7.517  0.1520 -0.1262 -0.2622
  953POPC   C1B13925  13.805   2.982   6.292  0.0611 -0.0450 -0.1714
  953POPC   C2B13926  14.129   3.251   6.416  0.0669 -0.0008  0.0771
  953POPC   C3B13927  14.319   3.614   6.504 -0.1259  0.1972 -0.1559
  953POPC   C4B13928  14.369   3.692   6.817 -0.0165 -0.3340 -0.0378
  954POPC   NC313929  18.501   4.168   5.390 -0.1416  0.1190 -0.0485
  954POPC   PO413930  18.262   4.523   5.539  0.1890 -0.1800 -0.0646
  954POPC   GL113931  18.086   4.690   5.928  0.2859  0.1643 -0.0453
  954POPC   GL213932  18.218   4.536   6.099  0.1717 -0.1337  0.1410
  954POPC   C1A13933  17.868   4.916   6.226  0.0626 -0.0902 -0.0221
  954POPC   D2A13934  17.889   4.915   6.661 -0.4075 -0.0495 -0.0047
  954POPC   C3A13935  17.938   4.610   7.002 -0.0081  0.0733 -0.3107
  954POPC   C4A13936  18.187   4.172   7.174  0.2497 -0.3094  0.1456
  954POPC   C1B13937  18.337   4.750   6.451  0.0973 -0.2363  0.1135
  954POPC   C2B13938  18.376   4.761   6.793  0.2182  0.0384  0.1993
  954POPC   C3B13939  18.286   5.002   7.201 -0.1459  0.2252 -0.2225
  954POPC   C4B13940  17.978   5.136   7.424  0.0582 -0.2560  0.1494
  955POPC   NC313941  12.223   5.696   5.184  0.0672  0.0973 -0.2192
  955POPC   PO413942  12.384   5.292   5.175 -0.3007 -0.0189 -0.0104
  955POPC   GL113943  12.636   5.188   5.485  0.0823 -0.0011  0.0711
  955POPC   GL213944  12.875   4.928   5.506  0.2962 -0.1308  0.1077
  955POPC   C1A13945  12.708   5.012   5.983  0.0506  0.1316  0.0553
  955POPC   D2A13946  12.905   4.737   6.255  0.0109  0.0214 -0.2780
  955POPC   C3A13947  12.748   4.558   6.649 -0.1900  0.2691  0.2484
  955POPC   C4A13948  12.874   4.602   7.093  0.1807  0.0093  0.0030
  955POPC   C1B13949  13.083   4.720   5.765 -0.3517  0.0132 -0.1010
  955POPC   C2B13950  13.269   4.384   5.964 -0.3557 -0.1561  0.2564
  955POPC   C3B13951  13.324   4.433   6.371  0.0785  0.2022 -0.1785
  955POPC   C4B13952  13.534   4.150   6.547  0.3484  0.0909 -0.2659
  956POPC   NC313953   0.093   6.118   5.316 -0.0778 -0.0891  0.0317
  956POPC   PO413954  -0.133   5.629   5.304 -0.1924 -0.1415  0.0182
  956POPC   GL113955   0.068   5.484   5.622 -0.2456  0.1456 -0.2275
  956POPC   GL213956   0.270   5.694   5.775  0.0660  0.0303 -0.0058
  956POPC   C1A13957   0.002   5.134   5.917 -0.4177 -0.2856  0.0607
  956POPC   D2A13958  -0.086   4.759   6.148  0.0061 -0.1999  0.2523
  956POPC   C3A13959   0.090   4.889   6.526 -0.0382 -0.2801 -0.2019
  956POPC   C4A13960   0.235   5.239   6.757 -0.0743 -0.0350 -0.2040
  956POPC   C1B13961   0.457   5.267   5.913 -0.1927 -0.1731 -0.0932
  956POPC   C2B13962   0.455   4.873   6.157 -0.3505 -0.0653  0.2420
  956POPC   C3B13963   0.591   4.732   6.651 -0.1487  0.0891 -0.4844
  956POPC   C4B13964   0.466   4.741   7.064 -0.1584 -0.1554 -0.0146
  957POPC   NC313965   3.484   7.235   5.515  0.0628  0.0825 -0.1662
  957POPC   PO413966   3.833   7.076   5.845 -0.0057 -0.2454  0.0552
  957POPC   GL113967   3.760   7.039   6.178  0.0035 -0.2193 -0.2041
  957POPC   GL213968   4.075   7.157   6.314  0.1695 -0.0003 -0.0683
  957POPC   C1A13969   3.561   7.136   6.618 -0.0766  0.1840 -0.0692
  957POPC   D2A13970   3.510   7.398   6.972 -0.3055  0.0642 -0.0713
  957POPC   C3A13971   3.721   7.345   7.353  0.2287  0.1556  0.0766
  957POPC   C4A13972   3.825   7.673   7.615  0.0015 -0.0918  0.1487
  957POPC   C1B13973   4.042   7.122   6.688 -0.2166 -0.3647  0.0354
  957POPC   C2B13974   4.068   7.302   7.005  0.1425 -0.1101  0.0164
  957POPC   C3B13975   4.169   7.220   7.403 -0.4576  0.2714 -0.4460
  957POPC   C4B13976   4.017   7.124   7.817 -0.1215  0.2263 -0.4054
  958POPC   NC313977  18.029  10.427   4.904  0.0169 -0.1480  0.2011
  958POPC   PO413978  18.112  10.351   5.234  0.1249 -0.0440  0.1111
  958POPC   GL113979  17.973  10.593   5.556 -0.2600  0.0649  0.3482
  958POPC   GL213980  18.204  10.608   5.676 -0.4037  0.0445 -0.0055
  958POPC   C1A13981  17.628  10.872   5.695 -0.0872 -0.0305 -0.0283
  958POPC   D2A13982  17.354  11.080   5.949 -0.3713 -0.0627  0.0991
  958POPC   C3A13983  17.310  11.171   6.413  0.2047 -0.0056 -0.3180
  958POPC   C4A13984  17.398  11.004   6.852 -0.1439 -0.4656 -0.3702
  958POPC   C1B13985  18.369  10.381   5.928  0.0031  0.0313  0.0842
  958POPC   C2B13986  18.190  10.256   6.285 -0.0728  0.3156 -0.1862
  958POPC   C3B13987  18.033  10.531   6.533  0.2733 -0.1400 -0.0693
  958POPC   C4B13988  17.807  10.862   6.720 -0.0753 -0.0213  0.0477
  959POPC   NC313989   7.315   5.205   6.277 -0.4091 -0.2763  0.0546
  959POPC   PO413990   7.704   4.996   6.359 -0.0018 -0.3432 -0.2476
  959POPC   GL113991   8.108   5.178   6.569 -0.0403 -0.0466  0.0105
  959POPC   GL213992   8.375   4.997   6.687  0.1881 -0.1483 -0.0546
  959POPC   C1A13993   8.289   5.328   7.017  0.2133 -0.1866  0.0288
  959POPC   D2A13994   8.256   5.432   7.514  0.1257 -0.4247 -0.1609
  959POPC   C3A13995   8.529   5.333   7.819 -0.2582  0.0917  0.2321
  959POPC   C4A13996   8.905   5.221   7.932 -0.2927 -0.1141  0.1428
  959POPC   C1B13997   8.420   4.621   6.881  0.2426 -0.0761 -0.1198
  959POPC   C2B13998   8.362   4.414   7.332  0.0338 -0.0488 -0.2672
  959POPC   C3B13999   8.484   4.090   7.620 -0.1534 -0.1221  0.1581
  959POPC   C4B14000   8.640   4.019   8.030 -0.1760  0.1406  0.1921
  960POPC   NC314001   7.185  17.637   5.560 -0.4034  0.1241 -0.0516
  960POPC   PO414002   7.381  17.236   5.833  0.2287 -0.0990 -0.0112
  960POPC   GL114003   7.100  17.048   6.208 -0.0207 -0.1053 -0.0152
  960POPC   GL214004   6.863  17.322   6.321  0.1345 -0.3647 -0.0282
  960POPC   C1A14005   7.361  17.260   6.681  0.1096 -0.0410 -0.1106
  960POPC   D2A14006   7.537  17.387   7.029 -0.1252 -0.0160  0.1080
  960POPC   C3A14007   7.865  17.277   7.192 -0.0672  0.1693  0.0541
  960POPC   C4A14008   7.984  17.227   7.691 -0.1145  0.1173 -0.1459
  960POPC   C1B14009   6.912  17.476   6.732 -0.0108  0.0876 -0.1363
  960POPC   C2B14010   7.034  17.281   7.063 -0.1250 -0.3359 -0.0692
  960POPC   C3B14011   6.994  16.969   7.468  0.1669  0.1260  0.0767
  960POPC   C4B14012   7.054  16.757   7.709  0.0967  0.2499 -0.1389
  961POPC   NC314013   5.524   4.225   5.818 -0.1754 -0.0863 -0.0479
  961POPC   PO414014   5.832   3.843   5.721  0.3189  0.2038  0.2146
  961POPC   GL114015   5.654   3.744   6.058 -0.0986 -0.3182 -0.2510
  961POPC   GL214016   5.366   3.396   6.141 -0.0338  0.4075 -0.2183
  961POPC   C1A14017   5.425   3.868   6.430  0.1253 -0.1200  0.1509
  961POPC   D2A14018   5.504   3.788   6.826  0.2073 -0.0126 -0.1048
  961POPC   C3A14019   5.145   3.659   7.056  0.0646 -0.0122 -0.1113
  961POPC   C4A14020   4.747   3.343   7.130  0.1775 -0.0846  0.3090
  961POPC   C1B14021   5.503   3.387   6.541 -0.1134  0.2963 -0.1495
  961POPC   C2B14022   5.896   3.428   6.679 -0.1978 -0.0154  0.0538
  961POPC   C3B14023   5.937   3.451   7.017  0.0749  0.2262  0.4356
  961POPC   C4B14024   5.691   3.581   7.401  0.1046  0.1107 -0.3511
  962POPC   NC314025  10.362   2.720   5.761  0.1224 -0.2144  0.1116
  962POPC   PO414026  10.842   2.840   5.841  0.1140 -0.1320  0.2709
  962POPC   GL114027  11.030   2.554   6.158 -0.3553 -0.0669 -0.0680
  962POPC   GL214028  11.079   2.368   5.921  0.2231  0.0009 -0.1274
  962POPC   C1A14029  11.194   2.475   6.574 -0.2868 -0.3319 -0.4835
  962POPC   D2A14030  11.407   2.213   6.810  0.1134 -0.0115 -0.1937
  962POPC   C3A14031  11.367   2.112   7.122  0.2062  0.2146  0.0039
  962POPC   C4A14032  11.186   2.220   7.386  0.1011 -0.0023 -0.3179
  962POPC   C1B14033  11.439   2.313   6.210  0.0553 -0.1533 -0.0073
  962POPC   C2B14034  11.843   2.171   6.211 -0.1875  0.0856  0.0582
  962POPC   C3B14035  12.109   1.851   6.333 -0.0302 -0.0282 -0.0412
  962POPC   C4B14036  12.209   1.526   6.627 -0.2881  0.0515  0.3934
  963POPC   NC314037  13.634  10.947   5.227 -0.0211  0.0999 -0.1046
  963POPC   PO414038  13.111  10.740   5.127 -0.0270 -0.1402  0.0737
  963POPC   GL114039  13.211  10.801   5.493 -0.0086 -0.0652  0.2231
  963POPC   GL214040  12.848  10.852   5.590 -0.1781 -0.1260 -0.2958
  963POPC   C1A14041  13.251  10.918   6.020 -0.0346 -0.1658  0.2350
  963POPC   D2A14042  13.330  11.208   6.394 -0.3128 -0.1289  0.1660
  963POPC   C3A14043  13.094  11.016   6.723  0.3008  0.1284 -0.0509
  963POPC   C4A14044  12.742  10.832   7.143 -0.3615  0.0288  0.4017
  963POPC   C1B14045  12.964  11.253   5.746 -0.0307 -0.0198  0.2093
  963POPC   C2B14046  13.017  11.501   6.202 -0.1345  0.2080 -0.0728
  963POPC   C3B14047  12.989  11.548   6.630  0.1189  0.0058 -0.1400
  963POPC   C4B14048  12.902  11.318   7.056 -0.1409  0.1346 -0.2143
  964POPC   NC314049  14.285   0.873   5.135  0.3502  0.0457  0.0629
  964POPC   PO414050  14.516   1.075   5.526 -0.1205 -0.1889 -0.1616
  964POPC   GL114051  14.453   1.099   5.928  0.1821 -0.1254 -0.0923
  964POPC   GL214052  14.580   1.405   5.975  0.2476  0.2374  0.0129
  964POPC   C1A14053  14.506   0.872   6.313  0.0139  0.0637 -0.1067
  964POPC   D2A14054  14.511   0.942   6.690  0.3201  0.0419 -0.0246
  964POPC   C3A14055  14.432   1.276   6.698 -0.0695 -0.0184  0.0576
  964POPC   C4A14056  14.306   1.473   7.083  0.2322 -0.1079  0.0022
  964POPC   C1B14057  14.699   1.509   6.367  0.0762  0.1838  0.1653
  964POPC   C2B14058  14.695   1.705   6.734 -0.3728 -0.1392  0.0019
  964POPC   C3B14059  14.481   1.937   7.043  0.0410  0.0197  0.1887
  964POPC   C4B14060  14.243   2.156   7.452 -0.0813 -0.0304  0.1171
  965POPC   NC314061   9.857  18.543   6.214  0.0228  0.0974  0.2572
  965POPC   PO414062   9.956  18.154   6.107  0.2198 -0.0971 -0.0766
  965POPC   GL114063   9.854  18.108   6.467  0.1838  0.2289 -0.0059
  965POPC   GL214064  10.096  18.263   6.603 -0.0208  0.0610 -0.0461
  965POPC   C1A14065   9.861  17.763   6.747  0.1398 -0.0072 -0.1219
  965POPC   D2A14066   9.814  17.422   7.065 -0.0361  0.1181 -0.0711
  965POPC   C3A14067   9.928  17.318   7.498 -0.1054  0.2120  0.0861
  965POPC   C4A14068   9.872  17.114   7.877 -0.0378 -0.0218 -0.3033
  965POPC   C1B14069  10.022  18.173   7.022 -0.0701 -0.0694  0.0761
  965POPC   C2B14070  10.046  18.161   7.349  0.0273  0.0562  0.0578
  965POPC   C3B14071   9.972  18.047   7.709 -0.0484 -0.1115 -0.2747
  965POPC   C4B14072  10.102  17.658   7.868 -0.1029  0.1577  0.3810
  966POPC   NC314073  17.478   7.192   5.017  0.2866 -0.1000 -0.0180
  966POPC   PO414074  16.975   7.026   5.182  0.0677 -0.0404  0.2874
  966POPC   GL114075  16.852   7.254   5.569  0.1728  0.5385 -0.1625
  966POPC   GL214076  16.962   7.577   5.739 -0.1045  0.1368  0.0063
  966POPC   C1A14077  16.763   7.086   6.035 -0.0532  0.1875  0.1298
  966POPC   D2A14078  17.034   6.749   6.194 -0.1361 -0.1040 -0.0591
  966POPC   C3A14079  16.973   6.632   6.557 -0.1920 -0.3569 -0.2727
  966POPC   C4A14080  16.923   6.561   6.928  0.0061 -0.0918  0.0666
  966POPC   C1B14081  16.905   7.552   6.144 -0.1302  0.0641 -0.1849
  966POPC   C2B14082  16.762   7.557   6.596  0.3026  0.2335 -0.0503
  966POPC   C3B14083  16.788   7.535   6.985  0.2200  0.2905 -0.0102
  966POPC   C4B14084  16.827   7.749   7.302  0.5576  0.0774  0.2018
  967POPC   NC314085   6.171   9.945   5.064  0.3053  0.1669  0.1621
  967POPC   PO414086   6.194   9.837   5.512 -0.0818 -0.0594 -0.1731
  967POPC   GL114087   6.394   9.987   5.862  0.0203  0.1408  0.0083
  967POPC   GL214088   6.687   9.967   5.810  0.6696  0.2236  0.1444
  967POPC   C1A14089   6.095   9.999   6.263 -0.1771  0.0151  0.2848
  967POPC   D2A14090   5.829   9.789   6.551  0.4685  0.2449  0.1753
  967POPC   C3A14091   5.870   9.740   7.005 -0.1726  0.0520  0.0169
  967POPC   C4A14092   5.842   9.782   7.531 -0.0032  0.1415  0.3857
  967POPC   C1B14093   6.773   9.945   6.208  0.0264 -0.0209  0.0558
  967POPC   C2B14094   6.761  10.085   6.567 -0.2453  0.2706 -0.0964
  967POPC   C3B14095   6.656  10.227   6.950 -0.0396  0.1896 -0.0839
  967POPC   C4B14096   6.466  10.499   7.165 -0.1532 -0.0627 -0.1977
  968POPC   NC314097  14.770   6.664   5.576 -0.1797 -0.0507 -0.0020
  968POPC   PO414098  14.414   6.961   5.430  0.1557 -0.1801  0.0929
  968POPC   GL114099  14.694   7.151   5.826  0.3967  0.2069 -0.0102
  968POPC   GL214100  15.046   7.304   5.998 -0.1550  0.0195  0.0281
  968POPC   C1A14101  14.562   7.378   6.200 -0.1230 -0.0300 -0.3380
  968POPC   D2A14102  14.591   7.515   6.599  0.4965  0.1189 -0.1300
  968POPC   C3A14103  14.907   7.676   6.909  0.1648  0.3376  0.0102
  968POPC   C4A14104  15.280   7.609   6.884 -0.1694  0.1253 -0.0234
  968POPC   C1B14105  14.870   6.998   6.267 -0.2125 -0.2098  0.0482
  968POPC   C2B14106  14.808   6.583   6.297  0.0806 -0.0414 -0.0668
  968POPC   C3B14107  14.584   6.175   6.394 -0.2190 -0.3362 -0.1363
  968POPC   C4B14108  14.786   5.847   6.500  0.2978  0.1433  0.2746
  969POPC   NC314109  18.737  12.373   5.378  0.1499  0.0332  0.0918
  969POPC   PO414110  18.996  12.707   5.418 -0.0547 -0.3208  0.1184
  969POPC   GL114111  18.928  12.548   5.815 -0.0001  0.2546  0.1764
  969POPC   GL214112  18.639  12.775   5.960 -0.1649 -0.0588 -0.0558
  969POPC   C1A14113  18.836  12.429   6.267 -0.0025  0.1178 -0.2145
  969POPC   D2A14114  18.789  12.527   6.626  0.5375  0.0490 -0.0007
  969POPC   C3A14115  19.004  12.848   6.880 -0.1597 -0.0661  0.1026
  969POPC   C4A14116  19.436  12.833   6.771 -0.1354  0.5987 -0.0972
  969POPC   C1B14117  18.793  12.941   6.365  0.0947  0.0500  0.1067
  969POPC   C2B14118  18.515  12.975   6.658  0.0607 -0.1330  0.0244
  969POPC   C3B14119  18.586  12.883   7.105 -0.1983  0.2728 -0.1782
  969POPC   C4B14120  18.945  13.118   7.329 -0.1162  0.1461  0.1633
  970POPC   NC314121  15.020  10.038   5.459  0.4131  0.4178 -0.1439
  970POPC   PO414122  15.038   9.629   5.636 -0.0094 -0.1361 -0.3643
  970POPC   GL114123  15.117   9.422   6.000 -0.2274 -0.1519  0.1533
  970POPC   GL214124  14.879   9.274   6.213 -0.0178 -0.1428  0.0248
  970POPC   C1A14125  15.344   9.267   6.367 -0.0086  0.1491  0.0303
  970POPC   D2A14126  15.423   9.029   6.772 -0.3684  0.2034  0.3581
  970POPC   C3A14127  15.108   9.026   7.004 -0.1639 -0.0470 -0.3562
  970POPC   C4A14128  14.697   8.957   6.908  0.1547 -0.0035 -0.0910
  970POPC   C1B14129  14.910   9.316   6.599  0.1698  0.1126 -0.4907
  970POPC   C2B14130  14.901   9.443   7.055  0.5200 -0.2708 -0.1410
  970POPC   C3B14131  15.044   9.778   7.312 -0.1184  0.4934  0.1330
  970POPC   C4B14132  15.245   9.934   7.674 -0.1459  0.2024  0.0878
  971YOPC   NC314133   2.644   1.370   5.297  0.1002 -0.2198  0.0599
  971YOPC   PO414134   2.308   1.228   5.400 -0.0577  0.0937 -0.1254
  971YOPC   GL114135   2.306   1.148   5.778  0.2157 -0.1515  0.1149
  971YOPC   GL214136   2.309   1.455   5.935 -0.0659  0.0060 -0.1264
  971YOPC   C1A14137   2.359   0.897   6.126 -0.0589 -0.1786  0.0177
  971YOPC   D2A14138   2.270   0.754   6.534 -0.2222 -0.2772 -0.1507
  971YOPC   C3A14139   2.330   1.158   6.769  0.0929 -0.2085 -0.0962
  971YOPC   C4A14140   2.464   1.200   7.197  0.2522 -0.2386 -0.4620
  971YOPC   C1B14141   2.087   1.887   5.858  0.2649 -0.1490 -0.1842
  971YOPC   C2B14142   2.153   2.315   5.988 -0.0306 -0.1143 -0.1435
  971YOPC   D3B14143   2.286   2.381   6.380 -0.2212 -0.1576  0.0379
  971YOPC   C4B14144   2.623   2.690   6.473 -0.3486  0.0254  0.3934
  972YOPC   NC314145   7.819   8.421   6.266 -0.0295 -0.2754  0.0167
  972YOPC   PO414146   7.585   8.123   6.299 -0.2746 -0.0037 -0.1019
  972YOPC   GL114147   7.350   8.421   6.595 -0.1668 -0.1479 -0.1542
  972YOPC   GL214148   7.674   8.353   6.755 -0.0273 -0.1324 -0.1694
  972YOPC   C1A14149   7.112   8.312   6.947 -0.0346 -0.1839 -0.1718
  972YOPC   D2A14150   7.057   8.293   7.341 -0.0536 -0.1320  0.1741
  972YOPC   C3A14151   6.940   7.997   7.426  0.1148  0.2344  0.0846
  972YOPC   C4A14152   7.150   7.666   7.648 -0.0346 -0.0742 -0.0132
  972YOPC   C1B14153   7.623   8.348   7.182  0.0675  0.4361  0.1964
  972YOPC   C2B14154   7.433   8.448   7.528 -0.0749 -0.2220 -0.1085
  972YOPC   D3B14155   7.286   8.187   7.784  0.0200 -0.1876 -0.3935
  972YOPC   C4B14156   7.287   7.923   8.146  0.0116 -0.0066  0.3213
  973YOPC   NC314157   6.208  13.968   5.309  0.3386 -0.3177  0.1265
  973YOPC   PO414158   6.473  13.833   5.584  0.0858 -0.0200 -0.2082
  973YOPC   GL114159   6.307  13.757   6.083 -0.0376  0.2129  0.1019
  973YOPC   GL214160   6.018  13.773   6.331  0.0240  0.1582  0.0035
  973YOPC   C1A14161   6.442  13.920   6.491 -0.0755 -0.1249  0.0281
  973YOPC   D2A14162   6.585  14.011   6.942  0.0314  0.1327  0.4075
  973YOPC   C3A14163   6.986  14.146   7.221  0.0001 -0.0678 -0.1559
  973YOPC   C4A14164   6.899  14.290   7.642 -0.1395  0.1317 -0.1069
  973YOPC   C1B14165   6.133  13.614   6.767  0.0720  0.0826 -0.0991
  973YOPC   C2B14166   6.197  13.248   6.874  0.1462  0.2323  0.2633
  973YOPC   D3B14167   6.449  13.245   7.260 -0.2445  0.2445 -0.0625
  973YOPC   C4B14168   6.629  13.263   7.641 -0.0246 -0.0971 -0.1837
  974YOPC   NC314169   1.567  18.725   5.366  0.0055 -0.0173 -0.2553
  974YOPC   PO414170   1.545  18.387   5.490  0.1523 -0.2303 -0.1005
  974YOPC   GL114171   1.728  18.551   5.798 -0.0370  0.0133 -0.0170
  974YOPC   GL214172   1.466  18.649   5.901  0.2222 -0.0300  0.0964
  974YOPC   C1A14173   1.812  18.292   6.143 -0.3223 -0.1631 -0.1267
  974YOPC   D2A14174   1.889  17.946   6.252  0.1343 -0.1613 -0.1245
  974YOPC   C3A14175   1.619  17.576   6.245  0.0366 -0.0451  0.0420
  974YOPC   C4A14176   1.459  17.328   6.560  0.0207 -0.1571 -0.2168
  974YOPC   C1B14177   1.634  18.678   6.332 -0.0593 -0.0823  0.2751
  974YOPC   C2B14178   1.584  18.697   6.700  0.4528  0.1602 -0.4742
  974YOPC   D3B14179   1.792  18.499   7.000 -0.1482  0.0879 -0.1861
  974YOPC   C4B14180   2.201  18.624   7.280  0.0057 -0.0470 -0.0138
  975YOPC   NC314181  16.533  10.609   5.350  0.1530  0.0789  0.0008
  975YOPC   PO414182  16.315  10.316   5.378  0.0304 -0.2919  0.5595
  975YOPC   GL114183  16.329  10.208   5.813  0.0165  0.1565  0.0959
  975YOPC   GL214184  16.629  10.235   6.004  0.3064  0.0713 -0.2290
  975YOPC   C1A14185  16.173  10.456   6.054 -0.0476  0.2306  0.0475
  975YOPC   D2A14186  15.996  10.468   6.470  0.0882 -0.1203 -0.1921
  975YOPC   C3A14187  15.901  10.285   6.826  0.0663  0.0106 -0.1143
  975YOPC   C4A14188  15.914  10.163   7.219 -0.0745 -0.0888 -0.0406
  975YOPC   C1B14189  16.622  10.467   6.350  0.1873  0.0893 -0.0559
  975YOPC   C2B14190  16.386  10.703   6.764 -0.3323  0.1378 -0.3428
  975YOPC   D3B14191  16.081  10.768   7.051  0.0276  0.2816  0.1572
  975YOPC   C4B14192  15.855  10.673   7.354 -0.1920  0.0514  0.1377
  976YOPC   NC314193   9.597  16.043   5.545  0.1112 -0.2023  0.1357
  976YOPC   PO414194   9.985  16.244   5.469  0.2090  0.0635 -0.2219
  976YOPC   GL114195   9.816  16.341   5.915  0.2162  0.1727  0.1939
  976YOPC   GL214196   9.797  16.196   6.223  0.0047  0.1239 -0.1579
  976YOPC   C1A14197   9.861  16.667   6.238 -0.0782 -0.0555 -0.0427
  976YOPC   D2A14198   9.886  16.885   6.506  0.2787 -0.1463  0.1077
  976YOPC   C3A14199   9.766  16.943   6.906  0.0364  0.1148  0.2137
  976YOPC   C4A14200   9.629  17.006   7.291  0.1710  0.1227  0.2698
  976YOPC   C1B14201   9.905  16.167   6.715  0.2995 -0.1750 -0.0023
  976YOPC   C2B14202   9.983  16.150   7.174  0.2358  0.0338  0.2018
  976YOPC   D3B14203   9.869  15.861   7.464 -0.1710 -0.0754  0.0417
  976YOPC   C4B14204  10.039  15.628   7.879 -0.1303  0.2273 -0.3624
  977YOPC   NC314205   4.974   0.758   5.098 -0.0578 -0.3178  0.0645
  977YOPC   PO414206   5.274   0.615   5.397  0.1693  0.0558 -0.0825
  977YOPC   GL114207   5.110   0.643   5.810 -0.0528  0.1343 -0.0386
  977YOPC   GL214208   4.830   0.597   6.005  0.2916 -0.2097 -0.1746
  977YOPC   C1A14209   5.326   0.539   6.294  0.0852 -0.0498  0.0441
  977YOPC   D2A14210   5.276   0.473   6.727  0.2017 -0.0205 -0.1733
  977YOPC   C3A14211   4.859   0.310   6.955  0.0130  0.1895  0.0008
  977YOPC   C4A14212   4.535   0.060   6.800  0.0809 -0.0747  0.3416
  977YOPC   C1B14213   4.697   0.420   6.453  0.1897 -0.3171 -0.1696
  977YOPC   C2B14214   4.327   0.567   6.761 -0.3586 -0.1989  0.1243
  977YOPC   D3B14215   4.413   0.473   7.183 -0.2446 -0.6122 -0.2516
  977YOPC   C4B14216   4.369   0.203   7.540 -0.1441 -0.1371  0.1333
  978YOPC   NC314217   5.386  13.605   5.876  0.3751 -0.2263 -0.2168
  978YOPC   PO414218   4.920  13.557   5.625  0.0730 -0.0794  0.0782
  978YOPC   GL114219   4.918  13.374   6.017  0.1476 -0.2405 -0.1113
  978YOPC   GL214220   4.816  13.001   6.132  0.0261 -0.1141  0.0313
  978YOPC   C1A14221   4.628  13.323   6.436 -0.2978 -0.1886  0.2815
  978YOPC   D2A14222   4.728  13.061   6.697  0.2966 -0.0890  0.3296
  978YOPC   C3A14223   4.461  12.755   6.907 -0.1270  0.1963 -0.1530
  978YOPC   C4A14224   4.265  12.591   7.261 -0.1853  0.5140 -0.0479
  978YOPC   C1B14225   5.143  12.821   6.474  0.1491 -0.0540 -0.2309
  978YOPC   C2B14226   5.350  13.056   6.786 -0.1024 -0.3168  0.5016
  978YOPC   D3B14227   5.297  13.037   7.215 -0.2925 -0.0486 -0.1497
  978YOPC   C4B14228   5.345  12.716   7.444  0.3137 -0.1579 -0.0844
  979YOPC   NC314229  17.191  12.593   5.209  0.3296  0.1890  0.0380
  979YOPC   PO414230  17.442  12.685   5.633  0.0483 -0.1788 -0.4672
  979YOPC   GL114231  17.212  12.405   5.935 -0.1682 -0.0102 -0.0818
  979YOPC   GL214232  17.430  12.352   6.070  0.0829  0.4866  0.2406
  979YOPC   C1A14233  16.882  12.287   6.242 -0.0719 -0.2696  0.2084
  979YOPC   D2A14234  16.637  12.387   6.524 -0.2784  0.2721 -0.2355
  979YOPC   C3A14235  16.660  12.302   7.031 -0.1893 -0.2333  0.1912
  979YOPC   C4A14236  16.603  12.440   7.414 -0.3434 -0.2571 -0.2266
  979YOPC   C1B14237  17.262  11.944   6.164  0.0813 -0.2852  0.0293
  979YOPC   C2B14238  17.164  11.659   6.516  0.0890  0.2081  0.0626
  979YOPC   D3B14239  17.509  11.550   6.857  0.0383  0.1298  0.0459
  979YOPC   C4B14240  17.813  11.767   7.225 -0.2443 -0.0067  0.1931
  980YOPC   NC314241  18.315  11.642   5.422  0.4344 -0.0152  0.1963
  980YOPC   PO414242  18.293  12.090   5.418  0.1677 -0.0208 -0.1520
  980YOPC   GL114243  18.163  11.948   5.822  0.1889  0.1980  0.1478
  980YOPC   GL214244  17.795  11.985   5.911  0.1053 -0.1016  0.1689
  980YOPC   C1A14245  18.200  11.801   6.163 -0.0729 -0.4444 -0.0804
  980YOPC   D2A14246  18.203  11.491   6.390  0.0752 -0.2520 -0.5849
  980YOPC   C3A14247  17.975  11.397   6.743  0.0259 -0.4353  0.1273
  980YOPC   C4A14248  17.824  11.201   7.085 -0.4010 -0.0234  0.2511
  980YOPC   C1B14249  17.886  12.190   6.304 -0.1291 -0.2754  0.0753
  980YOPC   C2B14250  17.914  12.056   6.771  0.1764 -0.0266 -0.0796
  980YOPC   D3B14251  18.241  11.804   6.819 -0.1935 -0.0259  0.0837
  980YOPC   C4B14252  18.626  11.632   6.751 -0.0760 -0.1059  0.1391
  981YOPC   NC314253   6.309   6.842   6.129 -0.0953  0.0933 -0.1861
  981YOPC   PO414254   6.528   7.189   6.310 -0.1332 -0.3212 -0.2526
  981YOPC   GL114255   6.377   7.103   6.740  0.0429 -0.0960 -0.2051
  981YOPC   GL214256   6.590   6.916   6.966  0.1078 -0.1248 -0.0220
  981YOPC   C1A14257   6.266   7.264   7.159 -0.2260  0.1576 -0.4269
  981YOPC   D2A14258   6.161   7.279   7.537  0.1134 -0.0086 -0.1639
  981YOPC   C3A14259   5.819   7.584   7.732  0.0266 -0.1865 -0.0614
  981YOPC   C4A14260   5.700   7.949   7.655 -0.2436  0.1908  0.0159
  981YOPC   C1B14261   6.652   6.871   7.328  0.0847 -0.0593  0.0999
  981YOPC   C2B14262   6.726   6.728   7.775 -0.1615  0.2118 -0.0679
  981YOPC   D3B14263   6.903   6.411   8.006 -0.0112  0.2136 -0.1936
  981YOPC   C4B14264   6.749   6.130   8.268  0.1563  0.1428  0.1073
  982YOPC   NC314265   3.752  15.423   5.321  0.0128 -0.0352  0.5549
  982YOPC   PO414266   3.450  15.280   5.608  0.1352 -0.1633  0.0800
  982YOPC   GL114267   3.349  15.444   6.020 -0.2233 -0.4965 -0.1947
  982YOPC   GL214268   3.503  15.693   6.232  0.2430 -0.2169 -0.1449
  982YOPC   C1A14269   2.996  15.438   6.174  0.1748  0.1273 -0.2623
  982YOPC   D2A14270   2.698  15.317   6.408  0.0311 -0.0148 -0.0111
  982YOPC   C3A14271   2.887  15.215   6.751 -0.0057  0.1829  0.1740
  982YOPC   C4A14272   3.084  15.382   7.212  0.0599 -0.3615 -0.1059
  982YOPC   C1B14273   3.620  16.075   6.565  0.0398  0.1252  0.1317
  982YOPC   C2B14274   3.545  16.173   6.924 -0.0171 -0.2289 -0.1706
  982YOPC   D3B14275   3.396  15.957   7.274  0.1566  0.3585  0.1630
  982YOPC   C4B14276   3.091  15.772   7.545 -0.2464 -0.0886  0.0360
  983YOPC   NC314277   6.889   2.567   6.083 -0.1266  0.0064  0.1596
  983YOPC   PO414278   7.219   2.444   6.365 -0.0394 -0.2017 -0.0519
  983YOPC   GL114279   7.192   2.276   6.722 -0.0289  0.0544 -0.0704
  983YOPC   GL214280   7.011   2.001   6.653 -0.0284  0.0178  0.1486
  983YOPC   C1A14281   7.083   2.300   7.139  0.0435  0.0808  0.2012
  983YOPC   D2A14282   6.731   2.130   7.322  0.1242 -0.3319  0.0518
  983YOPC   C3A14283   6.272   2.116   7.214  0.1255  0.1591 -0.1807
  983YOPC   C4A14284   6.021   2.448   7.208  0.1191  0.0868 -0.0323
  983YOPC   C1B14285   6.641   2.202   6.798 -0.0308 -0.3717 -0.0050
  983YOPC   C2B14286   6.328   2.091   6.706 -0.0318 -0.0395 -0.0397
  983YOPC   D3B14287   5.906   1.995   6.876 -0.1828  0.4152  0.1723
  983YOPC   C4B14288   5.776   1.915   7.248  0.0097  0.2654 -0.3317
  984YOPC   NC314289   4.434   0.057   5.410  0.0212 -0.0673 -0.0116
  984YOPC   PO414290   4.783   0.369   5.467 -0.1987  0.1078 -0.0408
  984YOPC   GL114291   4.380   0.320   5.860  0.1307 -0.3225 -0.0884
  984YOPC   GL214292   4.301   0.482   6.119 -0.1349 -0.0918  0.1595
  984YOPC   C1A14293   4.422  -0.034   6.145  0.1457  0.1739 -0.1417
  984YOPC   D2A14294   4.161  -0.072   6.539  0.1310 -0.1002  0.2518
  984YOPC   C3A14295   4.127  -0.382   6.807  0.0611 -0.2144 -0.0190
  984YOPC   C4A14296   4.265  -0.660   6.962  0.0848  0.3360  0.4263
  984YOPC   C1B14297   4.011   0.398   6.391  0.0943  0.0730  0.2615
  984YOPC   C2B14298   3.853   0.386   6.809 -0.0515  0.1998  0.1432
  984YOPC   D3B14299   4.050   0.146   7.000 -0.0930  0.1413  0.1121
  984YOPC   C4B14300   4.238  -0.245   7.273 -0.1920 -0.0978  0.4850
  985YOPC   NC314301  15.491  18.535   5.325  0.3067 -0.0435  0.3394
  985YOPC   PO414302  15.030  18.538   5.406  0.0473  0.1319 -0.2243
  985YOPC   GL114303  15.054  18.475   5.850 -0.0944  0.1331  0.2512
  985YOPC   GL214304  14.784  18.451   5.977 -0.5702 -0.0507 -0.0385
  985YOPC   C1A14305  15.142  18.577   6.303  0.1779  0.2575 -0.4408
  985YOPC   D2A14306  15.065  18.842   6.627 -0.2359 -0.1704  0.1804
  985YOPC   C3A14307  15.435  19.094   6.783 -0.1427  0.2432 -0.1346
  985YOPC   C4A14308  15.734  19.363   6.864  0.0372 -0.0411 -0.1202
  985YOPC   C1B14309  14.631  18.366   6.409 -0.2085  0.3389 -0.0571
  985YOPC   C2B14310  14.544  18.331   6.798 -0.1207 -0.2489 -0.3023
  985YOPC   D3B14311  14.303  18.159   7.171 -0.2176 -0.2525  0.0343
  985YOPC   C4B14312  14.495  18.191   7.663 -0.1388  0.3088  0.4463
  986YOPC   NC314313   0.947   3.237   5.603  0.1653  0.1814 -0.0854
  986YOPC   PO414314   1.086   3.586   5.721 -0.1780 -0.0953  0.1168
  986YOPC   GL114315   0.914   3.556   6.142 -0.0147  0.2394  0.3707
  986YOPC   GL214316   0.946   3.857   6.266 -0.0522 -0.0656  0.5408
  986YOPC   C1A14317   0.793   3.434   6.638 -0.1878  0.2176  0.1979
  986YOPC   D2A14318   0.464   3.512   7.027 -0.1742 -0.1539  0.1721
  986YOPC   C3A14319   0.177   3.251   7.068 -0.1089  0.0378 -0.1731
  986YOPC   C4A14320  -0.131   3.655   7.220 -0.0026  0.4261  0.2012
  986YOPC   C1B14321   0.536   3.815   6.556  0.4070 -0.3627 -0.0363
  986YOPC   C2B14322   0.418   4.037   6.941 -0.0256  0.0532  0.0019
  986YOPC   D3B14323   0.163   4.027   7.246  0.0947  0.0189 -0.2962
  986YOPC   C4B14324  -0.170   4.214   7.434 -0.0319 -0.2032  0.1264
  987YOPC   NC314325   9.282   6.711   5.695 -0.1094 -0.0917  0.0108
  987YOPC   PO414326   9.465   6.357   6.025 -0.2409 -0.3108  0.3105
  987YOPC   GL114327   9.508   6.227   6.400  0.3460  0.0779 -0.1550
  987YOPC   GL214328   9.155   6.072   6.456  0.1169 -0.0107 -0.0081
  987YOPC   C1A14329   9.457   6.119   6.959 -0.3101  0.0105 -0.1924
  987YOPC   D2A14330   9.270   6.203   7.360  0.0728 -0.0523 -0.1044
  987YOPC   C3A14331   8.849   5.960   7.398 -0.3855 -0.0005 -0.0109
  987YOPC   C4A14332   8.502   5.743   7.254  0.2349  0.1039  0.0770
  987YOPC   C1B14333   9.301   5.630   6.687  0.0136 -0.2036  0.0551
  987YOPC   C2B14334   9.574   5.637   6.838 -0.0341 -0.1093  0.2987
  987YOPC   D3B14335   9.899   5.514   7.029 -0.0352  0.3885  0.0987
  987YOPC   C4B14336  10.123   5.207   7.304 -0.0876 -0.2494 -0.2171
  988YOPC   NC314337   2.598  13.555   5.598 -0.0133 -0.3609 -0.3361
  988YOPC   PO414338   2.626  13.180   5.500 -0.3927 -0.0927 -0.2578
  988YOPC   GL114339   2.832  13.174   5.798  0.0818 -0.1136  0.1038
  988YOPC   GL214340   2.607  13.248   6.052  0.1345  0.0053  0.2522
  988YOPC   C1A14341   3.085  13.186   6.179 -0.1282 -0.4624 -0.1174
  988YOPC   D2A14342   3.289  13.191   6.580  0.3395 -0.1635 -0.2835
  988YOPC   C3A14343   3.816  13.290   6.699  0.1805  0.1557  0.2076
  988YOPC   C4A14344   4.166  13.307   6.729 -0.2300 -0.1392  0.1662
  988YOPC   C1B14345   2.676  13.381   6.505  0.2401  0.2314  0.2083
  988YOPC   C2B14346   2.984  13.519   6.800  0.2323 -0.3141 -0.0948
  988YOPC   D3B14347   3.194  13.312   7.129 -0.2168 -0.1386  0.1038
  988YOPC   C4B14348   3.159  13.122   7.518  0.0364 -0.0154 -0.0111
  989YOPC   NC314349  11.482  14.488   5.063 -0.1193  0.0005  0.0330
  989YOPC   PO414350  11.533  14.871   5.357  0.3557 -0.0121  0.2598
  989YOPC   GL114351  11.419  14.752   5.644 -0.0162  0.1107  0.0715
  989YOPC   GL214352  11.702  14.667   5.788 -0.2319 -0.0931  0.0682
  989YOPC   C1A14353  11.325  14.622   6.052  0.2282 -0.4440 -0.0103
  989YOPC   D2A14354  11.144  14.760   6.401  0.0272  0.1374  0.2186
  989YOPC   C3A14355  11.229  15.217   6.589  0.3418  0.0306 -0.1267
  989YOPC   C4A14356  11.130  15.499   6.798 -0.2420  0.1563 -0.0299
  989YOPC   C1B14357  11.685  14.313   6.057  0.1361 -0.0866 -0.4151
  989YOPC   C2B14358  11.824  13.932   6.382  0.0345 -0.0579 -0.2180
  989YOPC   D3B14359  12.010  13.809   6.856  0.3660  0.2101 -0.0833
  989YOPC   C4B14360  12.079  13.906   7.255 -0.0020  0.0929  0.2506
  990YOPC   NC314361   4.727  16.395   5.339 -0.0047  0.0902 -0.0702
  990YOPC   PO414362   4.468  16.745   5.456  0.0895 -0.1392 -0.0170
  990YOPC   GL114363   4.544  16.831   5.847 -0.0257  0.0262 -0.0185
  990YOPC   GL214364   4.654  16.460   5.830  0.0190  0.0958 -0.2214
  990YOPC   C1A14365   4.333  16.853   6.241 -0.3374 -0.2193  0.1455
  990YOPC   D2A14366   4.155  17.090   6.609  0.4830  0.2832  0.2104
  990YOPC   C3A14367   4.260  17.033   7.032  0.2006 -0.0437 -0.3258
  990YOPC   C4A14368   4.322  16.818   7.357 -0.3154 -0.0013  0.3098
  990YOPC   C1B14369   4.609  16.474   6.310 -0.0564 -0.1822 -0.0683
  990YOPC   C2B14370   4.427  16.620   6.738  0.5142  0.0779 -0.3171
  990YOPC   D3B14371   4.696  16.478   7.163  0.0518  0.3381  0.2710
  990YOPC   C4B14372   5.016  16.604   7.520 -0.3086  0.1435 -0.1525
  991YOPC   NC314373   7.046  12.164   5.820 -0.1708 -0.0412  0.2065
  991YOPC   PO414374   6.716  11.864   5.668 -0.1676  0.0486  0.1621
  991YOPC   GL114375   6.818  11.794   6.157  0.4008  0.1196 -0.0214
  991YOPC   GL214376   6.695  11.964   6.305  0.1380  0.0878  0.0286
  991YOPC   C1A14377   6.698  11.366   6.353  0.1369 -0.1605 -0.1079
  991YOPC   D2A14378   6.751  11.213   6.819  0.0899  0.1285  0.0350
  991YOPC   C3A14379   6.560  11.228   7.272 -0.0578  0.3460  0.0876
  991YOPC   C4A14380   6.226  10.968   7.381  0.1708 -0.0728  0.1469
  991YOPC   C1B14381   6.354  11.791   6.220  0.0544 -0.1489  0.0371
  991YOPC   C2B14382   5.928  11.725   6.511  0.1273  0.0401  0.1770
  991YOPC   D3B14383   5.918  11.712   7.000 -0.3554 -0.2163  0.0289
  991YOPC   C4B14384   6.324  11.739   7.221  0.0003 -0.1165 -0.0701
  992YOPC   NC314385  14.529   3.353   5.396 -0.3147 -0.1489 -0.0143
  992YOPC   PO414386  14.754   3.671   5.157 -0.1827 -0.0761 -0.2908
  992YOPC   GL114387  14.773   3.722   5.619  0.2180  0.0773 -0.2289
  992YOPC   GL214388  14.513   3.777   5.772  0.0008 -0.0357 -0.2165
  992YOPC   C1A14389  14.955   3.482   5.900  0.0615 -0.1005  0.0497
  992YOPC   D2A14390  15.412   3.531   5.858  0.0550 -0.1928  0.4010
  992YOPC   C3A14391  15.872   3.246   6.074  0.2420 -0.2034  0.1089
  992YOPC   C4A14392  16.172   3.080   6.196 -0.1222 -0.0941  0.0989
  992YOPC   C1B14393  14.438   3.474   5.992  0.1043 -0.0223 -0.0150
  992YOPC   C2B14394  14.632   3.240   6.334 -0.1549  0.2650 -0.1395
  992YOPC   D3B14395  15.013   3.376   6.437 -0.1325 -0.1346 -0.4402
  992YOPC   C4B14396  15.389   3.285   6.299  0.1300 -0.1231 -0.2272
  993YOPC   NC314397  12.807   7.198   5.675  0.1610  0.0546  0.1678
  993YOPC   PO414398  12.887   6.850   5.875 -0.1683 -0.2370  0.0943
  993YOPC   GL114399  13.078   7.284   6.092  0.0024 -0.1187 -0.0385
  993YOPC   GL214400  12.828   7.524   6.023  0.1525 -0.0530  0.2085
  993YOPC   C1A14401  13.051   7.395   6.582  0.0239  0.2237  0.1290
  993YOPC   D2A14402  13.113   7.373   7.071  0.0550  0.1330 -0.0651
  993YOPC   C3A14403  13.112   6.906   7.198 -0.2298  0.4072 -0.2124
  993YOPC   C4A14404  13.195   6.750   6.828 -0.0534  0.2017  0.0922
  993YOPC   C1B14405  12.821   7.823   6.361  0.0963 -0.1319  0.1271
  993YOPC   C2B14406  13.024   8.084   6.545  0.0391 -0.2273 -0.0146
  993YOPC   D3B14407  13.272   8.316   6.343  0.1136 -0.1723 -0.2201
  993YOPC   C4B14408  13.347   8.695   6.167  0.2878 -0.3080  0.3911
  994YOPC   NC314409   1.784   9.198   5.527 -0.0344 -0.0784  0.1865
  994YOPC   PO414410   1.724   8.899   5.921  0.0129 -0.0789 -0.1090
  994YOPC   GL114411   1.530   8.977   6.274  0.0331  0.0679 -0.3884
  994YOPC   GL214412   1.235   8.830   6.278 -0.2430  0.3033 -0.3599
  994YOPC   C1A14413   1.328   9.125   6.657  0.0944  0.1218  0.0230
  994YOPC   D2A14414   1.253   9.068   7.097 -0.0885  0.0069  0.1951
  994YOPC   C3A14415   0.947   9.292   7.354  0.0949 -0.2489  0.0906
  994YOPC   C4A14416   0.560   9.362   7.183 -0.2576 -0.2872 -0.1893
  994YOPC   C1B14417   1.026   8.423   6.423  0.1156 -0.1616  0.1497
  994YOPC   C2B14418   0.898   8.059   6.550  0.3768 -0.1044 -0.1214
  994YOPC   D3B14419   1.027   7.820   6.847  0.2560  0.1358 -0.2581
  994YOPC   C4B14420   1.017   7.679   7.274 -0.1581  0.0078 -0.0672
  995YOPC   NC314421  13.749  14.591   5.219 -0.1074  0.0395  0.1905
  995YOPC   PO414422  13.785  15.108   5.342  0.3207 -0.0602 -0.0421
  995YOPC   GL114423  13.585  15.126   5.684 -0.0759 -0.2753 -0.2080
  995YOPC   GL214424  13.572  15.418   5.865 -0.0823 -0.4524  0.0052
  995YOPC   C1A14425  13.381  15.065   6.131 -0.1801 -0.3840  0.3149
  995YOPC   D2A14426  13.334  14.919   6.562 -0.0597 -0.2116  0.0788
  995YOPC   C3A14427  13.060  14.951   6.946 -0.1968  0.4907  0.0962
  995YOPC   C4A14428  12.662  14.882   6.971  0.0189 -0.2715  0.2109
  995YOPC   C1B14429  13.642  15.410   6.337 -0.0776 -0.1983 -0.3324
  995YOPC   C2B14430  13.845  15.656   6.503  0.0449  0.0499 -0.2351
  995YOPC   D3B14431  13.799  16.110   6.586 -0.1890 -0.2176 -0.3457
  995YOPC   C4B14432  14.054  16.386   6.891 -0.1578 -0.1405 -0.0624
  996YOPC   NC314433  13.377  15.502   5.353 -0.1441  0.2166  0.2707
  996YOPC   PO414434  13.110  15.496   5.639 -0.0561  0.1918 -0.3570
  996YOPC   GL114435  13.022  15.375   6.037  0.3958 -0.0040  0.4464
  996YOPC   GL214436  12.689  15.244   6.062 -0.1472  0.0287  0.0516
  996YOPC   C1A14437  13.189  15.456   6.500  0.1405  0.0106 -0.2229
  996YOPC   D2A14438  13.244  15.889   6.505  0.1667  0.2204  0.4204
  996YOPC   C3A14439  13.559  15.820   6.844  0.0768  0.1561  0.0005
  996YOPC   C4A14440  13.713  15.258   6.864 -0.0574 -0.1198  0.2028
  996YOPC   C1B14441  12.808  15.140   6.472 -0.0010  0.3806  0.2295
  996YOPC   C2B14442  12.808  15.348   6.823  0.0123 -0.0869 -0.1942
  996YOPC   D3B14443  13.285  15.462   7.014  0.0067 -0.0956 -0.1307
  996YOPC   C4B14444  13.577  15.556   7.318 -0.1768  0.2427 -0.2141
  997YOPC   NC314445  13.971   4.244   5.129 -0.1777 -0.0734  0.3993
  997YOPC   PO414446  13.786   3.932   5.310  0.6490 -0.1467  0.1439
  997YOPC   GL114447  13.964   4.001   5.651 -0.1208 -0.0644  0.1006
  997YOPC   GL214448  13.841   4.363   5.762  0.0139 -0.1140  0.0824
  997YOPC   C1A14449  14.199   4.171   6.120 -0.0386 -0.0892  0.0209
  997YOPC   D2A14450  14.000   4.058   6.510 -0.0063  0.1047  0.0060
  997YOPC   C3A14451  14.142   4.084   6.955 -0.0690  0.1166 -0.0918
  997YOPC   C4A14452  14.060   4.284   7.346  0.0013 -0.1050  0.0041
  997YOPC   C1B14453  13.839   4.482   6.256  0.1231  0.1972 -0.1296
  997YOPC   C2B14454  13.983   4.551   6.594  0.2072 -0.3180  0.2859
  997YOPC   D3B14455  13.708   4.309   6.978 -0.3876 -0.0957  0.1103
  997YOPC   C4B14456  13.555   3.970   7.170 -0.1305  0.2948  0.3279
  998YOPC   NC314457  13.465   0.227   5.092 -0.0915 -0.1695 -0.0517
  998YOPC   PO414458  13.705   0.038   5.269  0.4427 -0.1155 -0.0770
  998YOPC   GL114459  13.447   0.029   5.659 -0.0280  0.1102  0.0238
  998YOPC   GL214460  13.274  -0.278   5.740 -0.2008 -0.1800  0.1819
  998YOPC   C1A14461  13.449   0.242   6.024  0.0812 -0.1388  0.1363
  998YOPC   D2A14462  13.883   0.169   6.177 -0.1071 -0.0956  0.0861
  998YOPC   C3A14463  13.998   0.143   6.654  0.0351 -0.1707 -0.0667
  998YOPC   C4A14464  13.851   0.068   6.971 -0.1630 -0.1857  0.1186
  998YOPC   C1B14465  13.244  -0.522   6.027  0.2937 -0.0318  0.1187
  998YOPC   C2B14466  13.414  -0.843   6.176  0.1795 -0.0598  0.0515
  998YOPC   D3B14467  13.672  -0.969   6.528 -0.0268 -0.2187  0.0130
  998YOPC   C4B14468  13.887  -0.820   6.910  0.0737  0.1574 -0.0592
  999YOPC   NC314469  12.308  12.058   5.182 -0.1582 -0.2911 -0.2009
  999YOPC   PO414470  12.695  12.215   5.002  0.0158  0.4389 -0.1968
  999YOPC   GL114471  12.688  12.256   5.455  0.1018 -0.0535  0.0401
  999YOPC   GL214472  12.524  12.343   5.624 -0.0471 -0.0111 -0.1159
  999YOPC   C1A14473  13.051  12.386   5.712 -0.3482  0.0086  0.2647
  999YOPC   D2A14474  13.171  12.493   6.167 -0.3852 -0.2155 -0.1823
  999YOPC   C3A14475  13.230  12.435   6.721  0.1426  0.1162 -0.0911
  999YOPC   C4A14476  13.296  12.651   7.059 -0.0130 -0.1197  0.1765
  999YOPC   C1B14477  12.668  12.300   6.078 -0.4179  0.1391  0.0438
  999YOPC   C2B14478  12.902  12.135   6.408  0.0903  0.1229  0.1449
  999YOPC   D3B14479  12.795  12.285   6.881  0.1467 -0.0759  0.2858
  999YOPC   C4B14480  12.915  12.367   7.296 -0.1866  0.1007 -0.1542
 1000YOPC   NC314481  12.279   0.483   5.319 -0.0815 -0.2078  0.4059
 1000YOPC   PO414482  12.308   0.086   5.468  0.0071  0.0043 -0.2168
 1000YOPC   GL114483  12.119   0.278   5.916 -0.0419  0.0044  0.0724
 1000YOPC   GL214484  11.889  -0.034   6.081 -0.1608  0.1810  0.3613
 1000YOPC   C1A14485  12.261   0.328   6.398  0.1319 -0.0394 -0.0413
 1000YOPC   D2A14486  12.499   0.078   6.557 -0.0138  0.0087  0.3187
 1000YOPC   C3A14487  12.470  -0.079   6.940 -0.1786 -0.0754  0.0803
 1000YOPC   C4A14488  12.128   0.006   7.303 -0.2559 -0.2166  0.0712
 1000YOPC   C1B14489  11.856  -0.019   6.492  0.0389 -0.1647 -0.0697
 1000YOPC   C2B14490  12.076  -0.325   6.876 -0.0649 -0.0301 -0.0334
 1000YOPC   D3B14491  11.935  -0.429   7.259 -0.0448  0.0456  0.0330
 1000YOPC   C4B14492  12.111  -0.277   7.699  0.0342  0.2166  0.1163
 1001YOPC   NC314493   3.212   2.553   5.330 -0.0597 -0.2364  0.1484
 1001YOPC   PO414494   2.878   2.867   5.514  0.1257 -0.1242  0.0222
 1001YOPC   GL114495   2.891   2.908   6.046 -0.3506  0.0266  0.4234
 1001YOPC   GL214496   2.969   2.641   5.981  0.0071  0.0794  0.3509
 1001YOPC   C1A14497   2.993   2.968   6.413 -0.0271  0.0572 -0.3276
 1001YOPC   D2A14498   3.077   2.923   6.766  0.0644  0.2113  0.0890
 1001YOPC   C3A14499   2.840   2.802   7.105 -0.1072  0.0089  0.2393
 1001YOPC   C4A14500   2.601   2.932   7.414  0.0574  0.1584 -0.0595
 1001YOPC   C1B14501   2.674   2.386   6.102 -0.1583 -0.0643  0.0427
 1001YOPC   C2B14502   2.701   2.132   6.499  0.2889 -0.1224 -0.2482
 1001YOPC   D3B14503   2.675   2.403   6.869 -0.0322 -0.0102 -0.0205
 1001YOPC   C4B14504   2.402   2.396   7.287 -0.1634 -0.0521 -0.0586
 1002YOPC   NC314505   9.894  18.202   5.311 -0.1870 -0.0778  0.1444
 1002YOPC   PO414506   9.862  17.860   5.730 -0.2576  0.1530  0.3355
 1002YOPC   GL114507   9.716  17.683   6.247 -0.0263 -0.0847 -0.3578
 1002YOPC   GL214508   9.420  17.693   6.316  0.1643 -0.0462  0.1027
 1002YOPC   C1A14509   9.666  17.297   6.538 -0.2161 -0.2154  0.2927
 1002YOPC   D2A14510   9.308  17.110   6.862  0.0741 -0.1348  0.0903
 1002YOPC   C3A14511   9.229  17.308   7.296 -0.0042 -0.1058  0.0674
 1002YOPC   C4A14512   9.046  17.369   7.688  0.1971 -0.0859  0.2089
 1002YOPC   C1B14513   9.138  17.500   6.577  0.0615  0.0281  0.0197
 1002YOPC   C2B14514   8.838  17.278   6.669 -0.0297 -0.1196  0.1975
 1002YOPC   D3B14515   8.788  17.275   7.093 -0.0602  0.0705 -0.1107
 1002YOPC   C4B14516   8.364  17.332   7.180 -0.2495 -0.4798 -0.0431
 1003YOPC   NC314517   0.275  11.826   5.509 -0.0511 -0.1889  0.3377
 1003YOPC   PO414518  -0.091  11.865   5.326  0.2448  0.0663  0.0469
 1003YOPC   GL114519  -0.186  11.800   5.780 -0.0781 -0.2025  0.0595
 1003YOPC   GL214520  -0.313  11.533   5.915 -0.0216 -0.1747 -0.1968
 1003YOPC   C1A14521  -0.189  11.870   6.306  0.0925 -0.2946  0.0712
 1003YOPC   D2A14522  -0.003  12.047   6.547  0.0741  0.2721  0.1831
 1003YOPC   C3A14523  -0.238  12.115   6.939 -0.0313  0.0074 -0.1119
 1003YOPC   C4A14524  -0.581  12.237   7.162  0.1298 -0.1228  0.0157
 1003YOPC   C1B14525  -0.284  11.114   5.878  0.1099  0.0469  0.0105
 1003YOPC   C2B14526  -0.143  10.806   5.963  0.0060  0.0289  0.0391
 1003YOPC   D3B14527   0.067  10.467   5.831 -0.2290  0.1310 -0.1634
 1003YOPC   C4B14528   0.364  10.294   5.956  0.0202  0.0132 -0.1940
 1004YOPC   NC314529   5.643   1.856   5.570 -0.3468  0.3119  0.0921
 1004YOPC   PO414530   5.955   1.699   5.621 -0.0933  0.1677 -0.1716
 1004YOPC   GL114531   5.820   1.302   5.977 -0.0023  0.0826  0.1369
 1004YOPC   GL214532   5.608   0.939   5.794 -0.1254  0.0564 -0.0962
 1004YOPC   C1A14533   5.623   1.328   6.381  0.0607  0.0377  0.2499
 1004YOPC   D2A14534   5.691   1.432   6.839 -0.2297 -0.3431 -0.0956
 1004YOPC   C3A14535   5.641   1.093   7.101 -0.2443  0.1230  0.0376
 1004YOPC   C4A14536   5.571   0.952   7.551  0.0478 -0.3875 -0.1464
 1004YOPC   C1B14537   5.736   0.807   6.242 -0.6038 -0.0935  0.1683
 1004YOPC   C2B14538   5.607   0.866   6.621 -0.0257 -0.0872  0.3362
 1004YOPC   D3B14539   5.264   1.004   6.780 -0.0287 -0.0108  0.0564
 1004YOPC   C4B14540   4.847   1.339   6.736 -0.2665  0.0072 -0.1816
 1005YOPC   NC314541  10.734   7.606   5.637 -0.1122  0.0968 -0.0272
 1005YOPC   PO414542  10.904   8.021   5.740  0.1825  0.0989 -0.4315
 1005YOPC   GL114543  11.015   8.048   6.099  0.2275 -0.1039  0.2071
 1005YOPC   GL214544  10.873   8.173   6.350 -0.0468  0.1344 -0.2422
 1005YOPC   C1A14545  11.188   7.782   6.467  0.1846  0.1222  0.2517
 1005YOPC   D2A14546  11.184   7.354   6.628  0.6108 -0.1695  0.0692
 1005YOPC   C3A14547  11.327   7.482   7.043 -0.3517  0.0247  0.1284
 1005YOPC   C4A14548  11.680   7.314   7.244  0.1166  0.0977  0.3018
 1005YOPC   C1B14549  10.868   8.319   6.783  0.1644 -0.2623  0.1558
 1005YOPC   C2B14550  10.751   8.209   7.096 -0.0204 -0.0563 -0.1095
 1005YOPC   D3B14551  10.984   8.010   7.385  0.1363  0.0154  0.0111
 1005YOPC   C4B14552  11.312   7.971   7.630 -0.2153  0.0066  0.1603
 1006YOPC   NC314553  11.370   8.786   5.561  0.0073 -0.0408 -0.3226
 1006YOPC   PO414554  11.295   9.174   5.805  0.0790 -0.0623 -0.3161
 1006YOPC   GL114555  11.531   9.338   6.162 -0.0843 -0.0070 -0.2584
 1006YOPC   GL214556  11.420   9.162   6.381  0.0967  0.1350 -0.2362
 1006YOPC   C1A14557  11.567   9.626   6.431 -0.0528  0.1596 -0.1973
 1006YOPC   D2A14558  11.706   9.677   6.823  0.4552 -0.0730  0.6115
 1006YOPC   C3A14559  11.795   9.340   7.143 -0.2530 -0.0834  0.5068
 1006YOPC   C4A14560  12.172   9.080   7.203 -0.0832 -0.2638  0.2582
 1006YOPC   C1B14561  11.458   9.198   6.750  0.0584 -0.1950  0.3142
 1006YOPC   C2B14562  11.472   8.937   7.089 -0.1114  0.0155 -0.3484
 1006YOPC   D3B14563  11.860   8.681   7.091  0.0400 -0.0950  0.1159
 1006YOPC   C4B14564  11.937   8.263   7.009  0.1635  0.0484 -0.1582
 1007YOPC   NC314565   0.836   6.794   5.387  0.2324  0.1324  0.2628
 1007YOPC   PO414566   0.462   6.397   5.551  0.0126  0.2357 -0.3745
 1007YOPC   GL114567   0.211   6.287   5.852  0.0096  0.0386 -0.3136
 1007YOPC   GL214568   0.360   6.506   6.029  0.1816 -0.2493 -0.0498
 1007YOPC   C1A14569   0.044   6.176   6.186  0.1378 -0.0452 -0.5784
 1007YOPC   D2A14570  -0.052   5.951   6.501 -0.3080  0.2294  0.0406
 1007YOPC   C3A14571   0.210   5.774   6.868  0.0439 -0.2955 -0.0202
 1007YOPC   C4A14572   0.484   5.681   7.212  0.1793 -0.2213  0.1733
 1007YOPC   C1B14573   0.478   6.340   6.449  0.1617 -0.1210 -0.1386
 1007YOPC   C2B14574   0.450   6.225   6.862 -0.0127 -0.0994 -0.1932
 1007YOPC   D3B14575   0.878   6.130   7.056  0.0295  0.1768 -0.1505
 1007YOPC   C4B14576   0.988   5.842   7.455  0.2496 -0.1170  0.0510
 1008YOPC   NC314577  15.244  16.721   5.194 -0.2442 -0.0402 -0.0771
 1008YOPC   PO414578  15.517  16.513   5.327 -0.2412  0.0260  0.0245
 1008YOPC   GL114579  15.708  16.538   5.734  0.1431  0.0930  0.3109
 1008YOPC   GL214580  15.544  16.319   5.937 -0.1150  0.0366  0.0611
 1008YOPC   C1A14581  15.985  16.458   6.127 -0.0949  0.2014  0.1479
 1008YOPC   D2A14582  16.201  16.143   6.215 -0.3427  0.0944 -0.0806
 1008YOPC   C3A14583  16.538  16.045   6.528  0.1523 -0.0652 -0.5572
 1008YOPC   C4A14584  16.902  16.006   6.535  0.2280 -0.1317 -0.2055
 1008YOPC   C1B14585  15.586  16.380   6.347  0.3424 -0.0740 -0.1381
 1008YOPC   C2B14586  15.622  16.291   6.791 -0.0319  0.0860  0.2888
 1008YOPC   D3B14587  15.756  16.592   7.039 -0.1431  0.2215  0.2453
 1008YOPC   C4B14588  15.653  16.936   7.290  0.0663  0.1977 -0.1699
 1009YOPC   NC314589   5.478   3.488   5.640  0.1054  0.0773 -0.1848
 1009YOPC   PO414590   5.297   3.932   5.543 -0.0515 -0.0413  0.0515
 1009YOPC   GL114591   5.140   3.927   5.980 -0.1079  0.0087 -0.0300
 1009YOPC   GL214592   5.030   4.152   6.229 -0.1073  0.1622 -0.0679
 1009YOPC   C1A14593   4.877   3.610   6.330 -0.0029  0.2248 -0.3191
 1009YOPC   D2A14594   4.666   3.706   6.657  0.1829  0.3441  0.0491
 1009YOPC   C3A14595   4.299   3.768   6.664  0.2525 -0.1319  0.2516
 1009YOPC   C4A14596   4.148   3.981   6.948  0.1820  0.2198  0.2608
 1009YOPC   C1B14597   4.923   4.117   6.630  0.0694 -0.1154 -0.0855
 1009YOPC   C2B14598   4.788   4.227   7.070 -0.3382  0.0084 -0.3523
 1009YOPC   D3B14599   4.547   3.902   7.220  0.0329  0.3594  0.0672
 1009YOPC   C4B14600   4.399   3.532   7.630 -0.0436  0.3498  0.2265
 1010YOPC   NC314601   2.229  16.009   5.857  0.1478 -0.3665 -0.0121
 1010YOPC   PO414602   2.511  15.657   5.695  0.4021 -0.0438  0.0971
 1010YOPC   GL114603   2.376  15.580   6.093  0.2599  0.1708 -0.3873
 1010YOPC   GL214604   2.053  15.616   6.168  0.0380 -0.2548  0.2132
 1010YOPC   C1A14605   2.343  15.873   6.515  0.0605 -0.0732  0.0049
 1010YOPC   D2A14606   2.085  15.959   6.836  0.0854 -0.2160 -0.1026
 1010YOPC   C3A14607   2.250  15.986   7.179 -0.2198  0.0255 -0.0361
 1010YOPC   C4A14608   2.424  16.108   7.469 -0.2778 -0.0089 -0.0839
 1010YOPC   C1B14609   2.171  15.454   6.561  0.1440  0.0140 -0.2199
 1010YOPC   C2B14610   2.517  15.568   6.892  0.1761  0.2620  0.0388
 1010YOPC   D3B14611   2.608  15.599   7.312  0.0118 -0.1165  0.1633
 1010YOPC   C4B14612   2.727  15.443   7.793  0.1514  0.5116 -0.0713
 1011YOPC   NC314613  11.698  13.064   5.420 -0.0013  0.2443  0.0702
 1011YOPC   PO414614  12.070  12.848   5.209  0.2122 -0.1819  0.1676
 1011YOPC   GL114615  12.178  12.808   5.571 -0.1127 -0.1279 -0.0150
 1011YOPC   GL214616  12.073  12.576   5.645 -0.0385 -0.0024 -0.0860
 1011YOPC   C1A14617  12.268  13.074   5.983 -0.1306  0.1502 -0.1326
 1011YOPC   D2A14618  12.283  12.953   6.416  0.2596  0.4170 -0.2484
 1011YOPC   C3A14619  12.059  12.568   6.623  0.3360  0.3165 -0.2103
 1011YOPC   C4A14620  11.963  12.558   6.986 -0.0522  0.1109 -0.0599
 1011YOPC   C1B14621  12.120  12.513   6.102  0.0524 -0.1109  0.0249
 1011YOPC   C2B14622  11.862  12.180   6.366  0.1473  0.0978 -0.0327
 1011YOPC   D3B14623  12.065  12.100   6.755 -0.0410  0.3116 -0.2279
 1011YOPC   C4B14624  12.395  12.272   7.067  0.2317 -0.2890  0.0910
 1012YOPC   NC314625  15.039  14.625   5.340 -0.2986  0.1271  0.0604
 1012YOPC   PO414626  15.511  14.804   5.417  0.0292 -0.0466  0.1042
 1012YOPC   GL114627  15.360  14.889   5.830 -0.0821 -0.2635  0.0017
 1012YOPC   GL214628  15.075  14.833   5.933 -0.1906  0.0005  0.0016
 1012YOPC   C1A14629  15.386  14.930   6.338 -0.1195 -0.2488  0.2376
 1012YOPC   D2A14630  15.427  15.013   6.794  0.0575 -0.1825  0.2248
 1012YOPC   C3A14631  15.620  14.810   7.129 -0.0257 -0.0135 -0.1052
 1012YOPC   C4A14632  15.797  14.632   7.388  0.0204  0.0323 -0.1404
 1012YOPC   C1B14633  14.717  14.743   6.228 -0.3626 -0.4477  0.1140
 1012YOPC   C2B14634  14.673  15.065   6.558 -0.0988  0.0979 -0.0585
 1012YOPC   D3B14635  14.488  15.065   6.921 -0.0837 -0.0156 -0.1292
 1012YOPC   C4B14636  14.073  15.245   7.197  0.1314  0.2091  0.6548
 1013YOPC   NC314637   3.313  11.656   5.614 -0.0004  0.0351  0.1733
 1013YOPC   PO414638   2.877  11.504   5.779  0.0086 -0.2091  0.0797
 1013YOPC   GL114639   2.635  11.526   6.150  0.2450 -0.2293 -0.0358
 1013YOPC   GL214640   2.717  11.911   6.207  0.0301  0.0707  0.0093
 1013YOPC   C1A14641   2.281  11.342   6.336  0.0649 -0.1406  0.1237
 1013YOPC   D2A14642   1.974  11.299   6.677  0.2565  0.0006 -0.0317
 1013YOPC   C3A14643   1.769  11.168   7.047 -0.2999 -0.0876 -0.0380
 1013YOPC   C4A14644   1.740  10.728   7.207 -0.0320 -0.0406 -0.1454
 1013YOPC   C1B14645   2.576  11.937   6.671  0.1130  0.2894  0.1726
 1013YOPC   C2B14646   2.725  11.982   7.059 -0.2140 -0.1121  0.0955
 1013YOPC   D3B14647   2.641  12.315   7.342  0.4109 -0.0081 -0.1816
 1013YOPC   C4B14648   2.516  12.527   7.669 -0.0879 -0.0873  0.1541
 1014YOPC   NC314649   5.617   9.719   5.434  0.0255 -0.0110  0.0728
 1014YOPC   PO414650   5.272   9.504   5.670 -0.2567 -0.0690 -0.0310
 1014YOPC   GL114651   5.230   9.534   6.027 -0.1163 -0.2629 -0.0555
 1014YOPC   GL214652   4.908   9.637   6.216 -0.0405 -0.3193 -0.2460
 1014YOPC   C1A14653   5.406   9.341   6.437 -0.2617 -0.2536  0.2654
 1014YOPC   D2A14654   5.372   9.294   6.846  0.2272 -0.0101 -0.1405
 1014YOPC   C3A14655   5.060   8.949   7.045 -0.2327 -0.0384  0.0607
 1014YOPC   C4A14656   4.747   9.060   7.224  0.0895 -0.1419 -0.1938
 1014YOPC   C1B14657   4.804   9.421   6.536 -0.0121 -0.0172 -0.1970
 1014YOPC   C2B14658   4.910   9.552   6.966 -0.0512  0.0689  0.1084
 1014YOPC   D3B14659   4.898   9.965   7.306  0.2375 -0.2942 -0.0959
 1014YOPC   C4B14660   5.117  10.356   7.273 -0.0234 -0.2360 -0.1283
 1015YOPC   NC314661   8.276  12.667   5.355 -0.0906 -0.3518 -0.0692
 1015YOPC   PO414662   8.003  12.524   5.575 -0.1147  0.3563  0.0528
 1015YOPC   GL114663   7.991  12.319   5.894 -0.0100  0.2432  0.3439
 1015YOPC   GL214664   8.263  12.273   6.041  0.2779 -0.2083  0.1116
 1015YOPC   C1A14665   7.914  12.118   6.328  0.2191  0.0070 -0.0621
 1015YOPC   D2A14666   8.056  11.953   6.751 -0.2273  0.3498  0.2609
 1015YOPC   C3A14667   8.134  11.675   7.006  0.0198  0.2255  0.2603
 1015YOPC   C4A14668   8.189  11.485   7.387 -0.1551 -0.3158 -0.4226
 1015YOPC   C1B14669   8.405  12.152   6.406  0.1341  0.1632 -0.2232
 1015YOPC   C2B14670   8.487  12.136   6.858  0.0196  0.1099 -0.4074
 1015YOPC   D3B14671   8.168  12.174   7.173  0.0087  0.1328  0.1604
 1015YOPC   C4B14672   7.931  12.141   7.569 -0.2951  0.1200 -0.2839
 1016YOPC   NC314673  18.477   8.045   5.668  0.1588 -0.0541 -0.2487
 1016YOPC   PO414674  18.172   8.186   5.414 -0.1550 -0.0619  0.0995
 1016YOPC   GL114675  18.326   8.515   5.772  0.2577 -0.0679  0.3514
 1016YOPC   GL214676  18.568   8.585   5.810  0.0432  0.3200 -0.0200
 1016YOPC   C1A14677  17.988   8.612   6.124  0.0482 -0.1884  0.0381
 1016YOPC   D2A14678  17.839   8.340   6.543 -0.0052 -0.3922 -0.1931
 1016YOPC   C3A14679  17.982   8.566   6.910  0.0477  0.1362 -0.2100
 1016YOPC   C4A14680  18.122   9.013   7.086  0.1399  0.2908 -0.3031
 1016YOPC   C1B14681  18.510   8.613   6.255 -0.0330 -0.2397 -0.0516
 1016YOPC   C2B14682  18.488   8.646   6.706  0.2344  0.0532 -0.1448
 1016YOPC   D3B14683  18.674   9.000   6.846  0.1307  0.0449 -0.0851
 1016YOPC   C4B14684  19.040   9.193   6.784  0.0604 -0.0322  0.1070
 1017YOPC   NC314685  10.599   1.784   5.261 -0.0928 -0.2420  0.1148
 1017YOPC   PO414686  10.693   1.865   5.670  0.0555  0.2855  0.1715
 1017YOPC   GL114687  10.737   1.802   6.123  0.0811  0.1971 -0.1148
 1017YOPC   GL214688  11.063   1.989   6.278 -0.0135 -0.1708  0.0756
 1017YOPC   C1A14689  10.957   1.499   6.476 -0.0702 -0.0181  0.1342
 1017YOPC   D2A14690  11.267   1.258   6.691  0.1575 -0.2219  0.1585
 1017YOPC   C3A14691  11.232   1.184   7.161 -0.2547  0.1166 -0.0374
 1017YOPC   C4A14692  11.067   0.996   7.485 -0.1638 -0.1501 -0.1301
 1017YOPC   C1B14693  10.987   1.997   6.671  0.2872  0.1506 -0.1512
 1017YOPC   C2B14694  11.159   1.693   7.002  0.2070 -0.1643 -0.0428
 1017YOPC   D3B14695  11.506   1.635   7.086 -0.1151  0.0512  0.1212
 1017YOPC   C4B14696  11.694   1.829   7.444  0.0537  0.2017  0.0848
 1018YOPC   NC314697   9.946   5.027   5.928  0.2558 -0.0295 -0.2046
 1018YOPC   PO414698   9.561   5.214   5.760  0.1240 -0.2050 -0.3749
 1018YOPC   GL114699   9.493   5.365   6.161  0.1552  0.1401 -0.0650
 1018YOPC   GL214700   9.554   5.110   6.274  0.1934 -0.0285  0.0550
 1018YOPC   C1A14701   9.790   5.562   6.393 -0.1184 -0.3654  0.0726
 1018YOPC   D2A14702  10.171   5.587   6.630  0.1698  0.0568 -0.0257
 1018YOPC   C3A14703  10.534   5.433   6.415 -0.3541  0.3636  0.1121
 1018YOPC   C4A14704  10.889   5.242   6.250 -0.0172 -0.1210 -0.1564
 1018YOPC   C1B14705   9.674   5.132   6.735  0.0054 -0.1148 -0.1516
 1018YOPC   C2B14706   9.676   5.058   7.179  0.2552  0.4338  0.0578
 1018YOPC   D3B14707   9.634   5.275   7.507  0.0062  0.2746  0.1659
 1018YOPC   C4B14708   9.697   5.551   7.797  0.2686 -0.1152  0.3056
 1019YOPC   NC314709  15.779   6.778   5.608 -0.0922 -0.1014 -0.1940
 1019YOPC   PO414710  15.443   7.218   5.728 -0.1491  0.5780  0.0060
 1019YOPC   GL114711  15.546   6.957   5.991  0.0364 -0.0282 -0.0507
 1019YOPC   GL214712  15.163   6.747   6.041  0.0757  0.1388 -0.0316
 1019YOPC   C1A14713  15.685   6.497   6.155 -0.1464  0.0549  0.0216
 1019YOPC   D2A14714  15.806   6.095   6.301  0.3451 -0.3225 -0.1845
 1019YOPC   C3A14715  15.748   5.782   6.541  0.0796 -0.1262  0.1214
 1019YOPC   C4A14716  15.959   5.999   6.852  0.0231  0.1992  0.1450
 1019YOPC   C1B14717  15.272   6.656   6.491  0.0244  0.2423 -0.3006
 1019YOPC   C2B14718  15.659   6.799   6.703  0.1557  0.0117 -0.2793
 1019YOPC   D3B14719  16.123   6.889   6.417  0.2109  0.0089  0.0241
 1019YOPC   C4B14720  16.297   6.915   6.099 -0.0553 -0.0825 -0.1053
 1020YOPC   NC314721   0.296   2.385   4.830  0.1781  0.2091  0.4524
 1020YOPC   PO414722   0.087   2.247   5.178  0.0719  0.2276  0.3297
 1020YOPC   GL114723   0.130   2.115   5.676 -0.1370  0.0602 -0.0048
 1020YOPC   GL214724  -0.054   1.960   5.790 -0.0752 -0.3192  0.1059
 1020YOPC   C1A14725   0.298   2.184   6.026  0.0280  0.1700  0.1764
 1020YOPC   D2A14726   0.540   2.105   6.400  0.0559 -0.1171 -0.1770
 1020YOPC   C3A14727   0.668   1.846   6.759  0.1743 -0.1508 -0.1491
 1020YOPC   C4A14728   0.834   1.616   7.101 -0.0785 -0.0344  0.1247
 1020YOPC   C1B14729  -0.124   1.984   6.237  0.2546  0.2716 -0.2202
 1020YOPC   C2B14730  -0.176   2.314   6.510  0.0763 -0.0087 -0.1605
 1020YOPC   D3B14731  -0.433   2.483   6.599 -0.0280 -0.1108 -0.1806
 1020YOPC   C4B14732  -0.878   2.313   6.479 -0.0433 -0.0913 -0.2087
 1021YOPC   NC314733   7.290  16.740   5.711  0.1137  0.3072 -0.1203
 1021YOPC   PO414734   7.105  16.324   5.571 -0.5022 -0.1790  0.0268
 1021YOPC   GL114735   7.307  16.296   6.034 -0.1211  0.0739 -0.1568
 1021YOPC   GL214736   7.178  16.523   6.169  0.2231  0.0892  0.1786
 1021YOPC   C1A14737   7.407  16.195   6.548  0.0787  0.1606  0.3188
 1021YOPC   D2A14738   7.444  15.988   6.941 -0.0578  0.2369  0.0437
 1021YOPC   C3A14739   7.771  16.175   7.251 -0.0900  0.1575  0.1976
 1021YOPC   C4A14740   8.022  16.466   7.544 -0.1767  0.1958 -0.1300
 1021YOPC   C1B14741   7.237  16.723   6.528 -0.1642  0.0506 -0.4433
 1021YOPC   C2B14742   7.175  16.770   6.984 -0.2508  0.0805 -0.2153
 1021YOPC   D3B14743   7.360  16.455   7.268  0.4623 -0.1123  0.0427
 1021YOPC   C4B14744   7.121  16.098   7.337  0.1130 -0.1882  0.0119
 1022YOPC   NC314745   9.455  11.681   5.610  0.1041  0.2987 -0.0185
 1022YOPC   PO414746   9.008  11.520   5.663 -0.0268 -0.2761 -0.3914
 1022YOPC   GL114747   9.024  11.775   5.986 -0.0057 -0.1771 -0.3330
 1022YOPC   GL214748   9.193  12.061   6.068 -0.0164  0.1517 -0.0458
 1022YOPC   C1A14749   8.751  11.848   6.294 -0.1552  0.1122  0.2387
 1022YOPC   D2A14750   8.514  11.701   6.630 -0.1918  0.1064  0.0829
 1022YOPC   C3A14751   8.544  11.350   7.004 -0.0108  0.1221 -0.0553
 1022YOPC   C4A14752   8.631  11.015   6.666 -0.1572  0.0011 -0.1470
 1022YOPC   C1B14753   9.408  12.366   6.403  0.3328  0.1464 -0.1588
 1022YOPC   C2B14754   9.360  12.569   6.684  0.0557  0.0694 -0.0623
 1022YOPC   D3B14755   9.091  12.560   7.090 -0.0331  0.1179 -0.2194
 1022YOPC   C4B14756   8.957  12.565   7.506  0.2775 -0.2001  0.0686
 1023YOPC   NC314757  15.250  13.650   5.686 -0.1123 -0.3448 -0.2764
 1023YOPC   PO414758  14.798  13.679   5.537 -0.0373  0.1294  0.1502
 1023YOPC   GL114759  14.726  13.834   5.943  0.0992  0.0351 -0.1939
 1023YOPC   GL214760  15.069  13.867   6.101  0.1076  0.2246  0.5301
 1023YOPC   C1A14761  14.785  14.251   6.285 -0.0137 -0.2418 -0.2193
 1023YOPC   D2A14762  14.981  14.191   6.719 -0.3456 -0.1303  0.0429
 1023YOPC   C3A14763  15.269  14.035   6.893  0.0306 -0.1067 -0.1123
 1023YOPC   C4A14764  15.446  13.685   6.833  0.2108  0.0780  0.0866
 1023YOPC   C1B14765  15.387  13.964   6.431 -0.1507  0.1286 -0.1239
 1023YOPC   C2B14766  15.742  14.091   6.711  0.0537 -0.2532 -0.0336
 1023YOPC   D3B14767  15.716  14.294   7.044  0.0795 -0.0880 -0.3040
 1023YOPC   C4B14768  15.521  14.064   7.447 -0.0267 -0.1357 -0.1513
 1024YOPC   NC314769   5.667   7.067   5.453  0.2483  0.0140 -0.0252
 1024YOPC   PO414770   5.578   7.358   5.726 -0.1063  0.0701 -0.0067
 1024YOPC   GL114771   5.554   7.486   6.155  0.0322  0.1741  0.1784
 1024YOPC   GL214772   5.656   7.764   6.344  0.3102 -0.0378 -0.1256
 1024YOPC   C1A14773   5.344   7.276   6.504 -0.2299  0.0415  0.1503
 1024YOPC   D2A14774   5.215   6.878   6.723 -0.0449  0.1681 -0.1188
 1024YOPC   C3A14775   5.323   6.873   7.150 -0.1151 -0.1292 -0.5885
 1024YOPC   C4A14776   5.583   6.678   7.480 -0.1690 -0.0320  0.1089
 1024YOPC   C1B14777   5.776   7.526   6.622  0.0554  0.0258  0.1349
 1024YOPC   C2B14778   5.825   7.205   6.969  0.2254  0.2717  0.1835
 1024YOPC   D3B14779   5.669   7.186   7.315  0.1042  0.0055 -0.1586
 1024YOPC   C4B14780   5.436   7.214   7.730  0.0987  0.2230  0.0561
 1025YOPC   NC314781  14.763  17.428   5.315 -0.2342 -0.2658 -0.1976
 1025YOPC   PO414782  14.873  17.015   5.261  0.0138 -0.3254  0.1819
 1025YOPC   GL114783  14.911  16.776   5.673  0.1878  0.2391  0.1594
 1025YOPC   GL214784  15.259  16.732   5.706  0.0619 -0.0512 -0.2026
 1025YOPC   C1A14785  15.038  16.511   6.089 -0.3755 -0.0017 -0.1446
 1025YOPC   D2A14786  15.112  16.662   6.525  0.0517  0.1027 -0.1357
 1025YOPC   C3A14787  15.089  16.417   6.844 -0.1532  0.2988 -0.1827
 1025YOPC   C4A14788  15.107  16.124   7.115  0.2636  0.4011 -0.3595
 1025YOPC   C1B14789  15.467  16.822   6.150  0.3897  0.1672  0.0030
 1025YOPC   C2B14790  15.563  16.811   6.588 -0.1771  0.1232  0.1076
 1025YOPC   D3B14791  15.715  17.232   6.716 -0.0371 -0.0175  0.0867
 1025YOPC   C4B14792  16.094  17.428   6.677  0.1751  0.0149  0.1513
 1026YOPC   NC314793   4.574   6.419   5.780 -0.0561  0.0706  0.0077
 1026YOPC   PO414794   4.283   6.159   5.629  0.3484 -0.0215 -0.1239
 1026YOPC   GL114795   4.114   6.299   6.089  0.2085 -0.0094 -0.2444
 1026YOPC   GL214796   3.792   6.190   6.129  0.3221  0.1243 -0.1418
 1026YOPC   C1A14797   3.908   6.640   6.376  0.0546  0.1858  0.3553
 1026YOPC   D2A14798   3.755   6.700   6.723 -0.0706  0.3045  0.0134
 1026YOPC   C3A14799   3.844   6.866   7.219 -0.0566  0.0247 -0.0026
 1026YOPC   C4A14800   3.767   6.735   7.672  0.2696 -0.1681  0.1608
 1026YOPC   C1B14801   3.748   6.201   6.551 -0.2666 -0.1079  0.0548
 1026YOPC   C2B14802   3.912   6.064   6.920 -0.2425  0.0474 -0.0932
 1026YOPC   D3B14803   4.348   5.875   6.901  0.3007  0.0698  0.1589
 1026YOPC   C4B14804   4.599   5.652   7.040 -0.1326 -0.0554  0.1231
 1027YOPC   NC314805   8.154  13.604   5.499  0.0264 -0.0171 -0.0140
 1027YOPC   PO414806   8.358  13.143   5.484  0.0589  0.3723 -0.0318
 1027YOPC   GL114807   8.333  13.301   5.882 -0.2571 -0.0348  0.1164
 1027YOPC   GL214808   8.556  13.610   6.000 -0.2336 -0.2784 -0.0041
 1027YOPC   C1A14809   8.049  13.092   6.274 -0.0703 -0.0437 -0.0464
 1027YOPC   D2A14810   7.655  13.368   6.556  0.1675  0.1832  0.1064
 1027YOPC   C3A14811   7.670  13.796   6.773 -0.0421  0.3447  0.1003
 1027YOPC   C4A14812   7.767  14.293   6.833  0.2523 -0.1338  0.2844
 1027YOPC   C1B14813   8.431  13.357   6.380 -0.0706 -0.1674 -0.2297
 1027YOPC   C2B14814   8.327  13.133   6.877  0.1006 -0.0109 -0.0270
 1027YOPC   D3B14815   7.926  12.960   6.780  0.4918 -0.0347 -0.0589
 1027YOPC   C4B14816   7.588  12.865   6.547  0.0182 -0.1620  0.2483
 1028YOPC   NC314817   8.360   3.189   6.099 -0.0392  0.2650  0.4812
 1028YOPC   PO414818   7.962   3.054   6.164 -0.2551  0.3243 -0.0798
 1028YOPC   GL114819   7.934   2.795   6.544 -0.2241 -0.0364 -0.1538
 1028YOPC   GL214820   7.778   2.342   6.502  0.0727 -0.1844  0.0672
 1028YOPC   C1A14821   8.052   2.676   6.926 -0.0068 -0.1798  0.0543
 1028YOPC   D2A14822   8.456   2.530   7.191 -0.1705 -0.1363 -0.0762
 1028YOPC   C3A14823   8.464   2.219   7.565  0.2381 -0.0363  0.3812
 1028YOPC   C4A14824   8.444   2.438   7.951 -0.0320 -0.4338  0.0385
 1028YOPC   C1B14825   7.645   2.340   6.846 -0.0148 -0.1371  0.3025
 1028YOPC   C2B14826   7.525   2.160   7.261  0.1793 -0.1875 -0.0282
 1028YOPC   D3B14827   7.621   2.254   7.760 -0.4543  0.3563 -0.1767
 1028YOPC   C4B14828   7.657   2.450   8.238  0.3226 -0.0345  0.2022
 1029YOPC   NC314829   8.845  18.783   5.962  0.2864 -0.0894 -0.0140
 1029YOPC   PO414830   8.565  18.585   6.229 -0.0919  0.2624 -0.1531
 1029YOPC   GL114831   8.824  18.595   6.669 -0.0381 -0.4456 -0.4676
 1029YOPC   GL214832   9.095  18.468   6.766 -0.0170  0.0732 -0.2244
 1029YOPC   C1A14833   8.624  18.531   7.066  0.0246 -0.4418 -0.0187
 1029YOPC   D2A14834   8.649  18.560   7.469 -0.1937 -0.1989 -0.3356
 1029YOPC   C3A14835   8.700  18.630   7.939  0.2591  0.1400  0.0355
 1029YOPC   C4A14836   8.709  18.851   8.304  0.0202  0.4922 -0.0646
 1029YOPC   C1B14837   9.016  18.165   7.076  0.0112 -0.0874  0.1408
 1029YOPC   C2B14838   9.080  17.800   7.363  0.0154  0.0137  0.3214
 1029YOPC   D3B14839   8.685  17.657   7.484  0.3120  0.1282 -0.0285
 1029YOPC   C4B14840   8.512  17.300   7.646  0.0153  0.0504 -0.0260
 1030YOPC   NC314841  12.972  14.376   4.926  0.2657  0.0547 -0.0537
 1030YOPC   PO414842  13.016  14.017   5.204 -0.0493  0.0515  0.0729
 1030YOPC   GL114843  12.867  13.833   5.597 -0.0177 -0.0198  0.3436
 1030YOPC   GL214844  12.853  14.089   5.685  0.1472 -0.1075 -0.0681
 1030YOPC   C1A14845  12.927  13.807   6.049 -0.2414 -0.0362  0.0692
 1030YOPC   D2A14846  13.371  13.652   6.187 -0.0810  0.2138 -0.1914
 1030YOPC   C3A14847  13.350  13.507   6.622 -0.2225 -0.2674 -0.0304
 1030YOPC   C4A14848  13.148  13.280   7.033  0.2205 -0.0013  0.4021
 1030YOPC   C1B14849  12.998  14.370   5.876 -0.1708 -0.0557  0.0041
 1030YOPC   C2B14850  13.371  14.548   6.117 -0.1161 -0.1073 -0.2131
 1030YOPC   D3B14851  13.482  14.454   6.557 -0.1629 -0.2048  0.2282
 1030YOPC   C4B14852  13.679  14.232   6.924  0.3266  0.0366 -0.0303
 1031YOPC   NC314853   3.594  17.485   5.169  0.0576 -0.1187  0.1650
 1031YOPC   PO414854   4.049  17.540   5.233  0.0749 -0.0465 -0.0417
 1031YOPC   GL114855   3.861  17.614   5.604  0.3167  0.7717  0.0765
 1031YOPC   GL214856   4.205  17.568   5.799  0.0319 -0.1827 -0.2989
 1031YOPC   C1A14857   3.518  17.756   5.891 -0.3948 -0.2127  0.2044
 1031YOPC   D2A14858   3.285  18.134   5.754  0.2950  0.0337 -0.1634
 1031YOPC   C3A14859   3.458  18.594   5.856 -0.0980 -0.0958 -0.0207
 1031YOPC   C4A14860   3.240  18.635   6.277  0.0604 -0.3747  0.2897
 1031YOPC   C1B14861   4.073  17.863   6.044 -0.0725 -0.2073  0.2461
 1031YOPC   C2B14862   3.868  18.197   6.195  0.1606  0.0321 -0.1243
 1031YOPC   D3B14863   3.438  18.126   6.223 -0.1546  0.0147  0.0628
 1031YOPC   C4B14864   3.102  17.844   6.295  0.3750  0.1640  0.1014
 1032YOPC   NC314865  18.164  13.766   5.573 -0.4313  0.1572 -0.0483
 1032YOPC   PO414866  17.930  14.093   5.881  0.2980  0.0057  0.0367
 1032YOPC   GL114867  17.635  14.292   6.080 -0.2837  0.1513 -0.1082
 1032YOPC   GL214868  17.744  14.603   6.169  0.2386  0.3834  0.0050
 1032YOPC   C1A14869  17.604  14.179   6.509 -0.4949  0.2399 -0.2779
 1032YOPC   D2A14870  17.609  13.924   6.887 -0.1413  0.1163 -0.1023
 1032YOPC   C3A14871  17.335  13.897   7.231 -0.0452 -0.0756 -0.0742
 1032YOPC   C4A14872  17.119  13.876   7.568  0.0484 -0.4054  0.0493
 1032YOPC   C1B14873  17.941  14.554   6.529 -0.1591  0.3611  0.2117
 1032YOPC   C2B14874  17.898  14.391   6.950  0.0280 -0.0919  0.1939
 1032YOPC   D3B14875  17.530  14.326   7.207  0.0887  0.0547  0.2266
 1032YOPC   C4B14876  17.182  14.428   7.486 -0.4101 -0.1432  0.0748
 1033YOPC   NC314877   8.561   4.076   6.357 -0.1344  0.0401 -0.0784
 1033YOPC   PO414878   8.440   4.372   6.231  0.0807  0.1709 -0.1974
 1033YOPC   GL114879   8.854   4.482   6.405  0.0952  0.2070 -0.2759
 1033YOPC   GL214880   9.118   4.704   6.340 -0.0532 -0.1130  0.0323
 1033YOPC   C1A14881   8.923   4.699   6.814  0.1507 -0.0242 -0.0701
 1033YOPC   D2A14882   8.640   4.906   7.203 -0.0984  0.2510  0.0382
 1033YOPC   C3A14883   8.566   4.776   7.573  0.1596 -0.1066  0.0425
 1033YOPC   C4A14884   8.506   4.515   7.846  0.1616  0.0251 -0.0775
 1033YOPC   C1B14885   9.422   4.651   6.604  0.0488  0.1384 -0.1102
 1033YOPC   C2B14886   9.354   4.695   7.023  0.1381  0.1426  0.0183
 1033YOPC   D3B14887   9.527   4.620   7.332  0.1238 -0.0459 -0.0282
 1033YOPC   C4B14888   9.877   4.832   7.622 -0.0931 -0.0664 -0.1994
 1034YOPC   NC314889   5.682  12.786   5.767 -0.1682 -0.1637 -0.4070
 1034YOPC   PO414890   5.673  13.248   5.698  0.0789  0.2355 -0.1633
 1034YOPC   GL114891   5.605  13.182   6.178 -0.1498 -0.2049 -0.0045
 1034YOPC   GL214892   5.347  13.275   6.275  0.0657 -0.2590  0.0779
 1034YOPC   C1A14893   5.762  13.289   6.626 -0.2409  0.3284  0.0254
 1034YOPC   D2A14894   5.685  13.371   7.063 -0.1430  0.1438  0.2059
 1034YOPC   C3A14895   5.918  13.117   7.318 -0.1826  0.0153 -0.3142
 1034YOPC   C4A14896   5.714  13.184   7.568 -0.1932  0.0058  0.0097
 1034YOPC   C1B14897   5.146  13.517   6.559  0.1224 -0.1165 -0.2466
 1034YOPC   C2B14898   4.878  13.573   6.775 -0.0441  0.4641 -0.1012
 1034YOPC   D3B14899   4.869  13.251   7.141  0.1005  0.0684  0.3147
 1034YOPC   C4B14900   4.810  13.161   7.551 -0.1538 -0.0673  0.2020
 1035YOPC   NC314901   6.485   3.252   5.910  0.0213  0.0406 -0.0539
 1035YOPC   PO414902   6.237   2.874   6.009  0.1378 -0.0581 -0.3875
 1035YOPC   GL114903   6.113   2.525   6.255 -0.1770 -0.2733 -0.1778
 1035YOPC   GL214904   6.495   2.471   6.412  0.0296  0.3072 -0.0561
 1035YOPC   C1A14905   5.869   2.181   6.393 -0.2630  0.1645  0.0767
 1035YOPC   D2A14906   5.994   1.657   6.290 -0.0371  0.0826 -0.0448
 1035YOPC   C3A14907   6.260   1.537   6.627  0.0602  0.1436 -0.0717
 1035YOPC   C4A14908   6.141   1.605   7.055 -0.1128  0.1802 -0.2572
 1035YOPC   C1B14909   6.168   2.586   6.790  0.0535  0.1237  0.3495
 1035YOPC   C2B14910   5.930   2.921   6.916 -0.0640 -0.0216 -0.0021
 1035YOPC   D3B14911   5.488   3.026   6.896  0.3216 -0.1881  0.1754
 1035YOPC   C4B14912   5.120   3.235   6.775 -0.3998  0.2959  0.0872
 1036YOPC   NC314913  13.889   8.801   5.287  0.1290  0.1730 -0.0635
 1036YOPC   PO414914  14.021   8.484   5.092 -0.0387 -0.1114  0.1018
 1036YOPC   GL114915  14.142   8.409   5.520  0.0348  0.2266  0.2240
 1036YOPC   GL214916  14.313   8.659   5.606 -0.1883 -0.0984 -0.0767
 1036YOPC   C1A14917  13.956   8.158   5.866  0.2241  0.1336 -0.1125
 1036YOPC   D2A14918  13.745   8.084   6.286  0.0473  0.0125 -0.4060
 1036YOPC   C3A14919  13.780   8.190   6.687 -0.2307 -0.2135 -0.2193
 1036YOPC   C4A14920  13.898   8.362   7.071 -0.0909 -0.0679 -0.3507
 1036YOPC   C1B14921  14.126   8.732   6.071  0.1033 -0.0124  0.0761
 1036YOPC   C2B14922  13.888   8.664   6.488 -0.1343 -0.2946 -0.1330
 1036YOPC   D3B14923  13.603   8.781   6.685  0.4482 -0.3883  0.2309
 1036YOPC   C4B14924  13.102   8.664   6.734  0.1582  0.0802  0.0008
 1037YOPC   NC314925   7.440   1.180   5.870 -0.2579 -0.2468 -0.4931
 1037YOPC   PO414926   7.533   1.550   6.214  0.2388  0.1768 -0.3993
 1037YOPC   GL114927   7.327   1.573   6.507  0.0104 -0.0753  0.1625
 1037YOPC   GL214928   7.474   1.804   6.746 -0.1890  0.2637  0.0848
 1037YOPC   C1A14929   6.935   1.539   6.747  0.2135  0.3682  0.1123
 1037YOPC   D2A14930   6.663   1.682   7.053  0.0159  0.0998 -0.1432
 1037YOPC   C3A14931   6.524   1.685   7.456 -0.3030 -0.1833 -0.1265
 1037YOPC   C4A14932   6.336   1.370   7.762  0.0307 -0.3218  0.1457
 1037YOPC   C1B14933   7.213   1.786   7.043 -0.2470 -0.2963 -0.0131
 1037YOPC   C2B14934   7.122   1.915   7.414  0.2308  0.0462 -0.2179
 1037YOPC   D3B14935   7.107   2.320   7.619  0.3572  0.3746  0.1107
 1037YOPC   C4B14936   7.049   2.611   7.763  0.0331  0.1021 -0.1495
 1038YOPC   NC314937  11.419   7.299   5.548  0.2337 -0.1193 -0.0485
 1038YOPC   PO414938  11.016   7.132   5.721  0.0958 -0.0560  0.0405
 1038YOPC   GL114939  10.744   7.161   6.046  0.1527  0.0532  0.3032
 1038YOPC   GL214940  10.477   7.415   6.006 -0.2249  0.2559  0.1069
 1038YOPC   C1A14941  10.482   7.108   6.390 -0.1761 -0.0555 -0.1623
 1038YOPC   D2A14942  10.551   7.218   6.838  0.0335 -0.1002 -0.0590
 1038YOPC   C3A14943  10.930   7.121   6.992  0.1190 -0.0534 -0.1205
 1038YOPC   C4A14944  11.120   6.975   7.349 -0.0892 -0.0542 -0.0395
 1038YOPC   C1B14945  10.714   7.571   6.351  0.0649  0.2397 -0.0644
 1038YOPC   C2B14946  10.620   7.830   6.726 -0.1503 -0.1959  0.3794
 1038YOPC   D3B14947  10.854   7.608   7.115  0.3037 -0.0041  0.2993
 1038YOPC   C4B14948  10.771   7.613   7.574 -0.0587  0.1320 -0.0895
 1039YOPC   NC314949   1.038  15.832   5.255  0.4217  0.1179  0.1792
 1039YOPC   PO414950   0.687  16.051   5.226  0.1166  0.1320  0.0701
 1039YOPC   GL114951   0.602  15.985   5.619 -0.4572 -0.1244  0.0046
 1039YOPC   GL214952   0.961  16.151   5.734 -0.3202  0.0253  0.0139
 1039YOPC   C1A14953   0.536  15.934   6.073  0.2101 -0.4901  0.0152
 1039YOPC   D2A14954   0.515  15.687   6.459 -0.2943  0.3557  0.0729
 1039YOPC   C3A14955   0.463  15.709   6.939  0.3260 -0.2872  0.0549
 1039YOPC   C4A14956   0.879  15.797   7.240 -0.1153 -0.0508  0.0772
 1039YOPC   C1B14957   1.006  16.302   6.050  0.1484  0.1504 -0.0526
 1039YOPC   C2B14958   0.849  16.118   6.383 -0.0028 -0.0462 -0.2513
 1039YOPC   D3B14959   0.876  16.135   6.794  0.2309  0.0319  0.2751
 1039YOPC   C4B14960   1.093  16.305   7.230  0.0255  0.0859  0.0608
 1040YOPC   NC314961  12.457  15.242   4.924  0.0132 -0.0340  0.1730
 1040YOPC   PO414962  12.418  15.003   5.195  0.1285 -0.1459 -0.4765
 1040YOPC   GL114963  12.470  14.934   5.722 -0.1344 -0.0767 -0.0203
 1040YOPC   GL214964  12.433  14.591   5.837  0.4237  0.1023 -0.2106
 1040YOPC   C1A14965  12.322  15.002   6.198 -0.1095  0.1484 -0.0998
 1040YOPC   D2A14966  12.319  14.899   6.636  0.2128  0.1372  0.1054
 1040YOPC   C3A14967  12.072  14.903   6.921 -0.3670 -0.0954  0.1227
 1040YOPC   C4A14968  11.778  14.965   7.288  0.1778  0.0311  0.3354
 1040YOPC   C1B14969  12.197  14.514   6.233 -0.2578  0.0269  0.0395
 1040YOPC   C2B14970  11.948  14.502   6.444  0.1846  0.1998  0.2832
 1040YOPC   D3B14971  11.916  14.436   6.833  0.3970 -0.3744  0.0994
 1040YOPC   C4B14972  11.720  14.439   7.213 -0.1875 -0.3380 -0.1083
 1041YOPC   NC314973  17.878   1.019   5.046  0.0964 -0.0316  0.3531
 1041YOPC   PO414974  17.774   1.061   5.536 -0.0605 -0.0224  0.0331
 1041YOPC   GL114975  17.737   1.177   5.939  0.0374  0.1054  0.1896
 1041YOPC   GL214976  17.622   1.462   6.022 -0.0265 -0.3006  0.0568
 1041YOPC   C1A14977  17.490   1.057   6.321 -0.0069  0.1462  0.0068
 1041YOPC   D2A14978  17.476   1.288   6.689  0.0302 -0.5314 -0.1850
 1041YOPC   C3A14979  17.277   1.103   6.977 -0.1916 -0.3906  0.1753
 1041YOPC   C4A14980  17.218   1.208   7.384  0.0099 -0.2010 -0.2852
 1041YOPC   C1B14981  17.935   1.291   6.323 -0.0960  0.1705  0.2163
 1041YOPC   C2B14982  18.379   1.107   6.282 -0.3391 -0.2029 -0.0715
 1041YOPC   D3B14983  18.492   1.115   6.781 -0.1648 -0.0023 -0.2271
 1041YOPC   C4B14984  18.402   1.006   7.182  0.6330  0.3200 -0.0402
 1042YOPC   NC314985   8.130  18.414   6.214 -0.1072 -0.1150  0.1296
 1042YOPC   PO414986   7.829  18.184   6.231 -0.2112  0.1035 -0.2621
 1042YOPC   GL114987   7.907  18.160   6.591 -0.1360 -0.0173  0.0955
 1042YOPC   GL214988   8.090  17.951   6.642  0.1742 -0.0214 -0.0062
 1042YOPC   C1A14989   7.943  18.366   7.000 -0.1271  0.1302  0.0431
 1042YOPC   D2A14990   8.079  18.185   7.392  0.1013  0.0935  0.0180
 1042YOPC   C3A14991   8.252  18.496   7.713 -0.1819  0.0301 -0.1923
 1042YOPC   C4A14992   8.286  18.824   8.065  0.2033 -0.4372  0.0011
 1042YOPC   C1B14993   7.923  17.483   6.614  0.0081  0.1535 -0.2527
 1042YOPC   C2B14994   7.721  16.923   6.562  0.4256 -0.0613  0.0190
 1042YOPC   D3B14995   8.138  16.651   6.693 -0.2582  0.2704 -0.1962
 1042YOPC   C4B14996   8.488  16.346   6.671  0.1210 -0.2651  0.1668
 1043YOPC   NC314997  15.147   3.947   5.348  0.1240 -0.1413 -0.3117
 1043YOPC   PO414998  15.491   3.869   5.414  0.0391  0.2018  0.2063
 1043YOPC   GL114999  15.665   3.931   5.868 -0.4746  0.0262  0.0069
 1043YOPC   GL215000  15.917   4.135   5.936 -0.1242 -0.1083  0.0584
 1043YOPC   C1A15001  15.726   3.689   6.205 -0.1547 -0.4106  0.0306
 1043YOPC   D2A15002  15.907   3.415   6.554  0.2686 -0.3641 -0.0472
 1043YOPC   C3A15003  16.128   3.650   6.949  0.1182  0.0214  0.0531
 1043YOPC   C4A15004  16.596   3.682   6.856  0.5880  0.1235 -0.1696
 1043YOPC   C1B15005  15.746   4.157   6.400  0.0294 -0.0749 -0.2050
 1043YOPC   C2B15006  15.732   4.373   6.725  0.0444 -0.1145 -0.1500
 1043YOPC   D3B15007  15.819   4.857   6.643 -0.3069 -0.1742  0.0462
 1043YOPC   C4B15008  15.975   5.310   6.681 -0.2331 -0.1012  0.1470
 1044YOPC   NC315009  11.908   8.117   5.850  0.0841 -0.2440 -0.0177
 1044YOPC   PO415010  11.763   8.479   5.747  0.1375  0.1430 -0.1008
 1044YOPC   GL115011  12.053   8.658   6.022  0.3248 -0.0603 -0.2170
 1044YOPC   GL215012  12.063   8.531   6.225  0.1578  0.2356 -0.0056
 1044YOPC   C1A15013  12.347   8.873   6.303  0.1037  0.0284 -0.1484
 1044YOPC   D2A15014  12.507   9.239   6.233  0.1371 -0.1400 -0.0579
 1044YOPC   C3A15015  12.592   9.490   6.597  0.2910  0.0950  0.0080
 1044YOPC   C4A15016  12.690   9.370   7.049  0.1497 -0.1411 -0.0170
 1044YOPC   C1B15017  12.134   8.519   6.600 -0.1205  0.1811 -0.0380
 1044YOPC   C2B15018  12.356   8.670   6.898  0.1557 -0.0430  0.3886
 1044YOPC   D3B15019  12.287   8.523   7.366  0.2331  0.2518  0.1468
 1044YOPC   C4B15020  12.200   8.018   7.407  0.0352  0.0364 -0.1450
 1045YOPC   NC315021   6.103   8.126   5.839  0.3108  0.0405 -0.0511
 1045YOPC   PO415022   5.867   8.357   6.006  0.3341  0.0340  0.0188
 1045YOPC   GL115023   5.569   8.250   6.344 -0.1482 -0.0898 -0.0249
 1045YOPC   GL215024   5.307   8.293   6.178 -0.1476  0.1056  0.2394
 1045YOPC   C1A15025   5.480   8.015   6.808 -0.3333 -0.2711 -0.1541
 1045YOPC   D2A15026   5.193   8.007   7.122  0.1560  0.2169  0.2399
 1045YOPC   C3A15027   5.282   7.722   7.467  0.1636  0.0778 -0.1011
 1045YOPC   C4A15028   5.372   7.699   7.891  0.3023  0.3120  0.0919
 1045YOPC   C1B15029   5.284   8.690   6.348 -0.1745  0.1181 -0.0467
 1045YOPC   C2B15030   5.058   8.985   6.494  0.2525  0.1998  0.0903
 1045YOPC   D3B15031   4.617   9.021   6.694  0.0498  0.0596  0.1525
 1045YOPC   C4B15032   4.315   8.896   6.998 -0.0987 -0.2842 -0.0928
 1046YOPC   NC315033   7.367   5.791   6.190  0.0499  0.1597 -0.2245
 1046YOPC   PO415034   7.046   6.143   6.352 -0.0824 -0.1699  0.0026
 1046YOPC   GL115035   7.254   5.874   6.778 -0.2298  0.2699 -0.1967
 1046YOPC   GL215036   7.196   5.499   6.736 -0.0572 -0.1567  0.2520
 1046YOPC   C1A15037   7.461   5.711   7.082  0.0024  0.0803  0.1957
 1046YOPC   D2A15038   7.375   5.664   7.488 -0.0122  0.3087  0.1126
 1046YOPC   C3A15039   7.580   5.699   7.836 -0.0367  0.1182 -0.0705
 1046YOPC   C4A15040   8.074   5.682   7.984 -0.0681  0.0493  0.1808
 1046YOPC   C1B15041   6.911   5.602   7.043  0.0900  0.1816 -0.0699
 1046YOPC   C2B15042   6.716   5.438   7.478 -0.1149  0.0294 -0.0104
 1046YOPC   D3B15043   6.742   5.184   7.791 -0.0621 -0.0987  0.1620
 1046YOPC   C4B15044   6.670   5.181   8.146 -0.3652  0.1226 -0.0129
 1047YOPC   NC315045  15.872  12.958   5.546 -0.2732 -0.1028 -0.4223
 1047YOPC   PO415046  15.472  12.891   5.780  0.2109  0.0236 -0.0807
 1047YOPC   GL115047  15.458  13.234   5.925 -0.2856 -0.0292 -0.2080
 1047YOPC   GL215048  15.734  13.317   5.888  0.2485  0.0033 -0.0721
 1047YOPC   C1A15049  15.284  13.440   6.321 -0.1592  0.2090 -0.0133
 1047YOPC   D2A15050  15.008  13.644   6.622 -0.0353  0.3004  0.1533
 1047YOPC   C3A15051  14.677  13.687   6.438  0.2081  0.2005  0.0125
 1047YOPC   C4A15052  14.333  13.467   6.401 -0.0313 -0.0187  0.1750
 1047YOPC   C1B15053  15.789  13.198   6.351 -0.0460 -0.3103  0.2549
 1047YOPC   C2B15054  15.927  12.936   6.701 -0.0804 -0.1512  0.2905
 1047YOPC   D3B15055  15.806  12.864   7.142  0.0888  0.0659  0.1205
 1047YOPC   C4B15056  15.575  12.710   7.417 -0.4298 -0.0564  0.1929
 1048YOPC   NC315057  18.122   1.378   5.593 -0.0355 -0.0196  0.1356
 1048YOPC   PO415058  18.359   1.752   5.636 -0.0097  0.0664  0.0928
 1048YOPC   GL115059  18.134   1.723   6.016 -0.0379  0.3907  0.0515
 1048YOPC   GL215060  17.912   1.816   6.269 -0.4625  0.0501 -0.0106
 1048YOPC   C1A15061  18.331   1.642   6.387 -0.2198  0.0562  0.0904
 1048YOPC   D2A15062  18.686   1.605   6.639 -0.0794  0.1724  0.1549
 1048YOPC   C3A15063  18.652   1.681   7.140 -0.4049 -0.0579 -0.1231
 1048YOPC   C4A15064  18.947   1.989   7.295  0.1383  0.1192 -0.0882
 1048YOPC   C1B15065  17.829   1.741   6.762 -0.2123  0.1403 -0.1429
 1048YOPC   C2B15066  17.592   1.517   7.155 -0.2341  0.3622  0.0163
 1048YOPC   D3B15067  17.760   1.269   7.344 -0.3468  0.0102  0.2389
 1048YOPC   C4B15068  17.619   1.007   7.613  0.1924 -0.5672  0.3103
 1049YOPC   NC315069   7.498  14.496   5.063 -0.1646 -0.1191  0.0170
 1049YOPC   PO415070   7.725  14.439   5.356 -0.0418 -0.0600  0.0911
 1049YOPC   GL115071   7.689  14.361   5.727 -0.0108  0.2339 -0.2019
 1049YOPC   GL215072   7.331  14.345   5.969  0.3548  0.0998  0.2563
 1049YOPC   C1A15073   7.918  14.367   6.094 -0.0168  0.1888  0.0426
 1049YOPC   D2A15074   8.038  14.432   6.463  0.0712  0.1148  0.0454
 1049YOPC   C3A15075   8.297  14.286   6.716 -0.1685  0.1133 -0.1691
 1049YOPC   C4A15076   8.667  14.278   6.655  0.1702  0.2007 -0.2593
 1049YOPC   C1B15077   7.422  14.510   6.391 -0.2045 -0.1303 -0.1518
 1049YOPC   C2B15078   7.263  14.537   6.802 -0.1701 -0.0077  0.3139
 1049YOPC   D3B15079   7.579  14.659   7.116 -0.0543  0.2209 -0.1755
 1049YOPC   C4B15080   7.655  14.917   7.429 -0.2002 -0.1068  0.0611
 1050YOPC   NC315081   6.616  10.771   5.257  0.1425 -0.1752  0.0476
 1050YOPC   PO415082   6.295  10.801   5.590 -0.1498 -0.0952 -0.0207
 1050YOPC   GL115083   6.099  11.015   5.884  0.1129 -0.0005  0.2190
 1050YOPC   GL215084   6.449  10.954   6.117 -0.0235 -0.0185  0.1639
 1050YOPC   C1A15085   6.118  11.358   6.130 -0.2070  0.0832  0.2444
 1050YOPC   D2A15086   6.259  11.370   6.582 -0.0948  0.1157 -0.2097
 1050YOPC   C3A15087   6.421  11.757   6.732 -0.3143  0.0375 -0.0133
 1050YOPC   C4A15088   6.537  12.068   6.894 -0.2975  0.0132  0.0479
 1050YOPC   C1B15089   6.440  10.892   6.562 -0.1136 -0.1848  0.1065
 1050YOPC   C2B15090   6.328  10.918   6.898 -0.3129 -0.2415 -0.3102
 1050YOPC   D3B15091   5.998  10.707   6.922  0.0430  0.0778  0.1727
 1050YOPC   C4B15092   5.944  10.569   7.347  0.3184  0.0187 -0.2473
 1051YOPC   NC315093  10.214  11.384   5.474 -0.0183 -0.0221 -0.2311
 1051YOPC   PO415094   9.831  11.322   5.707  0.1986 -0.1041  0.1154
 1051YOPC   GL115095   9.969  11.690   5.866  0.0131 -0.0510 -0.2295
 1051YOPC   GL215096   9.814  11.970   5.793 -0.2710  0.0615  0.1353
 1051YOPC   C1A15097  10.194  12.038   6.101 -0.0810 -0.1793 -0.0316
 1051YOPC   D2A15098  10.124  12.239   6.430  0.4287  0.0710  0.2304
 1051YOPC   C3A15099  10.394  12.097   6.744 -0.0042 -0.2356  0.0945
 1051YOPC   C4A15100  10.528  12.383   7.007  0.1019  0.3057  0.0152
 1051YOPC   C1B15101   9.698  12.002   6.159 -0.6052 -0.2684 -0.0734
 1051YOPC   C2B15102   9.709  12.129   6.713  0.2213  0.0815  0.3061
 1051YOPC   D3B15103   9.547  12.338   7.089  0.1553 -0.0171 -0.2040
 1051YOPC   C4B15104   9.836  12.494   7.442  0.1712  0.1114  0.0124
 1052YOPC   NC315105   9.425   0.199   6.380 -0.1400 -0.1606 -0.2069
 1052YOPC   PO415106   9.448  -0.308   6.442 -0.1691 -0.0086 -0.5546
 1052YOPC   GL115107   9.734  -0.176   6.700  0.0908 -0.0921  0.1289
 1052YOPC   GL215108   9.973   0.081   6.567  0.2196  0.3182  0.0592
 1052YOPC   C1A15109   9.715  -0.005   7.096 -0.1149 -0.1053  0.2282
 1052YOPC   D2A15110   9.710  -0.008   7.585 -0.0005 -0.1902  0.0526
 1052YOPC   C3A15111   9.878   0.323   7.833 -0.1665 -0.1053  0.3384
 1052YOPC   C4A15112  10.180   0.691   7.613  0.1268  0.2180  0.2155
 1052YOPC   C1B15113   9.967   0.372   6.840 -0.0470  0.1810 -0.1406
 1052YOPC   C2B15114  10.106   0.365   7.275  0.2023 -0.2283  0.1589
 1052YOPC   D3B15115  10.523   0.479   7.315  0.0177  0.2223 -0.1775
 1052YOPC   C4B15116  10.849   0.473   7.628 -0.2361 -0.0821  0.1893
 1053YOPC   NC315117   9.170  11.134   5.374  0.1026 -0.1144  0.0782
 1053YOPC   PO415118   9.342  11.089   5.746 -0.1170 -0.3072 -0.2291
 1053YOPC   GL115119   9.622  10.979   6.034 -0.1707  0.1098  0.0615
 1053YOPC   GL215120   9.975  11.009   6.178  0.0424 -0.0281  0.1441
 1053YOPC   C1A15121   9.673  10.644   6.371  0.1833 -0.1111  0.1079
 1053YOPC   D2A15122   9.960  10.641   6.753 -0.2861  0.1761  0.0911
 1053YOPC   C3A15123   9.837  10.864   7.004 -0.0826 -0.0223  0.0499
 1053YOPC   C4A15124   9.531  11.004   7.281  0.1008  0.1126  0.4041
 1053YOPC   C1B15125   9.785  11.115   6.588 -0.1126 -0.1740 -0.1282
 1053YOPC   C2B15126   9.515  11.323   6.864 -0.0942  0.1203  0.2043
 1053YOPC   D3B15127   9.391  11.804   6.991 -0.0241 -0.2627  0.0985
 1053YOPC   C4B15128   9.081  12.084   7.258  0.1473 -0.0304  0.1864
 1054YOPC   NC315129  17.665  14.838   5.185 -0.0933 -0.2112 -0.0667
 1054YOPC   PO415130  17.875  14.861   5.641  0.0118 -0.2370  0.1258
 1054YOPC   GL115131  17.941  15.079   6.036  0.2352  0.1285  0.3707
 1054YOPC   GL215132  18.174  14.899   6.261  0.1823 -0.2711 -0.1536
 1054YOPC   C1A15133  17.633  15.170   6.323 -0.1256  0.2379 -0.0510
 1054YOPC   D2A15134  17.199  15.078   6.412  0.0187  0.0227  0.1048
 1054YOPC   C3A15135  17.159  15.455   6.497  0.1612  0.5411  0.1070
 1054YOPC   C4A15136  17.324  15.315   6.869  0.1014 -0.2442 -0.1091
 1054YOPC   C1B15137  18.165  14.921   6.719 -0.1928  0.0748 -0.2092
 1054YOPC   C2B15138  18.044  15.020   7.141 -0.0930  0.2495  0.0227
 1054YOPC   D3B15139  18.281  14.910   7.517 -0.3473 -0.1079  0.1529
 1054YOPC   C4B15140  18.480  14.907   7.883 -0.2791  0.1228  0.1095
 1055YOPC   NC315141  18.604   1.335   5.294  0.0006  0.2627 -0.3333
 1055YOPC   PO415142  18.297   1.022   5.288 -0.1010  0.1411  0.2766
 1055YOPC   GL115143  18.226   0.874   5.714  0.1441 -0.0346 -0.1838
 1055YOPC   GL215144  18.247   0.566   5.796 -0.2150 -0.2631  0.1514
 1055YOPC   C1A15145  17.923   0.764   6.097 -0.2099 -0.0849  0.0149
 1055YOPC   D2A15146  18.119   0.789   6.545 -0.0631 -0.3543 -0.1179
 1055YOPC   C3A15147  17.894   1.113   6.854 -0.0425 -0.0158  0.0265
 1055YOPC   C4A15148  18.217   1.456   6.975 -0.0949 -0.1047  0.1804
 1055YOPC   C1B15149  18.466   0.615   6.171  0.2608 -0.3459 -0.2708
 1055YOPC   C2B15150  18.544   0.582   6.638  0.0397  0.2616 -0.2936
 1055YOPC   D3B15151  18.906   0.657   6.909  0.0500 -0.1489 -0.3326
 1055YOPC   C4B15152  19.377   0.619   6.969 -0.1665  0.0887 -0.1156
 1056YOPC   NC315153   8.166  11.431   5.686  0.1116  0.1941 -0.1696
 1056YOPC   PO415154   7.732  11.358   5.646 -0.0051  0.2610  0.1224
 1056YOPC   GL115155   7.712  11.383   6.078  0.0147  0.1569  0.0441
 1056YOPC   GL215156   7.925  11.212   6.188 -0.0162 -0.1094 -0.1041
 1056YOPC   C1A15157   7.403  11.805   6.243  0.1627 -0.2066 -0.1598
 1056YOPC   D2A15158   7.409  12.218   6.206  0.0689 -0.2397 -0.0223
 1056YOPC   C3A15159   7.575  12.351   6.642 -0.0357  0.0752  0.0188
 1056YOPC   C4A15160   7.654  12.272   7.040 -0.0275 -0.0576 -0.3463
 1056YOPC   C1B15161   7.694  11.082   6.562 -0.0930 -0.0197 -0.1389
 1056YOPC   C2B15162   7.622  10.749   6.758  0.1805  0.0844  0.1530
 1056YOPC   D3B15163   7.447  10.736   7.017  0.3070  0.0171 -0.4820
 1056YOPC   C4B15164   7.467  10.901   7.390 -0.1881  0.1642 -0.0284
 1057YOPC   NC315165   8.171  10.437   5.715 -0.2784 -0.1378  0.0663
 1057YOPC   PO415166   7.823  10.134   5.776 -0.2186  0.1534 -0.3663
 1057YOPC   GL115167   7.663  10.257   6.178  0.0026  0.0615 -0.0271
 1057YOPC   GL215168   7.410  10.152   6.101  0.0341 -0.3857 -0.1252
 1057YOPC   C1A15169   7.652  10.300   6.614  0.0492  0.1624  0.0960
 1057YOPC   D2A15170   7.815  10.348   6.989  0.0299 -0.0050  0.2003
 1057YOPC   C3A15171   7.868  10.502   7.308  0.1136 -0.0686  0.3229
 1057YOPC   C4A15172   7.673  10.528   7.712 -0.1490 -0.1788 -0.1890
 1057YOPC   C1B15173   7.146  10.325   6.488 -0.2572 -0.1212 -0.0069
 1057YOPC   C2B15174   7.227  10.310   6.929  0.2162 -0.0280  0.0596
 1057YOPC   D3B15175   6.996  10.430   7.329  0.1078 -0.1619  0.1243
 1057YOPC   C4B15176   6.768  10.362   7.716 -0.0823  0.1417  0.0193
 1058YOPC   NC315177   9.455  17.505   5.866 -0.0362 -0.1631  0.2375
 1058YOPC   PO415178   9.031  17.831   5.973 -0.0862 -0.0405 -0.1104
 1058YOPC   GL115179   8.925  17.898   6.435  0.0607 -0.1343  0.0804
 1058YOPC   GL215180   9.153  17.955   6.597 -0.0035 -0.0495 -0.0781
 1058YOPC   C1A15181   8.585  18.175   6.693 -0.2374 -0.2726 -0.4707
 1058YOPC   D2A15182   8.274  18.547   6.713 -0.2442  0.5252 -0.1759
 1058YOPC   C3A15183   8.510  18.982   6.840  0.0593  0.0644  0.0742
 1058YOPC   C4A15184   8.756  19.059   7.316  0.2225  0.1908  0.0569
 1058YOPC   C1B15185   9.416  17.673   6.960 -0.0112 -0.3550 -0.1429
 1058YOPC   C2B15186   9.639  17.725   7.371 -0.1202 -0.1334 -0.1388
 1058YOPC   D3B15187   9.503  17.593   7.650  0.1693 -0.0550  0.1277
 1058YOPC   C4B15188   9.425  17.552   7.974  0.2551  0.3264  0.0944
 1059YOPC   NC315189  11.347   0.178   6.005 -0.3413 -0.0566 -0.2220
 1059YOPC   PO415190  10.899   0.244   6.067 -0.0206  0.0558 -0.0488
 1059YOPC   GL115191  11.151   0.363   6.445 -0.1161  0.5567  0.1340
 1059YOPC   GL215192  11.446   0.331   6.500  0.3567  0.0014  0.0807
 1059YOPC   C1A15193  11.057   0.602   6.736 -0.0743 -0.1530 -0.1136
 1059YOPC   D2A15194  11.038   0.691   7.127  0.1759  0.2217  0.0839
 1059YOPC   C3A15195  11.300   0.581   7.479  0.1199  0.3861 -0.2366
 1059YOPC   C4A15196  11.273   0.535   7.943 -0.1977 -0.5124 -0.4356
 1059YOPC   C1B15197  11.708   0.007   6.934  0.1392  0.1430 -0.1664
 1059YOPC   C2B15198  11.509  -0.208   7.270 -0.0777  0.0611 -0.5043
 1059YOPC   D3B15199  11.592  -0.243   7.696 -0.0237 -0.2274 -0.0988
 1059YOPC   C4B15200  11.521  -0.326   8.093 -0.1500  0.0409 -0.2700
 1060YOPC   NC315201  18.575   3.074   4.990 -0.2105  0.1611 -0.0824
 1060YOPC   PO415202  18.317   3.230   5.334 -0.2195  0.4489  0.2355
 1060YOPC   GL115203  18.190   3.327   5.757 -0.0205 -0.1151  0.0258
 1060YOPC   GL215204  17.868   3.560   5.837  0.0624 -0.0605  0.1963
 1060YOPC   C1A15205  18.115   3.226   6.232  0.2957  0.1779  0.3670
 1060YOPC   D2A15206  18.083   3.274   6.655  0.1359  0.1569 -0.1108
 1060YOPC   C3A15207  17.905   3.308   7.009  0.1661  0.0905  0.1457
 1060YOPC   C4A15208  18.089   3.103   7.415 -0.0898  0.2634  0.1078
 1060YOPC   C1B15209  17.933   3.666   6.275 -0.0493 -0.2235 -0.1474
 1060YOPC   C2B15210  17.708   3.641   6.614  0.3368  0.2011 -0.1136
 1060YOPC   D3B15211  17.769   3.756   7.058 -0.3734 -0.2140  0.0525
 1060YOPC   C4B15212  18.049   3.684   7.363 -0.0256  0.1224  0.0566
 1061YOPC   NC315213  10.317  17.834   6.020  0.2565 -0.1089 -0.2698
 1061YOPC   PO415214  10.584  17.485   5.880  0.0538  0.1919 -0.0252
 1061YOPC   GL115215  10.850  17.220   6.169 -0.0926  0.0495 -0.0568
 1061YOPC   GL215216  11.040  17.163   5.998  0.1020 -0.0881  0.1738
 1061YOPC   C1A15217  10.998  17.086   6.500  0.3000 -0.0305 -0.3287
 1061YOPC   D2A15218  10.762  16.903   6.759  0.3782  0.3383 -0.0583
 1061YOPC   C3A15219  10.842  16.858   7.209 -0.0475 -0.1484  0.0113
 1061YOPC   C4A15220  10.904  16.741   7.679 -0.2342  0.0996 -0.0308
 1061YOPC   C1B15221  11.338  16.921   6.186  0.1111  0.1387  0.2004
 1061YOPC   C2B15222  11.485  17.044   6.532  0.1845 -0.1740 -0.0449
 1061YOPC   D3B15223  11.243  17.095   6.941  0.3239 -0.1113 -0.4149
 1061YOPC   C4B15224  11.338  16.881   7.305  0.2587  0.3149  0.0243
 1062YOPC   NC315225  10.399  15.369   5.633 -0.2669 -0.2154 -0.1018
 1062YOPC   PO415226  10.613  15.735   5.623  0.4360  0.0384 -0.1667
 1062YOPC   GL115227  10.561  15.937   6.086  0.0106 -0.1114 -0.0954
 1062YOPC   GL215228  10.794  15.739   6.347 -0.1113 -0.0630 -0.0136
 1062YOPC   C1A15229  10.263  16.306   6.319 -0.0830  0.4406  0.1209
 1062YOPC   D2A15230  10.372  16.701   6.554 -0.1048  0.0919 -0.2252
 1062YOPC   C3A15231  10.126  16.640   6.921  0.0315  0.0288 -0.1394
 1062YOPC   C4A15232  10.003  16.634   7.311 -0.1113 -0.2007  0.3864
 1062YOPC   C1B15233  10.819  15.853   6.744 -0.2154 -0.0318  0.0649
 1062YOPC   C2B15234  11.133  15.947   7.057  0.2888 -0.2113  0.0050
 1062YOPC   D3B15235  10.963  15.766   7.301  0.2205  0.2130  0.1453
 1062YOPC   C4B15236  10.898  15.309   7.320 -0.2149  0.0945 -0.3878
 1063YOPC   NC315237   0.204   0.488   4.945  0.3616 -0.1479  0.1434
 1063YOPC   PO415238   0.138   0.507   5.425 -0.0588  0.2798 -0.3187
 1063YOPC   GL115239   0.275   0.696   5.840 -0.2623  0.0097  0.0427
 1063YOPC   GL215240   0.551   0.819   5.880  0.0604 -0.2739  0.0724
 1063YOPC   C1A15241   0.184   1.059   6.065  0.0345 -0.2369 -0.1781
 1063YOPC   D2A15242   0.098   1.501   6.188 -0.1626 -0.1062  0.0345
 1063YOPC   C3A15243   0.290   1.673   6.502  0.0386 -0.0740  0.2160
 1063YOPC   C4A15244   0.164   1.996   6.762 -0.0145 -0.0235 -0.1052
 1063YOPC   C1B15245   0.672   0.734   6.277  0.0111  0.0952  0.0420
 1063YOPC   C2B15246   0.918   0.594   6.562  0.1007  0.0099  0.1768
 1063YOPC   D3B15247   1.015   0.833   6.888 -0.1013 -0.4125  0.2265
 1063YOPC   C4B15248   0.996   0.891   7.338 -0.3935  0.2461 -0.0870
 1064YOPC   NC315249   3.395   9.082   5.774  0.1846 -0.0459  0.2356
 1064YOPC   PO415250   3.449   9.454   5.948  0.0628 -0.3522 -0.2219
 1064YOPC   GL115251   3.330   9.504   6.375 -0.2677 -0.4121 -0.1641
 1064YOPC   GL215252   3.413   9.868   6.362  0.0793  0.4717  0.0878
 1064YOPC   C1A15253   3.388   9.504   6.846  0.2399 -0.0272  0.0600
 1064YOPC   D2A15254   3.480   9.667   7.286 -0.0622  0.2259 -0.1308
 1064YOPC   C3A15255   3.722  10.015   7.321  0.1026 -0.3662  0.1724
 1064YOPC   C4A15256   4.114  10.217   7.502  0.1558  0.0028 -0.1932
 1064YOPC   C1B15257   3.444  10.103   6.835  0.0016  0.2702 -0.0216
 1064YOPC   C2B15258   3.327  10.428   7.155  0.0742  0.0019  0.0096
 1064YOPC   D3B15259   2.895  10.524   7.101  0.1548 -0.0862 -0.2450
 1064YOPC   C4B15260   2.635  10.634   6.861 -0.1322  0.0045 -0.3542
 1065YOPC   NC315261   1.690   5.897   5.452 -0.1695  0.2411 -0.0289
 1065YOPC   PO415262   1.682   6.300   5.421 -0.2314 -0.0017  0.0441
 1065YOPC   GL115263   1.455   6.420   5.783 -0.1565 -0.0245 -0.0169
 1065YOPC   GL215264   1.317   6.196   5.858  0.2613  0.0720  0.2139
 1065YOPC   C1A15265   1.309   6.678   6.165  0.2313  0.0443  0.0362
 1065YOPC   D2A15266   1.041   6.792   6.446  0.0140 -0.1165 -0.4247
 1065YOPC   C3A15267   0.846   6.570   6.783  0.0282 -0.1677 -0.0274
 1065YOPC   C4A15268   0.768   6.600   7.164  0.1337  0.1506  0.0519
 1065YOPC   C1B15269   1.382   5.964   6.069  0.4214  0.3608  0.0898
 1065YOPC   C2B15270   1.248   5.602   6.424 -0.0982  0.3452 -0.0515
 1065YOPC   D3B15271   1.481   5.509   6.847 -0.0240 -0.0447  0.2843
 1065YOPC   C4B15272   1.777   5.669   7.260  0.0074 -0.2914  0.2242
 1066YOPC   NC315273  18.244  16.461   4.947  0.0427  0.0585 -0.2168
 1066YOPC   PO415274  17.896  16.556   5.157  0.1376 -0.2010 -0.1125
 1066YOPC   GL115275  17.983  16.608   5.630 -0.0782  0.0239 -0.1731
 1066YOPC   GL215276  17.835  16.475   5.830  0.3857  0.0259  0.3585
 1066YOPC   C1A15277  17.895  16.945   6.109  0.0870 -0.0216  0.0717
 1066YOPC   D2A15278  17.720  16.915   6.555  0.0175  0.0067  0.2548
 1066YOPC   C3A15279  17.311  16.854   6.661 -0.2476  0.0620  0.2829
 1066YOPC   C4A15280  16.902  16.995   6.758 -0.1096 -0.0658 -0.0423
 1066YOPC   C1B15281  17.956  16.441   6.131 -0.0058  0.4400  0.2458
 1066YOPC   C2B15282  17.986  16.053   6.374  0.1112  0.1601 -0.0378
 1066YOPC   D3B15283  18.058  15.884   6.642 -0.1303 -0.0005  0.3020
 1066YOPC   C4B15284  17.957  16.135   6.982  0.0431  0.0770 -0.0112
 1067YOPC   NC315285   5.985   8.823   5.805 -0.0193  0.0025 -0.1797
 1067YOPC   PO415286   6.450   8.946   5.846  0.2035 -0.1768 -0.2687
 1067YOPC   GL115287   6.154   9.075   6.149  0.0273 -0.1691  0.1302
 1067YOPC   GL215288   6.073   8.732   6.321  0.0413  0.0247 -0.1557
 1067YOPC   C1A15289   5.900   9.233   6.517 -0.0382 -0.1304 -0.0981
 1067YOPC   D2A15290   5.896   9.247   6.976 -0.2241 -0.3509 -0.4357
 1067YOPC   C3A15291   5.582   9.367   7.296 -0.1605 -0.3546 -0.1510
 1067YOPC   C4A15292   5.168   9.379   7.356  0.0084  0.0773 -0.0176
 1067YOPC   C1B15293   5.669   8.596   6.648 -0.3129  0.0214  0.0439
 1067YOPC   C2B15294   5.451   8.540   7.082 -0.1422 -0.0623  0.1377
 1067YOPC   D3B15295   5.410   8.826   7.382 -0.0838 -0.0824 -0.2959
 1067YOPC   C4B15296   5.452   9.014   7.802 -0.2847 -0.1683  0.3274
 1068YOPC   NC315297   8.718  17.222   5.859 -0.1146  0.0329  0.2314
 1068YOPC   PO415298   9.063  17.106   5.712  0.0008  0.0546 -0.0154
 1068YOPC   GL115299   9.111  16.664   5.783 -0.0126 -0.0440 -0.0269
 1068YOPC   GL215300   8.866  16.693   6.007  0.3185  0.1614  0.3047
 1068YOPC   C1A15301   9.266  16.386   6.168  0.3615  0.1368  0.0642
 1068YOPC   D2A15302   9.495  16.372   6.543 -0.0128  0.1781  0.5047
 1068YOPC   C3A15303   9.516  16.432   7.099 -0.0264  0.1534 -0.0053
 1068YOPC   C4A15304   9.256  16.575   7.337  0.0834  0.0717  0.0210
 1068YOPC   C1B15305   8.635  16.800   6.378  0.4241 -0.0555  0.0502
 1068YOPC   C2B15306   8.371  17.115   6.716  0.3682  0.3541 -0.1465
 1068YOPC   D3B15307   8.432  17.535   6.764  0.1790  0.0414 -0.4207
 1068YOPC   C4B15308   8.793  17.761   6.884 -0.1675 -0.0081  0.1476
 1069YOPC   NC315309   5.100   2.697   5.925 -0.0096  0.2902 -0.0365
 1069YOPC   PO415310   5.106   3.127   5.713  0.1557 -0.1413  0.4886
 1069YOPC   GL115311   4.835   3.200   6.015  0.0280  0.1104 -0.0802
 1069YOPC   GL215312   4.489   3.079   5.992 -0.2285 -0.0155 -0.3177
 1069YOPC   C1A15313   4.811   2.975   6.407 -0.0198 -0.0766  0.1130
 1069YOPC   D2A15314   4.718   2.889   6.849  0.1363  0.1189 -0.0297
 1069YOPC   C3A15315   4.632   2.385   6.895  0.0192  0.0559  0.0163
 1069YOPC   C4A15316   4.805   1.912   6.844 -0.1686  0.0006 -0.1651
 1069YOPC   C1B15317   4.424   3.358   6.350  0.0098 -0.2698 -0.0083
 1069YOPC   C2B15318   4.295   3.179   6.786 -0.3106 -0.0927 -0.0024
 1069YOPC   D3B15319   3.843   3.180   6.715 -0.5214  0.0910  0.0813
 1069YOPC   C4B15320   3.533   3.128   6.949  0.1965  0.0994 -0.2111
 1070YOPC   NC315321   3.073   8.595   5.236 -0.3031  0.3362 -0.1599
 1070YOPC   PO415322   3.097   8.704   5.660  0.3953  0.1185 -0.1559
 1070YOPC   GL115323   3.437   8.496   5.965  0.1099 -0.1435 -0.3970
 1070YOPC   GL215324   3.621   8.729   6.133 -0.1218 -0.1413 -0.0712
 1070YOPC   C1A15325   3.435   8.365   6.446 -0.0027 -0.0023 -0.2008
 1070YOPC   D2A15326   3.365   8.504   6.799 -0.1161 -0.0628  0.0890
 1070YOPC   C3A15327   3.012   8.813   6.856 -0.1674  0.2242 -0.0270
 1070YOPC   C4A15328   2.852   8.805   7.233 -0.0796  0.1054 -0.1431
 1070YOPC   C1B15329   3.443   8.934   6.464  0.1360 -0.0913 -0.4819
 1070YOPC   C2B15330   3.455   9.005   6.858 -0.0335 -0.1103  0.0088
 1070YOPC   D3B15331   3.795   8.802   7.143 -0.1555  0.2383 -0.2660
 1070YOPC   C4B15332   3.879   8.609   7.434 -0.0578 -0.0653  0.0520
 1071YOPC   NC315333  13.657   9.307   5.679  0.6644 -0.1436  0.0206
 1071YOPC   PO415334  13.523   9.690   5.902  0.1907 -0.0108 -0.0211
 1071YOPC   GL115335  13.051   9.874   6.006 -0.1747 -0.1480  0.0436
 1071YOPC   GL215336  12.780   9.627   6.019 -0.2203 -0.0960  0.0541
 1071YOPC   C1A15337  12.862   9.856   6.405  0.0995  0.1628 -0.0434
 1071YOPC   D2A15338  12.962  10.001   6.818  0.1756  0.1457  0.2555
 1071YOPC   C3A15339  12.698   9.867   7.142 -0.0463  0.0098  0.0808
 1071YOPC   C4A15340  12.338  10.012   7.337  0.1492 -0.0067 -0.2125
 1071YOPC   C1B15341  12.971   9.300   6.324 -0.0121  0.1043 -0.0296
 1071YOPC   C2B15342  13.291   9.158   6.488 -0.1987  0.1530  0.0090
 1071YOPC   D3B15343  13.293   9.070   6.889 -0.1571 -0.0574 -0.2557
 1071YOPC   C4B15344  13.465   8.719   7.199  0.2419 -0.1043 -0.1382
 1072YOPC   NC315345   4.679  15.734   5.631 -0.0218  0.3491  0.2016
 1072YOPC   PO415346   4.099  15.663   5.714  0.0578 -0.1550 -0.0398
 1072YOPC   GL115347   4.337  15.458   6.093  0.1306 -0.2339 -0.1397
 1072YOPC   GL215348   4.402  15.085   5.946 -0.2538  0.0806 -0.0399
 1072YOPC   C1A15349   4.344  15.267   6.426  0.2606  0.0306  0.1718
 1072YOPC   D2A15350   4.059  15.185   6.795 -0.1537 -0.1868 -0.1325
 1072YOPC   C3A15351   3.644  15.186   6.731 -0.2543 -0.2543 -0.0973
 1072YOPC   C4A15352   3.362  15.292   6.511  0.1035 -0.2301 -0.2566
 1072YOPC   C1B15353   4.563  14.858   6.254 -0.1664 -0.3584 -0.0233
 1072YOPC   C2B15354   4.474  14.827   6.667  0.0830  0.0247 -0.2515
 1072YOPC   D3B15355   4.524  15.174   6.914 -0.3606 -0.0499  0.1218
 1072YOPC   C4B15356   4.573  15.447   7.283  0.2550 -0.2435  0.0875
 1073YOPC   NC315357   1.379   1.560   5.071 -0.0484  0.2814  0.3039
 1073YOPC   PO415358   0.990   1.517   5.261  0.0226  0.0744  0.1239
 1073YOPC   GL115359   1.172   1.555   5.707  0.2682  0.0520  0.0656
 1073YOPC   GL215360   1.346   1.321   5.921  0.1398  0.0613  0.0628
 1073YOPC   C1A15361   1.240   1.789   5.986  0.0506  0.0479 -0.2690
 1073YOPC   D2A15362   1.178   2.119   6.357 -0.1584  0.2381  0.2134
 1073YOPC   C3A15363   0.905   2.436   6.169 -0.1232 -0.2912  0.2182
 1073YOPC   C4A15364   0.730   2.684   6.431  0.2682  0.1402  0.0657
 1073YOPC   C1B15365   1.343   1.280   6.320 -0.1661 -0.2361  0.3103
 1073YOPC   C2B15366   1.497   1.285   6.648  0.0274  0.2210  0.1048
 1073YOPC   D3B15367   1.863   0.969   6.706 -0.5200  0.1480  0.2385
 1073YOPC   C4B15368   2.061   0.805   7.022 -0.1404 -0.3016  0.0102
 1074YOPC   NC315369  11.686   0.036   5.522  0.3368 -0.0028  0.1090
 1074YOPC   PO415370  11.510  -0.257   5.812  0.0378  0.5701 -0.0680
 1074YOPC   GL115371  11.472  -0.364   6.233 -0.4235  0.1179  0.0314
 1074YOPC   GL215372  11.302  -0.127   6.437 -0.1487  0.1323 -0.2397
 1074YOPC   C1A15373  11.549  -0.402   6.749 -0.1751  0.1388 -0.0406
 1074YOPC   D2A15374  11.419  -0.813   6.879  0.0321  0.0786 -0.1950
 1074YOPC   C3A15375  11.138  -0.865   7.262 -0.0635  0.4424 -0.2485
 1074YOPC   C4A15376  11.002  -1.054   7.722 -0.0596  0.0897  0.1683
 1074YOPC   C1B15377  11.233   0.055   6.833  0.1480  0.4166 -0.4357
 1074YOPC   C2B15378  11.481   0.410   7.081  0.2208  0.0318 -0.0714
 1074YOPC   D3B15379  11.732   0.241   7.484  0.0196 -0.2238 -0.1917
 1074YOPC   C4B15380  12.003   0.156   7.809 -0.1556  0.2611  0.0250
 1075YOPC   NC315381  14.443   4.994   5.481  0.0211  0.0560 -0.3838
 1075YOPC   PO415382  14.745   4.582   5.514  0.1748 -0.3456 -0.1666
 1075YOPC   GL115383  14.823   4.223   5.840 -0.1053 -0.0416  0.1720
 1075YOPC   GL215384  15.140   3.973   5.841 -0.0480  0.3191 -0.2678
 1075YOPC   C1A15385  14.760   3.996   6.189  0.1520  0.0295  0.0441
 1075YOPC   D2A15386  14.786   3.796   6.541 -0.1373  0.1322 -0.1210
 1075YOPC   C3A15387  14.969   3.741   6.955 -0.2488 -0.3163  0.2749
 1075YOPC   C4A15388  14.790   3.437   7.265  0.0388  0.1184  0.0663
 1075YOPC   C1B15389  15.235   3.860   6.235 -0.0569 -0.1602  0.0130
 1075YOPC   C2B15390  15.429   3.769   6.535 -0.2488 -0.2723 -0.1297
 1075YOPC   D3B15391  15.707   3.896   6.819 -0.0714 -0.1765  0.0377
 1075YOPC   C4B15392  15.811   4.050   7.237  0.1557 -0.0531 -0.0641
 1076YOPC   NC315393   8.650   1.348   6.284 -0.0045  0.4105  0.2886
 1076YOPC   PO415394   8.203   1.411   6.189 -0.1336 -0.0324  0.1619
 1076YOPC   GL115395   8.187   1.792   6.558 -0.3397 -0.2310 -0.1638
 1076YOPC   GL215396   8.211   2.137   6.399 -0.0919  0.2804  0.1221
 1076YOPC   C1A15397   7.976   1.827   6.996 -0.0296  0.2702  0.0504
 1076YOPC   D2A15398   7.647   1.628   7.260  0.3571  0.0636  0.1509
 1076YOPC   C3A15399   7.802   1.249   7.544  0.0833 -0.2331  0.3009
 1076YOPC   C4A15400   8.223   1.100   7.775  0.0363 -0.0231 -0.4091
 1076YOPC   C1B15401   8.207   2.246   6.843  0.0787 -0.0284  0.0547
 1076YOPC   C2B15402   8.019   2.288   7.355 -0.1222  0.0234 -0.0699
 1076YOPC   D3B15403   7.959   1.863   7.608 -0.1104 -0.0068  0.0344
 1076YOPC   C4B15404   7.966   1.595   7.864 -0.1458  0.0336 -0.0798
 1077YOPC   NC315405  17.671  17.772   5.369  0.1575 -0.0015  0.2713
 1077YOPC   PO415406  17.465  17.409   5.448  0.1048  0.0072  0.0764
 1077YOPC   GL115407  17.575  17.538   5.902  0.1074  0.0161  0.3428
 1077YOPC   GL215408  17.971  17.497   5.878  0.1050  0.0510  0.2875
 1077YOPC   C1A15409  17.458  17.734   6.260  0.0413  0.0498 -0.3534
 1077YOPC   D2A15410  17.399  17.672   6.720 -0.2015  0.3543  0.0729
 1077YOPC   C3A15411  16.932  17.519   6.827  0.3325 -0.1086  0.0245
 1077YOPC   C4A15412  16.562  17.605   6.801 -0.0956  0.0598  0.0679
 1077YOPC   C1B15413  17.989  17.779   6.160 -0.0773 -0.0919  0.4414
 1077YOPC   C2B15414  17.963  17.703   6.696  0.4702 -0.1135  0.1181
 1077YOPC   D3B15415  18.256  17.429   6.940 -0.3531  0.0075 -0.2159
 1077YOPC   C4B15416  18.576  17.327   6.657  0.0062 -0.0551 -0.0278
 1078YOPC   NC315417  11.718  17.334   5.441  0.1237  0.1569 -0.1216
 1078YOPC   PO415418  11.473  17.729   5.517 -0.2138 -0.4037 -0.0052
 1078YOPC   GL115419  11.329  17.571   5.981  0.1480  0.0782  0.3148
 1078YOPC   GL215420  11.168  17.783   6.086  0.2044  0.2057  0.0435
 1078YOPC   C1A15421  11.126  17.579   6.505  0.2893  0.1580  0.1281
 1078YOPC   D2A15422  10.935  17.848   6.740  0.0409 -0.0943  0.0705
 1078YOPC   C3A15423  10.409  17.717   6.872 -0.3208 -0.4839  0.1614
 1078YOPC   C4A15424  10.186  17.720   7.260  0.1385  0.0178 -0.1672
 1078YOPC   C1B15425  11.510  17.917   6.345  0.0099  0.1013  0.0075
 1078YOPC   C2B15426  11.905  18.079   6.598  0.0613 -0.1896  0.0847
 1078YOPC   D3B15427  12.204  17.850   6.752  0.0273  0.0602 -0.0626
 1078YOPC   C4B15428  12.257  17.541   7.031 -0.1407 -0.2362  0.2566
 1079YOPC   NC315429   5.065  18.409   4.949 -0.1628  0.2461 -0.0074
 1079YOPC   PO415430   5.273  18.362   5.424 -0.1607  0.2991  0.2405
 1079YOPC   GL115431   5.014  18.582   5.841 -0.1657  0.1368 -0.1333
 1079YOPC   GL215432   4.823  18.825   5.828  0.3927  0.1136 -0.1955
 1079YOPC   C1A15433   4.786  18.434   6.230 -0.2428 -0.1202 -0.1280
 1079YOPC   D2A15434   4.656  18.367   6.682  0.1886  0.1663 -0.0711
 1079YOPC   C3A15435   4.784  18.017   6.975  0.1894 -0.2070  0.1222
 1079YOPC   C4A15436   4.607  17.853   7.446 -0.2455 -0.1400  0.0219
 1079YOPC   C1B15437   5.066  18.965   6.144  0.0290  0.2968 -0.1845
 1079YOPC   C2B15438   5.439  18.872   6.307  0.0387  0.1039  0.1024
 1079YOPC   D3B15439   5.855  18.706   6.306 -0.2122  0.1174 -0.1156
 1079YOPC   C4B15440   6.081  18.774   6.632 -0.0165  0.2592  0.0127
 1080YOPC   NC315441   6.036  16.441   5.680 -0.0216 -0.0526  0.2324
 1080YOPC   PO415442   5.662  16.525   5.597  0.1611 -0.2107 -0.1793
 1080YOPC   GL115443   5.410  16.460   5.966  0.0430  0.2517 -0.1153
 1080YOPC   GL215444   5.698  16.488   6.136 -0.3192 -0.0642  0.1840
 1080YOPC   C1A15445   5.117  16.406   6.242  0.0495  0.0610  0.1646
 1080YOPC   D2A15446   4.985  16.431   6.651 -0.2355 -0.0106 -0.3126
 1080YOPC   C3A15447   4.715  16.158   6.717  0.1879  0.1284 -0.0523
 1080YOPC   C4A15448   4.441  15.837   6.488 -0.2426  0.1856  0.0818
 1080YOPC   C1B15449   5.926  16.267   6.548  0.1697 -0.0984 -0.0142
 1080YOPC   C2B15450   6.295  16.368   6.682  0.1955 -0.1584  0.0328
 1080YOPC   D3B15451   6.546  16.655   6.814 -0.1310 -0.0317  0.0821
 1080YOPC   C4B15452   6.801  16.960   6.708  0.1312  0.2897 -0.0116
 1081YOPC   NC315453   9.130  12.555   5.415  0.0357  0.0324 -0.4975
 1081YOPC   PO415454   9.153  12.953   5.387 -0.1315 -0.0978 -0.0507
 1081YOPC   GL115455   9.157  13.351   5.594  0.2680 -0.0968  0.1915
 1081YOPC   GL215456   9.177  13.679   5.420  0.2763  0.1349 -0.2863
 1081YOPC   C1A15457   9.251  13.421   6.003 -0.3056  0.0496 -0.0132
 1081YOPC   D2A15458   9.276  13.653   6.344 -0.0368  0.0852 -0.1815
 1081YOPC   C3A15459   9.191  13.535   6.779  0.0048  0.1175 -0.0634
 1081YOPC   C4A15460   9.052  13.501   7.234 -0.0343 -0.0015 -0.0778
 1081YOPC   C1B15461   9.328  13.823   5.833  0.1030 -0.4821  0.0837
 1081YOPC   C2B15462   9.353  14.202   5.981 -0.1260  0.0013 -0.2477
 1081YOPC   D3B15463   9.189  14.264   6.412  0.0089 -0.2958 -0.2288
 1081YOPC   C4B15464   9.119  14.451   6.845  0.0622 -0.2143 -0.1423
 1082YOPC   NC315465  18.662  16.105   5.332 -0.2760 -0.5364  0.0127
 1082YOPC   PO415466  18.299  15.726   5.339  0.0575  0.3813 -0.1135
 1082YOPC   GL115467  18.358  15.731   5.733  0.1457  0.0280  0.3304
 1082YOPC   GL215468  18.354  15.493   6.012 -0.0150 -0.0468  0.0834
 1082YOPC   C1A15469  18.389  15.999   6.089  0.2922  0.0095  0.2043
 1082YOPC   D2A15470  18.502  16.232   6.474 -0.0898 -0.0764 -0.2275
 1082YOPC   C3A15471  18.464  16.118   6.929 -0.0790 -0.3593  0.0569
 1082YOPC   C4A15472  18.394  15.990   7.262 -0.1281  0.1823  0.0939
 1082YOPC   C1B15473  18.097  15.368   6.452  0.1328  0.0927 -0.1009
 1082YOPC   C2B15474  17.797  15.279   6.804 -0.0699  0.0995 -0.1972
 1082YOPC   D3B15475  17.779  15.451   7.207 -0.0003  0.0685  0.2364
 1082YOPC   C4B15476  17.772  15.284   7.592 -0.0505  0.2548  0.3151
 1083YOPC   NC315477  14.515   8.396   5.201 -0.0282  0.2060  0.0459
 1083YOPC   PO415478  14.757   8.750   5.443 -0.0233 -0.2115  0.0100
 1083YOPC   GL115479  14.726   8.521   5.824  0.0407 -0.4143 -0.0183
 1083YOPC   GL215480  14.901   8.327   5.881  0.0641  0.1181  0.1704
 1083YOPC   C1A15481  14.562   8.544   6.209  0.3525  0.1606 -0.1088
 1083YOPC   D2A15482  14.482   8.901   6.373 -0.1915  0.1106  0.0748
 1083YOPC   C3A15483  14.164   9.033   6.694  0.1002  0.2120  0.0544
 1083YOPC   C4A15484  13.965   8.928   7.074  0.2258  0.1808  0.2271
 1083YOPC   C1B15485  15.338   8.311   6.186  0.0172  0.1114  0.0830
 1083YOPC   C2B15486  15.394   8.256   6.733 -0.0274  0.1105  0.2609
 1083YOPC   D3B15487  15.317   8.539   7.069 -0.3451 -0.2852 -0.0992
 1083YOPC   C4B15488  15.428   8.910   7.383  0.0464 -0.0407  0.0607
 1084YOPC   NC315489   7.706   7.623   6.310 -0.0056 -0.1012  0.1682
 1084YOPC   PO415490   8.127   7.545   6.222  0.1933  0.0081  0.0867
 1084YOPC   GL115491   7.996   7.806   6.676 -0.1755 -0.2739  0.1215
 1084YOPC   GL215492   8.127   8.078   6.528 -0.1318  0.1025 -0.1592
 1084YOPC   C1A15493   7.693   7.898   6.913  0.0663  0.2660  0.2655
 1084YOPC   D2A15494   7.533   7.525   7.243  0.0352 -0.0744 -0.1356
 1084YOPC   C3A15495   7.181   7.174   7.182  0.0222 -0.0523 -0.1846
 1084YOPC   C4A15496   7.046   6.940   6.968 -0.2554  0.2935  0.1984
 1084YOPC   C1B15497   8.108   8.182   6.998 -0.3701  0.0194 -0.2335
 1084YOPC   C2B15498   7.988   8.029   7.345  0.1661 -0.3484 -0.0648
 1084YOPC   D3B15499   7.818   8.248   7.744 -0.1425  0.0818  0.1769
 1084YOPC   C4B15500   7.867   8.661   7.893  0.0957  0.0846 -0.0108
 1085YOPC   NC315501  14.496  12.980   5.047  0.1896 -0.0061  0.1304
 1085YOPC   PO415502  14.371  12.521   5.163 -0.2305  0.3038 -0.2769
 1085YOPC   GL115503  14.072  12.545   5.423 -0.2193  0.0017 -0.0241
 1085YOPC   GL215504  14.054  12.826   5.660 -0.0236  0.0904  0.1129
 1085YOPC   C1A15505  14.042  12.238   5.800 -0.0324 -0.2771 -0.1971
 1085YOPC   D2A15506  14.021  11.957   6.185 -0.0012  0.0245 -0.0627
 1085YOPC   C3A15507  14.137  12.116   6.666 -0.0252 -0.0966 -0.0064
 1085YOPC   C4A15508  14.415  12.458   6.765  0.1949  0.1158  0.0301
 1085YOPC   C1B15509  14.036  13.039   5.883  0.2253 -0.5047 -0.3540
 1085YOPC   C2B15510  14.327  13.024   6.218  0.0663 -0.0234  0.1003
 1085YOPC   D3B15511  14.275  13.037   6.677 -0.0956 -0.1837  0.2151
 1085YOPC   C4B15512  14.134  12.841   6.917 -0.0898  0.0750  0.0603
 1086YOPC   NC315513   0.529   1.801   5.537 -0.3472  0.0333 -0.0340
 1086YOPC   PO415514   0.523   1.350   5.420  0.0381 -0.1885  0.0575
 1086YOPC   GL115515   0.633   1.376   5.908 -0.0277 -0.2003 -0.3127
 1086YOPC   GL215516   0.507   1.755   6.028  0.1115  0.2706 -0.0219
 1086YOPC   C1A15517   0.715   1.192   6.316 -0.5159  0.0533 -0.0406
 1086YOPC   D2A15518   0.757   1.362   6.668 -0.0829  0.1414  0.1729
 1086YOPC   C3A15519   0.612   1.158   7.081  0.0476  0.3702 -0.1759
 1086YOPC   C4A15520   0.342   0.827   7.383 -0.0916  0.2530  0.0449
 1086YOPC   C1B15521   0.806   1.689   6.289  0.0697 -0.1781  0.1858
 1086YOPC   C2B15522   1.146   1.708   6.568 -0.3708  0.2311 -0.0803
 1086YOPC   D3B15523   1.467   1.709   6.496  0.3268  0.0588 -0.0985
 1086YOPC   C4B15524   1.837   1.603   6.239  0.1276 -0.0888  0.4507
 1087YOPC   NC315525  10.475  16.171   5.666 -0.0784 -0.0526 -0.0196
 1087YOPC   PO415526  10.889  16.304   5.704 -0.2115  0.0874 -0.0238
 1087YOPC   GL115527  10.991  16.555   6.023 -0.0742  0.0076 -0.1068
 1087YOPC   GL215528  10.810  16.701   6.103 -0.2430 -0.1494 -0.1324
 1087YOPC   C1A15529  11.137  16.585   6.489 -0.0428 -0.0307 -0.0324
 1087YOPC   D2A15530  11.221  16.636   6.824 -0.0427 -0.4096 -0.1083
 1087YOPC   C3A15531  10.912  16.393   7.071 -0.0143 -0.0169 -0.4890
 1087YOPC   C4A15532  10.833  16.184   7.414  0.3071 -0.2668 -0.0854
 1087YOPC   C1B15533  10.711  16.306   6.489 -0.0668 -0.0202 -0.1149
 1087YOPC   C2B15534  10.409  16.261   6.869 -0.2333  0.0535 -0.2482
 1087YOPC   D3B15535  10.467  16.140   7.090 -0.2066 -0.0206  0.1343
 1087YOPC   C4B15536  10.429  15.853   7.420  0.1732  0.0061 -0.1503
 1088YOPC   NC315537   3.922   2.782   5.203  0.1323  0.0414  0.2054
 1088YOPC   PO415538   3.682   2.741   5.485  0.2751  0.0737 -0.2241
 1088YOPC   GL115539   3.599   2.438   5.803 -0.2086 -0.1428 -0.0858
 1088YOPC   GL215540   3.808   2.251   5.891 -0.2109  0.3184  0.0807
 1088YOPC   C1A15541   3.305   2.268   6.052  0.3820  0.1871  0.0744
 1088YOPC   D2A15542   3.133   2.469   6.448  0.0904  0.3131  0.1811
 1088YOPC   C3A15543   3.156   2.302   6.833 -0.1871  0.0233  0.2689
 1088YOPC   C4A15544   2.966   1.921   6.950  0.2408 -0.0320  0.0388
 1088YOPC   C1B15545   4.091   2.545   6.148  0.0943  0.1025  0.2722
 1088YOPC   C2B15546   4.118   2.874   6.316 -0.0739  0.1015  0.1144
 1088YOPC   D3B15547   3.801   3.154   6.261  0.1988 -0.2238  0.2117
 1088YOPC   C4B15548   3.970   3.572   6.316  0.1903  0.0328  0.0679
 1089YOPC   NC315549   8.164   5.394   6.129  0.2677  0.1688 -0.2680
 1089YOPC   PO415550   8.509   5.300   6.165  0.0857 -0.0549  0.0062
 1089YOPC   GL115551   8.761   5.219   6.465 -0.1923 -0.2484 -0.1595
 1089YOPC   GL215552   8.794   5.557   6.626 -0.2096 -0.2286 -0.1658
 1089YOPC   C1A15553   9.117   5.102   6.624  0.1790  0.1176  0.0302
 1089YOPC   D2A15554   9.298   5.230   7.023  0.2190 -0.0061 -0.1296
 1089YOPC   C3A15555   9.111   4.964   7.383 -0.0165 -0.0735  0.0301
 1089YOPC   C4A15556   9.388   5.021   7.849  0.2624 -0.2741 -0.0835
 1089YOPC   C1B15557   8.771   5.355   6.951  0.1989 -0.1545 -0.2717
 1089YOPC   C2B15558   8.825   5.343   7.398  0.0339  0.1764 -0.0951
 1089YOPC   D3B15559   9.159   5.427   7.604 -0.0223 -0.1003  0.2022
 1089YOPC   C4B15560   9.314   5.875   7.777  0.0394 -0.1693 -0.0299
 1090YOPC   NC315561   4.741  10.736   5.541  0.3333 -0.0519  0.1001
 1090YOPC   PO415562   5.254  10.582   5.376 -0.0021 -0.0940 -0.3112
 1090YOPC   GL115563   5.506  10.608   5.891 -0.1376 -0.0698 -0.1656
 1090YOPC   GL215564   5.623  10.923   5.892  0.0537 -0.1056 -0.0275
 1090YOPC   C1A15565   5.357  10.629   6.317 -0.0967 -0.1768  0.1649
 1090YOPC   D2A15566   5.452  10.845   6.747  0.2648 -0.0325 -0.2481
 1090YOPC   C3A15567   5.553  10.666   7.119  0.0639  0.3046  0.0608
 1090YOPC   C4A15568   5.604  10.261   7.220  0.0754  0.0997  0.0352
 1090YOPC   C1B15569   5.489  11.092   6.279  0.3047 -0.0194 -0.0738
 1090YOPC   C2B15570   5.499  11.451   6.709  0.0035  0.0077  0.1497
 1090YOPC   D3B15571   5.197  11.359   6.979 -0.1652 -0.2632 -0.1357
 1090YOPC   C4B15572   5.031  11.598   7.269 -0.1155 -0.0337 -0.1936
 1091YOPC   NC315573  12.478   6.560   5.550  0.0566  0.0023 -0.4259
 1091YOPC   PO415574  12.302   6.955   5.594  0.0421 -0.3207  0.1661
 1091YOPC   GL115575  12.317   6.873   5.960  0.2466 -0.2255  0.0074
 1091YOPC   GL215576  12.518   7.087   6.085 -0.2749 -0.2498 -0.1819
 1091YOPC   C1A15577  12.273   6.866   6.481  0.1173 -0.2392  0.2128
 1091YOPC   D2A15578  12.512   6.600   6.726  0.2826 -0.1272 -0.1282
 1091YOPC   C3A15579  12.795   6.513   7.047  0.0532  0.1019 -0.0676
 1091YOPC   C4A15580  12.955   6.264   7.405 -0.1714  0.0514 -0.2413
 1091YOPC   C1B15581  12.727   7.028   6.529  0.0599 -0.0127 -0.2213
 1091YOPC   C2B15582  12.779   7.030   6.906 -0.1706 -0.0371 -0.1306
 1091YOPC   D3B15583  12.547   7.168   7.333  0.3344 -0.1853  0.1861
 1091YOPC   C4B15584  12.535   7.125   7.744 -0.2346 -0.1954 -0.4687
 1092YOPC   NC315585   8.123   6.775   6.116  0.2308  0.1308  0.4714
 1092YOPC   PO415586   8.219   6.362   6.357 -0.0206 -0.0188  0.1594
 1092YOPC   GL115587   8.260   6.650   6.622  0.2203  0.2730  0.1267
 1092YOPC   GL215588   8.524   6.779   6.652  0.0280  0.3404  0.3124
 1092YOPC   C1A15589   8.265   6.845   7.047 -0.2801 -0.1877 -0.1645
 1092YOPC   D2A15590   8.249   6.681   7.500 -0.2079  0.2028  0.3427
 1092YOPC   C3A15591   8.168   7.019   7.739  0.0473 -0.0439 -0.4103
 1092YOPC   C4A15592   7.919   7.388   7.964 -0.1512  0.1009  0.1172
 1092YOPC   C1B15593   8.812   6.833   7.065 -0.3342 -0.1240 -0.3077
 1092YOPC   C2B15594   8.707   6.473   7.337  0.1278  0.0553 -0.2899
 1092YOPC   D3B15595   8.990   6.520   7.674  0.1059  0.1228 -0.1158
 1092YOPC   C4B15596   9.474   6.758   7.804 -0.0888 -0.1689  0.1163
 1093YOPC   NC315597  11.947   5.353   5.499  0.0967  0.0308 -0.2227
 1093YOPC   PO415598  11.684   5.712   5.644  0.1057 -0.1570 -0.0433
 1093YOPC   GL115599  11.817   5.558   6.002  0.1797  0.1338 -0.0324
 1093YOPC   GL215600  11.661   5.376   6.086  0.2176  0.1903 -0.2428
 1093YOPC   C1A15601  12.096   5.493   6.333  0.2944  0.1767 -0.1706
 1093YOPC   D2A15602  12.248   5.344   6.661  0.1286  0.3429  0.1217
 1093YOPC   C3A15603  12.244   5.287   7.176 -0.1484  0.1144 -0.0413
 1093YOPC   C4A15604  12.353   5.331   7.565  0.0438 -0.1864  0.1944
 1093YOPC   C1B15605  11.288   5.595   6.396  0.2510 -0.0937  0.2537
 1093YOPC   C2B15606  11.447   5.779   6.778 -0.2636 -0.0117 -0.0874
 1093YOPC   D3B15607  11.679   5.879   7.134 -0.2750  0.0743  0.0865
 1093YOPC   C4B15608  11.707   6.015   7.590 -0.1533 -0.3306 -0.0963
 1094YOPC   NC315609   3.585  13.407   5.205 -0.1348  0.4181 -0.4029
 1094YOPC   PO415610   3.490  13.855   5.342  0.1511 -0.2285 -0.1379
 1094YOPC   GL115611   3.402  13.865   5.776  0.1915  0.0878 -0.0446
 1094YOPC   GL215612   3.645  13.719   5.901  0.2285  0.2458  0.2352
 1094YOPC   C1A15613   3.337  14.104   6.137  0.1434 -0.2532 -0.1000
 1094YOPC   D2A15614   3.375  13.753   6.427 -0.2063  0.0498  0.1008
 1094YOPC   C3A15615   3.398  13.737   6.898  0.0926  0.0464  0.4037
 1094YOPC   C4A15616   3.252  13.865   7.310 -0.2358  0.0386 -0.1224
 1094YOPC   C1B15617   3.646  13.360   6.236 -0.0426  0.0767  0.1516
 1094YOPC   C2B15618   3.829  12.933   6.319 -0.2862 -0.0104 -0.0581
 1094YOPC   D3B15619   3.634  12.821   6.719 -0.2294  0.1366 -0.0958
 1094YOPC   C4B15620   3.678  13.004   7.112  0.1350 -0.2968 -0.2339
 1095YOPC   NC315621  15.327  18.140   5.607  0.0117 -0.2081 -0.1386
 1095YOPC   PO415622  15.753  18.022   5.793  0.0470  0.0234 -0.1138
 1095YOPC   GL115623  15.539  18.105   6.114  0.2164  0.0817  0.3160
 1095YOPC   GL215624  15.397  17.745   6.074 -0.1035  0.2888  0.0389
 1095YOPC   C1A15625  15.409  18.154   6.568 -0.0207  0.4774 -0.4891
 1095YOPC   D2A15626  15.127  18.325   6.758  0.1745  0.2522  0.1092
 1095YOPC   C3A15627  15.121  18.323   7.205  0.0684 -0.0369  0.1934
 1095YOPC   C4A15628  14.995  18.381   7.599 -0.0831  0.0608 -0.0880
 1095YOPC   C1B15629  15.626  17.748   6.435 -0.2667 -0.1918  0.0278
 1095YOPC   C2B15630  15.544  17.700   6.764  0.0080 -0.0869 -0.0005
 1095YOPC   D3B15631  15.574  17.964   7.059 -0.0537 -0.1769 -0.2616
 1095YOPC   C4B15632  15.472  18.122   7.467  0.0731 -0.0247  0.2905
 1096YOPC   NC315633   2.955   6.432   5.510 -0.0418  0.0121  0.1901
 1096YOPC   PO415634   2.620   6.311   5.616  0.1834 -0.0059 -0.2381
 1096YOPC   GL115635   2.438   6.383   5.963  0.0099  0.3075  0.1056
 1096YOPC   GL215636   2.488   6.178   6.187  0.0354  0.1326 -0.1104
 1096YOPC   C1A15637   2.274   6.656   6.296  0.2097  0.0017  0.1379
 1096YOPC   D2A15638   2.028   6.673   6.738 -0.2480 -0.0197  0.0398
 1096YOPC   C3A15639   2.119   6.860   7.195  0.0575  0.1659 -0.2284
 1096YOPC   C4A15640   2.380   7.106   7.520  0.1639 -0.0292 -0.2214
 1096YOPC   C1B15641   2.336   6.300   6.636  0.2171  0.2330  0.1001
 1096YOPC   C2B15642   2.283   6.328   7.087  0.2173  0.1468 -0.1982
 1096YOPC   D3B15643   2.518   6.664   7.338 -0.5238  0.0553  0.0316
 1096YOPC   C4B15644   2.322   6.666   7.751 -0.3279 -0.1073 -0.4369
 1097YOPC   NC315645  13.205  15.030   5.409  0.1868  0.0553 -0.2541
 1097YOPC   PO415646  13.303  14.723   5.242  0.1405 -0.0161 -0.2923
 1097YOPC   GL115647  13.340  14.520   5.601 -0.1523  0.0417  0.1219
 1097YOPC   GL215648  13.385  14.166   5.510  0.0920  0.1041 -0.1173
 1097YOPC   C1A15649  13.750  14.340   5.804  0.1259  0.3891 -0.1351
 1097YOPC   D2A15650  13.798  14.230   6.224  0.1265 -0.3588  0.0934
 1097YOPC   C3A15651  13.657  13.909   6.476  0.3556  0.0613 -0.1619
 1097YOPC   C4A15652  13.629  13.711   7.012  0.2165  0.0872  0.0723
 1097YOPC   C1B15653  13.370  14.048   5.978 -0.3367 -0.1193  0.0593
 1097YOPC   C2B15654  13.111  14.112   6.340 -0.0628 -0.3462 -0.1434
 1097YOPC   D3B15655  13.256  14.053   6.742 -0.0725 -0.0993  0.2884
 1097YOPC   C4B15656  13.211  14.085   7.106  0.1376  0.0456 -0.1949
 1098YOPC   NC315657   2.650   7.246   5.311  0.3056 -0.0264 -0.0519
 1098YOPC   PO415658   2.641   6.826   5.621  0.0401  0.1004  0.0796
 1098YOPC   GL115659   2.715   6.843   6.031 -0.0074  0.1896  0.7298
 1098YOPC   GL215660   2.905   6.531   5.998 -0.2061  0.1317  0.0087
 1098YOPC   C1A15661   2.616   7.059   6.449  0.1841  0.1639 -0.2686
 1098YOPC   D2A15662   2.343   7.013   6.733  0.0157 -0.0023  0.2173
 1098YOPC   C3A15663   2.328   7.400   7.041  0.2707 -0.1228  0.0605
 1098YOPC   C4A15664   2.308   7.636   7.433  0.2383  0.2114 -0.1598
 1098YOPC   C1B15665   2.778   6.511   6.369 -0.1341 -0.1761 -0.2590
 1098YOPC   C2B15666   2.702   6.631   6.716 -0.2443  0.2392 -0.0196
 1098YOPC   D3B15667   2.967   6.519   7.097 -0.1408 -0.0151  0.0489
 1098YOPC   C4B15668   2.722   6.162   7.410  0.1239  0.2156  0.0305
 1099YOPC   NC315669   8.104   0.631   6.316 -0.3907 -0.1643  0.0545
 1099YOPC   PO415670   8.398   0.968   6.350  0.1477  0.2490 -0.0648
 1099YOPC   GL115671   8.264   0.777   6.752 -0.2841  0.0805  0.1430
 1099YOPC   GL215672   8.008   0.899   6.752 -0.2880 -0.1771 -0.0801
 1099YOPC   C1A15673   8.181   0.567   7.133  0.3791 -0.0625  0.1299
 1099YOPC   D2A15674   7.824   0.315   7.372  0.1180  0.2488  0.1447
 1099YOPC   C3A15675   7.821  -0.108   7.510  0.0242 -0.3330 -0.3671
 1099YOPC   C4A15676   7.633  -0.462   7.749  0.0307 -0.4076  0.3426
 1099YOPC   C1B15677   8.091   1.063   7.200  0.2735 -0.2619 -0.1356
 1099YOPC   C2B15678   8.221   1.396   7.298 -0.2746  0.1875 -0.0431
 1099YOPC   D3B15679   8.505   1.613   7.090 -0.3706  0.0332 -0.1260
 1099YOPC   C4B15680   8.597   1.966   7.019  0.2532  0.0574  0.2473
 1100YOPC   NC315681   2.260   7.574   5.741 -0.0004  0.2171  0.4084
 1100YOPC   PO415682   2.508   7.290   5.819  0.0752 -0.1703  0.3310
 1100YOPC   GL115683   2.423   7.409   6.189  0.0560 -0.2126 -0.0559
 1100YOPC   GL215684   2.037   7.475   6.163  0.1040 -0.1160 -0.0609
 1100YOPC   C1A15685   2.430   7.521   6.596 -0.1352  0.0209  0.0679
 1100YOPC   D2A15686   2.097   7.763   6.729 -0.0290 -0.0584 -0.4714
 1100YOPC   C3A15687   1.969   7.833   7.129 -0.1304  0.0403  0.0396
 1100YOPC   C4A15688   1.736   7.843   7.569  0.1627  0.1231  0.0177
 1100YOPC   C1B15689   1.892   7.296   6.465 -0.4206 -0.0123 -0.0974
 1100YOPC   C2B15690   1.884   7.171   6.858 -0.0917  0.1192 -0.2350
 1100YOPC   D3B15691   1.890   7.365   7.253  0.0663  0.0626  0.1167
 1100YOPC   C4B15692   1.967   7.475   7.776 -0.0998 -0.1968  0.3880
 1101YOPC   NC315693  16.464   7.382   5.254 -0.0209 -0.0291  0.1041
 1101YOPC   PO415694  16.207   7.530   5.497  0.2033 -0.0609 -0.1603
 1101YOPC   GL115695  16.343   7.606   5.946  0.1861 -0.1913 -0.2464
 1101YOPC   GL215696  16.096   7.785   6.111  0.0324  0.1361 -0.0859
 1101YOPC   C1A15697  16.378   7.321   6.335  0.1892 -0.2528 -0.3261
 1101YOPC   D2A15698  16.305   7.282   6.747 -0.2235 -0.0688  0.0469
 1101YOPC   C3A15699  16.109   7.016   6.958 -0.1601 -0.1505  0.0296
 1101YOPC   C4A15700  15.868   6.842   7.281  0.1897  0.0699 -0.1154
 1101YOPC   C1B15701  16.194   7.772   6.571  0.0296  0.1135  0.4069
 1101YOPC   C2B15702  16.318   7.716   6.909  0.2466  0.1168 -0.0005
 1101YOPC   D3B15703  16.057   7.957   7.278 -0.0068  0.0950 -0.1506
 1101YOPC   C4B15704  15.784   7.885   7.477  0.1828  0.1308  0.3604
 1102YOPC   NC315705  16.766  18.531   5.247  0.2274  0.0433 -0.2618
 1102YOPC   PO415706  16.399  18.724   5.518  0.1281 -0.1798 -0.0350
 1102YOPC   GL115707  16.364  18.804   5.872 -0.0079 -0.1414 -0.1787
 1102YOPC   GL215708  16.497  19.081   5.955 -0.0962 -0.0308 -0.0793
 1102YOPC   C1A15709  16.226  18.777   6.239 -0.0913  0.1750 -0.1767
 1102YOPC   D2A15710  15.831  18.490   6.322 -0.1996 -0.2879 -0.0342
 1102YOPC   C3A15711  15.583  18.628   6.682 -0.2755 -0.1571 -0.1069
 1102YOPC   C4A15712  15.376  18.716   7.086  0.1575  0.3731 -0.1930
 1102YOPC   C1B15713  16.656  19.046   6.417  0.1113 -0.0592 -0.1726
 1102YOPC   C2B15714  16.825  18.914   6.786 -0.2986  0.0274  0.1311
 1102YOPC   D3B15715  16.500  18.982   6.931 -0.1593 -0.0794  0.2143
 1102YOPC   C4B15716  16.059  19.075   7.035 -0.0677  0.0723 -0.2368
 1103YOPC   NC315717   7.702  15.632   5.319 -0.4234 -0.0850 -0.2510
 1103YOPC   PO415718   7.907  16.074   5.513  0.0562 -0.1610 -0.0373
 1103YOPC   GL115719   7.902  15.935   5.891 -0.2703 -0.0812 -0.1434
 1103YOPC   GL215720   7.727  16.070   6.075  0.3034 -0.2943 -0.0207
 1103YOPC   C1A15721   8.133  15.933   6.370  0.0729 -0.1381  0.3235
 1103YOPC   D2A15722   7.869  16.001   6.707  0.0374  0.2368  0.0443
 1103YOPC   C3A15723   8.153  16.173   6.964 -0.0212  0.1451  0.2028
 1103YOPC   C4A15724   8.493  16.316   7.219 -0.0976 -0.0374  0.0895
 1103YOPC   C1B15725   7.607  15.767   6.372  0.0274 -0.1483 -0.3504
 1103YOPC   C2B15726   7.629  15.468   6.747  0.3144 -0.1137  0.0366
 1103YOPC   D3B15727   7.484  15.496   7.168 -0.0270  0.1088  0.1361
 1103YOPC   C4B15728   7.061  15.334   7.164 -0.2312  0.2201 -0.1817
 1104YOPC   NC315729   4.180   7.754   5.575 -0.0911 -0.2336 -0.1102
 1104YOPC   PO415730   3.787   7.599   5.709 -0.1441 -0.0794 -0.0693
 1104YOPC   GL115731   3.696   7.530   6.043  0.3757  0.1588  0.3202
 1104YOPC   GL215732   3.331   7.454   6.101 -0.2221  0.4578  0.0191
 1104YOPC   C1A15733   3.786   7.535   6.504  0.1424 -0.0302  0.0325
 1104YOPC   D2A15734   3.833   7.767   7.029 -0.1339  0.2389  0.1365
 1104YOPC   C3A15735   3.395   7.820   7.301  0.0057 -0.3783 -0.4985
 1104YOPC   C4A15736   3.208   7.444   7.452  0.0797 -0.2785 -0.0946
 1104YOPC   C1B15737   3.123   7.053   6.209  0.4088 -0.3725 -0.1765
 1104YOPC   C2B15738   3.120   6.896   6.619  0.1054 -0.3129  0.1084
 1104YOPC   D3B15739   3.312   6.794   6.989  0.1354 -0.0074 -0.0144
 1104YOPC   C4B15740   3.375   6.943   7.362  0.1524 -0.1436 -0.1031
 1105YOPC   NC315741  16.228  16.323   5.355  0.1256 -0.1194  0.0448
 1105YOPC   PO415742  16.511  16.600   5.200 -0.0277 -0.0800 -0.0039
 1105YOPC   GL115743  16.630  16.886   5.597 -0.0272  0.1427 -0.2013
 1105YOPC   GL215744  16.532  17.097   5.856 -0.3244 -0.1587  0.2278
 1105YOPC   C1A15745  16.943  16.884   5.876 -0.3597 -0.0607 -0.1200
 1105YOPC   D2A15746  16.952  16.944   6.263  0.1545 -0.1708 -0.2395
 1105YOPC   C3A15747  17.319  17.273   6.391 -0.1799  0.2703 -0.1323
 1105YOPC   C4A15748  17.816  17.370   6.343 -0.1098  0.0775 -0.1671
 1105YOPC   C1B15749  16.156  16.985   6.019 -0.0135  0.1958  0.2350
 1105YOPC   C2B15750  15.988  16.960   6.394  0.4440  0.0900  0.0841
 1105YOPC   D3B15751  16.044  16.625   6.634 -0.0084  0.2832  0.3557
 1105YOPC   C4B15752  16.124  16.261   6.700 -0.0378 -0.1371 -0.0095
 1106YOPC   NC315753  12.784  16.918   5.607 -0.0915 -0.2095  0.0886
 1106YOPC   PO415754  12.790  16.497   5.481  0.0100 -0.2204 -0.2359
 1106YOPC   GL115755  12.813  16.375   5.901 -0.0318  0.2467  0.1479
 1106YOPC   GL215756  12.673  16.023   6.036 -0.3712  0.1074 -0.0378
 1106YOPC   C1A15757  12.900  16.336   6.403  0.1463  0.0075  0.1177
 1106YOPC   D2A15758  12.912  16.622   6.720  0.2107  0.1332  0.1192
 1106YOPC   C3A15759  12.854  16.485   7.094 -0.0500  0.0363 -0.0463
 1106YOPC   C4A15760  12.687  16.104   7.119  0.2184  0.1685  0.2860
 1106YOPC   C1B15761  13.105  16.049   6.024 -0.0806 -0.0644 -0.3807
 1106YOPC   C2B15762  13.516  16.130   6.188 -0.0762 -0.3365  0.1458
 1106YOPC   D3B15763  13.845  15.893   6.081  0.0429 -0.1126 -0.0685
 1106YOPC   C4B15764  14.231  15.684   6.070  0.3303  0.1787  0.3710
 1107YOPC   NC315765   2.609   5.284   5.689 -0.0079  0.1466 -0.0502
 1107YOPC   PO415766   2.755   4.884   5.634 -0.0420 -0.0170  0.0382
 1107YOPC   GL115767   2.585   4.911   6.054 -0.1024 -0.2091 -0.1710
 1107YOPC   GL215768   2.480   4.670   6.204  0.1163  0.0936 -0.0982
 1107YOPC   C1A15769   2.590   5.013   6.601  0.3977  0.0086  0.0681
 1107YOPC   D2A15770   2.330   4.802   6.855 -0.0135 -0.0600 -0.1291
 1107YOPC   C3A15771   2.262   4.963   7.290  0.0843 -0.3057 -0.1361
 1107YOPC   C4A15772   2.048   4.927   7.680 -0.3564 -0.1163 -0.0810
 1107YOPC   C1B15773   2.138   4.755   6.357 -0.3551  0.0463  0.2626
 1107YOPC   C2B15774   1.887   4.689   6.693 -0.0101 -0.0211  0.0355
 1107YOPC   D3B15775   1.984   4.580   7.133 -0.2240 -0.0833  0.3184
 1107YOPC   C4B15776   2.148   4.448   7.543 -0.3919  0.0846 -0.2475
 1108YOPC   NC315777  16.106   9.265   5.627 -0.0524  0.2334 -0.2377
 1108YOPC   PO415778  16.172   8.866   5.390 -0.0041  0.0176 -0.0698
 1108YOPC   GL115779  16.281   8.812   5.851  0.0819  0.1528 -0.3140
 1108YOPC   GL215780  16.644   8.790   5.940 -0.0343  0.0257  0.0560
 1108YOPC   C1A15781  16.183   8.889   6.195 -0.3338  0.5569 -0.1438
 1108YOPC   D2A15782  16.333   8.773   6.622  0.2431 -0.0868  0.0928
 1108YOPC   C3A15783  16.641   9.017   6.782  0.0324 -0.0351  0.0293
 1108YOPC   C4A15784  16.922   9.316   7.106 -0.1260 -0.0737 -0.1209
 1108YOPC   C1B15785  16.719   8.956   6.246 -0.2764  0.0236  0.2480
 1108YOPC   C2B15786  17.161   8.939   6.475  0.1209 -0.0232 -0.0419
 1108YOPC   D3B15787  17.146   8.933   6.923 -0.0318  0.0327  0.3775
 1108YOPC   C4B15788  16.913   8.826   7.210 -0.0898 -0.0420 -0.1313
 1109YOPC   NC315789   6.983   3.295   6.550 -0.0033  0.0458  0.2700
 1109YOPC   PO415790   6.727   3.587   6.293 -0.3559  0.1317 -0.0568
 1109YOPC   GL115791   6.445   3.516   6.707 -0.1262 -0.1640  0.1008
 1109YOPC   GL215792   6.331   3.120   6.750 -0.3145  0.1369 -0.1215
 1109YOPC   C1A15793   6.611   3.676   7.146 -0.0142  0.0093  0.2839
 1109YOPC   D2A15794   6.421   3.550   7.475 -0.0658 -0.3684  0.2331
 1109YOPC   C3A15795   6.353   3.262   7.744  0.1008 -0.1542  0.0558
 1109YOPC   C4A15796   6.235   2.884   7.734  0.3278  0.2250  0.2699
 1109YOPC   C1B15797   6.297   3.137   7.250  0.2258 -0.0969 -0.0029
 1109YOPC   C2B15798   6.750   3.155   7.463 -0.0367  0.4042 -0.1566
 1109YOPC   D3B15799   7.006   3.575   7.397  0.0701  0.1737 -0.1342
 1109YOPC   C4B15800   7.026   4.055   7.294 -0.1790  0.4960  0.0357
 1110YOPC   NC315801  16.571  11.757   5.432  0.1910  0.2148  0.0165
 1110YOPC   PO415802  16.301  12.031   5.528 -0.2737  0.0406  0.0281
 1110YOPC   GL115803  16.320  11.916   5.987  0.1644  0.0441  0.2019
 1110YOPC   GL215804  16.204  12.173   6.226  0.2511 -0.0615 -0.0047
 1110YOPC   C1A15805  16.612  11.894   6.308  0.0174  0.0739 -0.2742
 1110YOPC   D2A15806  16.945  12.048   6.640 -0.1427  0.0042  0.0327
 1110YOPC   C3A15807  17.031  11.931   7.012  0.0631 -0.0540 -0.5977
 1110YOPC   C4A15808  16.856  11.963   7.397  0.2168 -0.2585 -0.0152
 1110YOPC   C1B15809  16.292  12.053   6.700 -0.1704 -0.2943 -0.3895
 1110YOPC   C2B15810  16.556  11.789   6.868  0.2837  0.1208  0.1295
 1110YOPC   D3B15811  16.552  11.602   7.333  0.0452  0.2022 -0.1085
 1110YOPC   C4B15812  16.466  11.325   7.758  0.0768  0.1843  0.4556
 1111YOPC   NC315813   2.474   3.424   5.148  0.0065 -0.0639  0.1547
 1111YOPC   PO415814   2.901   3.445   5.274  0.0186 -0.1190  0.2411
 1111YOPC   GL115815   3.087   3.377   5.737 -0.2033  0.2494  0.3494
 1111YOPC   GL215816   3.444   3.393   5.801 -0.0316 -0.1128 -0.3199
 1111YOPC   C1A15817   2.735   3.526   6.099  0.2270 -0.2202 -0.3073
 1111YOPC   D2A15818   2.831   3.396   6.449  0.1333 -0.2801 -0.3040
 1111YOPC   C3A15819   2.717   3.263   6.907  0.1132 -0.0854 -0.0781
 1111YOPC   C4A15820   2.635   3.460   7.407  0.2611 -0.0965  0.1330
 1111YOPC   C1B15821   3.308   3.359   6.183  0.0376  0.1110 -0.0976
 1111YOPC   C2B15822   3.393   3.258   6.550 -0.0752  0.1222  0.1107
 1111YOPC   D3B15823   3.206   3.521   6.856  0.0988  0.1673 -0.0145
 1111YOPC   C4B15824   3.048   3.731   7.345 -0.1456 -0.0694 -0.1563
 1112YOPC   NC315825   3.817  16.032   5.839  0.1534  0.0747 -0.3140
 1112YOPC   PO415826   3.482  16.199   5.898  0.2176  0.0764 -0.0194
 1112YOPC   GL115827   3.181  16.272   6.150 -0.0985  0.3375  0.0157
 1112YOPC   GL215828   2.911  16.333   5.905 -0.0615 -0.0323 -0.2623
 1112YOPC   C1A15829   3.319  16.516   6.535 -0.0117 -0.2058 -0.2474
 1112YOPC   D2A15830   3.391  16.632   6.887  0.0062  0.0160 -0.3084
 1112YOPC   C3A15831   3.121  16.404   7.105  0.0356 -0.1182 -0.0198
 1112YOPC   C4A15832   2.858  16.034   7.079  0.1871  0.0745 -0.0333
 1112YOPC   C1B15833   2.791  16.483   6.363  0.1526  0.4072  0.2123
 1112YOPC   C2B15834   2.594  16.323   6.729 -0.2387 -0.1190 -0.0960
 1112YOPC   D3B15835   2.627  16.500   7.071 -0.0684  0.2375 -0.2161
 1112YOPC   C4B15836   2.796  16.835   7.306  0.2896 -0.0573 -0.2011
 1113YOPC   NC315837  16.119   8.342   5.311 -0.1448 -0.2428  0.2848
 1113YOPC   PO415838  16.628   8.419   5.368 -0.1155 -0.0176 -0.5402
 1113YOPC   GL115839  16.519   8.309   5.841 -0.2413 -0.1108 -0.2569
 1113YOPC   GL215840  16.701   7.972   5.857  0.1219  0.1867 -0.0448
 1113YOPC   C1A15841  16.310   8.381   6.192  0.0512  0.2305  0.0279
 1113YOPC   D2A15842  16.361   8.291   6.583 -0.3342 -0.0034 -0.3405
 1113YOPC   C3A15843  16.134   8.255   6.856 -0.1029 -0.0574  0.0844
 1113YOPC   C4A15844  16.161   8.441   7.285  0.0656 -0.2800  0.0271
 1113YOPC   C1B15845  16.597   7.942   6.279  0.1241 -0.1639 -0.1522
 1113YOPC   C2B15846  16.662   8.018   6.837 -0.2422 -0.4020 -0.0953
 1113YOPC   D3B15847  16.506   8.101   7.206  0.0569 -0.1732  0.0087
 1113YOPC   C4B15848  16.442   8.102   7.737  0.0949  0.0291  0.2613
 1114YOPC   NC315849   8.767   6.118   6.168 -0.0858  0.2005  0.1381
 1114YOPC   PO415850   8.574   5.825   6.255 -0.0957  0.1343  0.1244
 1114YOPC   GL115851   8.558   6.018   6.661  0.4348  0.1924 -0.0820
 1114YOPC   GL215852   8.544   6.325   6.795 -0.0443 -0.2074 -0.0033
 1114YOPC   C1A15853   8.897   5.996   6.924 -0.2981  0.1729  0.0819
 1114YOPC   D2A15854   9.175   5.674   7.168 -0.0261 -0.0141 -0.0308
 1114YOPC   C3A15855   9.621   5.838   7.327  0.0040  0.3779  0.1066
 1114YOPC   C4A15856   9.964   5.757   7.439 -0.0688  0.0844 -0.1628
 1114YOPC   C1B15857   8.195   6.330   7.117  0.0614  0.1427  0.2216
 1114YOPC   C2B15858   7.822   6.526   7.201  0.0772  0.3293 -0.2026
 1114YOPC   D3B15859   7.698   6.594   7.590 -0.3013 -0.3131  0.2965
 1114YOPC   C4B15860   8.004   6.542   7.928  0.1267 -0.3039  0.0509
 1115YOPC   NC315861   3.436   4.646   5.666  0.1889 -0.2745 -0.1947
 1115YOPC   PO415862   3.686   4.761   5.883  0.1234  0.1100  0.1853
 1115YOPC   GL115863   3.304   4.442   6.126 -0.0785 -0.0420  0.2444
 1115YOPC   GL215864   3.547   4.513   6.302  0.0479  0.1502 -0.2093
 1115YOPC   C1A15865   2.973   4.441   6.235  0.3995 -0.0765  0.3330
 1115YOPC   D2A15866   2.680   4.513   6.579  0.2812 -0.1649 -0.0097
 1115YOPC   C3A15867   2.905   4.449   6.985  0.1242  0.0123  0.0629
 1115YOPC   C4A15868   2.786   4.122   7.121 -0.1560 -0.1239  0.1150
 1115YOPC   C1B15869   3.381   4.400   6.601  0.2992 -0.0134  0.1415
 1115YOPC   C2B15870   3.215   4.069   6.901 -0.0651 -0.1698 -0.1693
 1115YOPC   D3B15871   3.596   4.058   7.193  0.0258 -0.0487  0.3561
 1115YOPC   C4B15872   3.976   3.861   7.426  0.1292  0.1266 -0.2494
 1116YOPC   NC315873   4.630   3.715   5.316  0.0397  0.0002  0.1504
 1116YOPC   PO415874   4.413   3.591   5.727 -0.1406  0.0596 -0.0474
 1116YOPC   GL115875   4.295   3.922   5.943 -0.2208 -0.0460 -0.1194
 1116YOPC   GL215876   4.523   3.889   6.199 -0.0269  0.0188  0.0082
 1116YOPC   C1A15877   4.063   4.218   6.229 -0.1353 -0.0756 -0.0631
 1116YOPC   D2A15878   3.957   4.465   6.600 -0.0606 -0.0158  0.0140
 1116YOPC   C3A15879   3.886   4.440   7.059 -0.2820 -0.0755 -0.0131
 1116YOPC   C4A15880   3.843   4.308   7.548  0.3094 -0.4436 -0.3164
 1116YOPC   C1B15881   4.507   4.318   6.449 -0.0545 -0.2336  0.1630
 1116YOPC   C2B15882   4.393   4.520   6.862 -0.0829  0.3357  0.2135
 1116YOPC   D3B15883   4.342   4.335   7.253 -0.1075 -0.1037 -0.2550
 1116YOPC   C4B15884   4.352   4.088   7.610  0.1759 -0.1729 -0.0007
 1117YOPC   NC315885   2.095  15.300   5.762  0.2562 -0.2579 -0.2284
 1117YOPC   PO415886   1.742  15.038   5.731  0.1587  0.0960  0.0611
 1117YOPC   GL115887   1.880  14.817   6.077  0.0753 -0.1678 -0.1385
 1117YOPC   GL215888   2.149  15.012   6.173 -0.1998 -0.2654  0.0989
 1117YOPC   C1A15889   1.571  14.566   6.281  0.0974  0.2418  0.0178
 1117YOPC   D2A15890   1.419  14.433   6.676  0.2570  0.1220  0.1286
 1117YOPC   C3A15891   1.450  14.584   7.081  0.1731 -0.0459 -0.0643
 1117YOPC   C4A15892   1.876  14.590   7.438 -0.0100 -0.2364  0.0112
 1117YOPC   C1B15893   2.358  15.006   6.609  0.0681  0.1517 -0.2806
 1117YOPC   C2B15894   2.405  14.644   6.938 -0.1146 -0.0448  0.0511
 1117YOPC   D3B15895   2.192  14.350   7.101  0.0328  0.0730 -0.0090
 1117YOPC   C4B15896   1.757  14.182   6.985 -0.5852 -0.1180 -0.1931
 1118YOPC   NC315897   6.359   4.750   6.150 -0.1865  0.0298  0.0164
 1118YOPC   PO415898   5.897   4.674   6.052  0.1715 -0.3165 -0.1170
 1118YOPC   GL115899   5.708   4.441   6.360 -0.0848  0.0256  0.4135
 1118YOPC   GL215900   5.425   4.436   6.203  0.0622  0.2020 -0.1248
 1118YOPC   C1A15901   5.531   4.257   6.736  0.1114 -0.2320  0.0023
 1118YOPC   D2A15902   5.407   4.144   7.139 -0.2863 -0.3615 -0.1094
 1118YOPC   C3A15903   5.544   4.105   7.479  0.1852 -0.1408 -0.2739
 1118YOPC   C4A15904   5.391   3.964   7.874  0.1343 -0.0584  0.0172
 1118YOPC   C1B15905   5.187   4.660   6.462  0.3679  0.0762  0.0083
 1118YOPC   C2B15906   4.930   4.631   6.810  0.4419 -0.0746  0.2153
 1118YOPC   D3B15907   5.146   4.617   7.236 -0.1020 -0.1954 -0.0440
 1118YOPC   C4B15908   5.246   4.439   7.666  0.2613 -0.4394  0.1617
 1119YOPC   NC315909  16.607   1.393   5.314 -0.4014  0.0305 -0.2199
 1119YOPC   PO415910  16.119   1.269   5.187  0.0745 -0.1323 -0.0929
 1119YOPC   GL115911  16.238   1.195   5.621 -0.0115 -0.1249  0.3109
 1119YOPC   GL215912  16.347   0.905   5.795  0.3350  0.0298  0.4267
 1119YOPC   C1A15913  16.152   1.306   6.074 -0.3245  0.1274  0.1685
 1119YOPC   D2A15914  16.282   1.736   6.259  0.0741 -0.0727  0.1795
 1119YOPC   C3A15915  16.011   1.861   6.691  0.2130 -0.1321  0.1083
 1119YOPC   C4A15916  15.962   2.297   6.754 -0.2198  0.3292  0.0943
 1119YOPC   C1B15917  16.354   0.650   6.133 -0.0268 -0.0334 -0.3606
 1119YOPC   C2B15918  16.168   0.495   6.552  0.0173  0.3798  0.2103
 1119YOPC   D3B15919  16.161   0.802   6.875  0.0449 -0.0924  0.1111
 1119YOPC   C4B15920  16.267   1.261   7.069 -0.1756  0.2405 -0.2888
 1120YOPC   NC315921   9.946   6.177   5.837  0.1065 -0.0384 -0.0353
 1120YOPC   PO415922  10.255   6.293   5.569 -0.2467  0.0510  0.1150
 1120YOPC   GL115923  10.303   6.534   5.882 -0.0545  0.1596 -0.0064
 1120YOPC   GL215924  10.395   6.836   5.874 -0.3590 -0.1126 -0.2603
 1120YOPC   C1A15925  10.260   6.464   6.268 -0.2180  0.2512 -0.2815
 1120YOPC   D2A15926  10.415   6.422   6.625  0.5534  0.0366 -0.2341
 1120YOPC   C3A15927  10.203   6.743   6.907 -0.1852 -0.1874  0.3688
 1120YOPC   C4A15928  10.306   6.764   7.287 -0.2751 -0.1132 -0.1899
 1120YOPC   C1B15929  10.113   6.901   6.211 -0.0455 -0.1023 -0.0201
 1120YOPC   C2B15930   9.892   7.022   6.508 -0.0373 -0.1418  0.1895
 1120YOPC   D3B15931  10.066   7.238   6.754 -0.4259 -0.2788  0.0134
 1120YOPC   C4B15932  10.215   7.315   7.247 -0.1091 -0.1280 -0.0957
 1121YOPC   NC315933   6.059  13.335   5.981  0.2452 -0.2659  0.1724
 1121YOPC   PO415934   6.394  13.204   5.768 -0.0520 -0.2456  0.0913
 1121YOPC   GL115935   6.640  13.361   6.044 -0.1961 -0.0728  0.4180
 1121YOPC   GL215936   6.509  13.314   6.339 -0.0390  0.0837 -0.0212
 1121YOPC   C1A15937   6.855  13.622   6.281  0.1240 -0.0003  0.4365
 1121YOPC   D2A15938   7.259  13.706   6.446  0.1491 -0.0500 -0.1856
 1121YOPC   C3A15939   7.213  13.997   6.802 -0.0630  0.0138  0.0595
 1121YOPC   C4A15940   7.463  14.093   7.156 -0.2429  0.1034  0.0661
 1121YOPC   C1B15941   6.621  13.489   6.805  0.0370 -0.0028 -0.2007
 1121YOPC   C2B15942   6.959  13.590   6.947  0.0939 -0.4191 -0.2669
 1121YOPC   D3B15943   6.761  13.649   7.327  0.1455 -0.1422 -0.0360
 1121YOPC   C4B15944   6.839  13.798   7.760  0.2009 -0.0062  0.0514
 1122YOPC   NC315945  14.694  14.163   5.533 -0.0661  0.0314  0.0371
 1122YOPC   PO415946  14.444  14.410   5.215  0.3786 -0.0275  0.0829
 1122YOPC   GL115947  14.201  14.554   5.562  0.1266  0.0843  0.0200
 1122YOPC   GL215948  14.060  14.745   5.684  0.1291  0.1870 -0.0246
 1122YOPC   C1A15949  14.253  14.408   5.948  0.2543  0.2738  0.1248
 1122YOPC   D2A15950  14.162  14.588   6.349 -0.1058 -0.2024 -0.2258
 1122YOPC   C3A15951  14.530  14.658   6.690  0.0960 -0.0178 -0.0218
 1122YOPC   C4A15952  14.717  14.427   7.106 -0.2898 -0.1944 -0.2620
 1122YOPC   C1B15953  13.774  14.820   6.048  0.0367 -0.1280  0.0859
 1122YOPC   C2B15954  13.819  14.887   6.475 -0.0230  0.0878 -0.0895
 1122YOPC   D3B15955  14.053  14.813   6.873 -0.2044  0.5543  0.1592
 1122YOPC   C4B15956  14.225  14.387   6.944  0.1909 -0.0114 -0.1730
 1123YOPC   NC315957   2.285  10.027   5.739 -0.2616  0.0464  0.0002
 1123YOPC   PO415958   2.253   9.541   5.806  0.0331  0.1581  0.3458
 1123YOPC   GL115959   2.494   9.428   6.171 -0.0256  0.1161  0.0007
 1123YOPC   GL215960   2.860   9.440   6.247 -0.1797 -0.0346  0.0740
 1123YOPC   C1A15961   2.471   9.622   6.560 -0.0535 -0.2378 -0.0303
 1123YOPC   D2A15962   2.678   9.665   6.998 -0.4449 -0.2789  0.0977
 1123YOPC   C3A15963   2.481   9.696   7.347 -0.3373 -0.1152  0.0781
 1123YOPC   C4A15964   2.436   9.502   7.758 -0.0032 -0.0830  0.1789
 1123YOPC   C1B15965   2.978   9.230   6.590 -0.2210  0.0982 -0.4111
 1123YOPC   C2B15966   2.995   9.288   7.061 -0.1538  0.3253 -0.3797
 1123YOPC   D3B15967   3.270   9.073   7.380 -0.0238  0.2452  0.4628
 1123YOPC   C4B15968   3.491   9.135   7.788  0.1395  0.3496  0.0725
 1124YOPC   NC315969   9.993   9.893   5.632  0.1686  0.0423  0.2500
 1124YOPC   PO415970   9.618  10.058   5.872 -0.2834  0.0423 -0.0055
 1124YOPC   GL115971   9.442   9.931   6.262 -0.0396  0.2171  0.2510
 1124YOPC   GL215972   9.185   9.754   6.264 -0.1004  0.2687 -0.1254
 1124YOPC   C1A15973   9.587   9.677   6.689  0.2336 -0.1520  0.3081
 1124YOPC   D2A15974  10.034   9.706   6.815  0.0615  0.2210 -0.0550
 1124YOPC   C3A15975   9.862  10.125   7.026  0.3038  0.2388 -0.2263
 1124YOPC   C4A15976   9.713  10.354   7.297  0.3245 -0.1072 -0.1668
 1124YOPC   C1B15977   9.121   9.906   6.695  0.2690 -0.0637  0.2373
 1124YOPC   C2B15978   9.136  10.054   7.118 -0.1606 -0.0493  0.0019
 1124YOPC   D3B15979   9.508   9.914   7.473  0.1287  0.0706  0.1285
 1124YOPC   C4B15980   9.718   9.777   7.944  0.4005 -0.3024 -0.0467
 1125YOPC   NC315981   3.166  14.881   5.586 -0.1081  0.4303  0.1201
 1125YOPC   PO415982   2.887  14.565   5.430  0.1871 -0.1701 -0.1763
 1125YOPC   GL115983   2.829  14.656   5.887 -0.1729 -0.2801 -0.0460
 1125YOPC   GL215984   2.789  14.294   5.966 -0.0613 -0.1947 -0.2897
 1125YOPC   C1A15985   2.462  14.680   6.203 -0.5078 -0.0075  0.0581
 1125YOPC   D2A15986   2.499  14.353   6.500  0.0108  0.2460  0.0832
 1125YOPC   C3A15987   2.251  13.915   6.567 -0.1499 -0.2239  0.1529
 1125YOPC   C4A15988   2.228  13.653   6.372  0.1736  0.0413  0.3323
 1125YOPC   C1B15989   3.000  14.389   6.321 -0.4114 -0.0499  0.1670
 1125YOPC   C2B15990   3.255  14.372   6.656  0.1747  0.0141 -0.2968
 1125YOPC   D3B15991   3.269  14.477   7.124 -0.0899  0.0156 -0.1144
 1125YOPC   C4B15992   3.099  14.508   7.526 -0.1127 -0.3382 -0.2041
 1126YOPC   NC315993   7.555   2.849   6.298 -0.1665  0.0456 -0.0750
 1126YOPC   PO415994   7.226   2.921   6.376  0.3324 -0.3149 -0.2123
 1126YOPC   GL115995   7.416   2.794   6.814  0.2939 -0.0583  0.3418
 1126YOPC   GL215996   7.250   2.992   6.907 -0.1004  0.1114 -0.0343
 1126YOPC   C1A15997   7.645   2.647   7.267 -0.0546 -0.0619 -0.2118
 1126YOPC   D2A15998   8.059   2.790   7.485  0.1018 -0.2079 -0.1949
 1126YOPC   C3A15999   7.951   3.161   7.663 -0.0469 -0.0829  0.3123
 1126YOPC   C4A16000   7.681   3.334   8.023 -0.7333  0.0657 -0.1254
 1126YOPC   C1B16001   7.126   2.816   7.334 -0.1681  0.1966  0.0842
 1126YOPC   C2B16002   7.144   3.110   7.734  0.0009 -0.0029 -0.0983
 1126YOPC   D3B16003   7.270   3.545   7.862 -0.3880  0.0998  0.0513
 1126YOPC   C4B16004   7.129   3.914   7.861 -0.1486 -0.2045 -0.0018
 1127YOPC   NC316005  12.411   2.832   5.363  0.0209  0.1069  0.0158
 1127YOPC   PO416006  12.677   3.087   5.542 -0.0546  0.3264 -0.2154
 1127YOPC   GL116007  12.718   3.262   5.922 -0.2468 -0.0749  0.2648
 1127YOPC   GL216008  12.966   3.626   5.874  0.3665 -0.1298  0.0743
 1127YOPC   C1A16009  12.861   3.202   6.222  0.1059  0.0264  0.0475
 1127YOPC   D2A16010  13.002   3.345   6.575 -0.0350 -0.0140  0.1000
 1127YOPC   C3A16011  13.316   3.235   6.762 -0.0081  0.0982  0.0291
 1127YOPC   C4A16012  13.509   3.311   7.119 -0.0101 -0.3605  0.0249
 1127YOPC   C1B16013  12.800   3.716   6.243 -0.0641  0.1915  0.0780
 1127YOPC   C2B16014  13.024   3.930   6.599  0.0154  0.1451 -0.1109
 1127YOPC   D3B16015  13.199   3.694   6.888 -0.1975  0.0893 -0.1380
 1127YOPC   C4B16016  13.220   3.683   7.384 -0.2360 -0.1228  0.1706
 1128ERGO   ROH16017  15.724  15.322   5.906 -0.1069  0.0985  0.1311
 1128ERGO    R116018  15.790  15.395   6.171 -0.1895  0.1376  0.1400
 1128ERGO    R216019  15.600  15.426   6.369 -0.2205 -0.1439  0.1481
 1128ERGO    R316020  15.757  15.248   6.502  0.0162  0.0346  0.1192
 1128ERGO    R416021  15.649  15.423   6.711 -0.3891 -0.2439  0.1735
 1128ERGO    R516022  15.859  15.377   6.676 -0.2808  0.1227  0.2438
 1128ERGO    C116023  15.824  15.254   7.036 -0.2651 -0.1345  0.1613
 1128ERGO    C216024  16.020  15.079   7.347  0.0399 -0.2227  0.0823
 1129ERGO   ROH16025   3.872   1.143   5.667 -0.1870  0.2751  0.1521
 1129ERGO    R116026   3.791   0.943   5.850  0.0005  0.1282  0.0801
 1129ERGO    R216027   3.937   0.881   6.076  0.0947  0.1367  0.0296
 1129ERGO    R316028   3.701   0.929   6.202  0.0798 -0.0950  0.0906
 1129ERGO    R416029   3.885   0.847   6.416  0.1781 -0.0051  0.0280
 1129ERGO    R516030   3.689   0.760   6.372  0.2455 -0.1502  0.0423
 1129ERGO    C116031   3.633   0.872   6.732  0.2127 -0.3052  0.0845
 1129ERGO    C216032   3.539   1.139   7.092  0.0680 -0.3032  0.1589
 1130ERGO   ROH16033   9.276  15.442   6.080 -0.0033 -0.0567 -0.1413
 1130ERGO    R116034   9.154  15.378   6.327  0.0416 -0.1518 -0.1425
 1130ERGO    R216035   9.297  15.350   6.561  0.0630 -0.0507 -0.1398
 1130ERGO    R316036   9.120  15.535   6.653 -0.0742 -0.1801 -0.1410
 1130ERGO    R416037   9.274  15.455   6.890 -0.0484 -0.0940 -0.1337
 1130ERGO    R516038   9.057  15.454   6.870 -0.0439 -0.2409 -0.1568
 1130ERGO    C116039   9.095  15.690   7.167 -0.2421 -0.2408 -0.1314
 1130ERGO    C216040   9.381  16.001   7.341  0.1243 -0.0701  0.2191
 1131ERGO   ROH16041  14.668  15.827   5.872  0.1215 -0.0709 -0.0061
 1131ERGO    R116042  14.939  15.845   5.952  0.1189 -0.0834  0.0057
 1131ERGO    R216043  15.028  16.031   6.135  0.1349 -0.0310 -0.0546
 1131ERGO    R316044  15.126  15.812   6.263  0.0927 -0.0006  0.0306
 1131ERGO    R416045  15.196  16.037   6.437  0.0459  0.0421 -0.0060
 1131ERGO    R516046  15.333  15.886   6.359  0.0660  0.0190  0.0729
 1131ERGO    C116047  15.386  15.834   6.733 -0.0455  0.1130  0.1022
 1131ERGO    C216048  15.356  15.653   7.058 -0.0853 -0.1049  0.0018
 1132ERGO   ROH16049  11.850   3.166   6.222  0.0110  0.0328  0.0395
 1132ERGO    R116050  11.895   3.014   6.456 -0.0942  0.0693  0.0845
 1132ERGO    R216051  12.082   3.087   6.647 -0.0380 -0.0054  0.0625
 1132ERGO    R316052  11.869   3.069   6.815 -0.0525  0.1969  0.0679
 1132ERGO    R416053  12.102   3.030   6.988 -0.0817  0.2113  0.1025
 1132ERGO    R516054  11.930   2.898   6.971 -0.1354  0.2751  0.1845
 1132ERGO    C116055  11.914   2.979   7.343 -0.1207  0.5275  0.1311
 1132ERGO    C216056  11.603   3.074   7.627 -0.2357  0.5149 -0.3568
 1133ERGO   ROH16057  15.911   9.990   6.176  0.2455  0.0150  0.0862
 1133ERGO    R116058  15.903   9.926   6.451  0.2222 -0.0097  0.0801
 1133ERGO    R216059  15.744   9.724   6.552  0.0408  0.1277  0.0779
 1133ERGO    R316060  15.979   9.636   6.658 -0.0258 -0.1094  0.0348
 1133ERGO    R416061  15.808   9.692   6.890  0.1656  0.3456  0.0763
 1133ERGO    R516062  16.009   9.770   6.854  0.2632  0.0316 -0.0998
 1133ERGO    C116063  16.066   9.591   7.186  0.1757  0.2499  0.0349
 1133ERGO    C216064  16.034   9.333   7.402 -0.0917  0.1284  0.0298
 1134ERGO   ROH16065  12.231   5.302   5.870  0.0010 -0.1639 -0.1729
 1134ERGO    R116066  12.153   5.058   5.990 -0.0261 -0.1168 -0.0968
 1134ERGO    R216067  12.212   4.996   6.252 -0.0232 -0.0442 -0.0848
 1134ERGO    R316068  11.944   4.956   6.270 -0.0285 -0.0081 -0.0570
 1134ERGO    R416069  12.045   4.899   6.539 -0.0039 -0.0245 -0.0653
 1134ERGO    R516070  11.921   4.768   6.417 -0.0362 -0.0088 -0.0551
 1134ERGO    C116071  11.696   4.806   6.723  0.0023  0.0208 -0.0279
 1134ERGO    C216072  11.497   4.916   6.957 -0.4171  0.1514 -0.1474
 1135ERGO   ROH16073   2.469  17.382   5.919  0.0486 -0.3022  0.2220
 1135ERGO    R116074   2.499  17.629   6.054  0.1684 -0.2328  0.0705
 1135ERGO    R216075   2.309  17.728   6.228  0.1617  0.0222 -0.0746
 1135ERGO    R316076   2.520  17.741   6.399  0.0989 -0.0188  0.0062
 1135ERGO    R416077   2.344  17.961   6.480  0.1963  0.1269 -0.1758
 1135ERGO    R516078   2.555  17.976   6.431  0.2257 -0.0238 -0.0957
 1135ERGO    C116079   2.562  18.110   6.788  0.1575  0.1498 -0.1589
 1135ERGO    C216080   2.499  18.253   7.019 -0.2290  0.0463 -0.1582
 1136ERGO   ROH16081   8.789   1.012   6.718 -0.1563  0.0117 -0.0610
 1136ERGO    R116082   8.733   1.184   6.936 -0.1605 -0.1000  0.0265
 1136ERGO    R216083   8.630   1.093   7.175 -0.0559 -0.2400  0.0184
 1136ERGO    R316084   8.845   1.220   7.280 -0.0747 -0.1992  0.0092
 1136ERGO    R416085   8.662   1.187   7.506 -0.0181 -0.3096  0.0355
 1136ERGO    R516086   8.753   1.373   7.439 -0.0888 -0.2660  0.0645
 1136ERGO    C116087   8.883   1.362   7.797 -0.0136 -0.3117  0.0369
 1136ERGO    C216088   8.958   1.552   8.158 -0.2422  0.5780 -0.0771
 1137ERGO   ROH16089   6.668  12.926   6.690 -0.0828  0.0153 -0.1105
 1137ERGO    R116090   6.736  13.017   6.950 -0.1178 -0.1739 -0.0344
 1137ERGO    R216091   6.924  12.890   7.107  0.0391 -0.1470 -0.2027
 1137ERGO    R316092   7.035  13.137   7.118 -0.1991 -0.0441  0.0218
 1137ERGO    R416093   7.107  13.013   7.373  0.2276 -0.3621 -0.2292
 1137ERGO    R516094   7.008  13.205   7.346 -0.0060 -0.4085  0.1655
 1137ERGO    C116095   7.318  13.317   7.538  0.1137 -0.3909 -0.0338
 1137ERGO    C216096   7.416  13.304   7.701  0.3586 -0.0381 -0.1645
 1138ERGO   ROH16097   5.006  10.408   5.839 -0.0245 -0.0125 -0.0513
 1138ERGO    R116098   5.002  10.207   6.038  0.0516  0.0672  0.0304
 1138ERGO    R216099   5.227  10.064   6.111  0.0544  0.0263 -0.0751
 1138ERGO    R316100   5.162  10.150   6.360  0.2604  0.1393 -0.0575
 1138ERGO    R416101   5.344   9.924   6.404 -0.2011 -0.2702 -0.1088
 1138ERGO    R516102   5.145   9.949   6.490 -0.1528  0.1447 -0.0835
 1138ERGO    C116103   5.351   9.923   6.809 -0.1565 -0.3367 -0.1121
 1138ERGO    C216104   5.356   9.826   7.153  0.0567  0.2244 -0.2183
 1139ERGO   ROH16105   1.211  17.823   5.843 -0.0455 -0.1519  0.2067
 1139ERGO    R116106   1.387  17.962   6.015 -0.0319  0.1204 -0.0225
 1139ERGO    R216107   1.308  18.182   6.163 -0.1989 -0.0345  0.1201
 1139ERGO    R316108   1.406  18.037   6.371  0.3467  0.0935 -0.0327
 1139ERGO    R416109   1.309  18.286   6.492 -0.2294 -0.2127  0.1778
 1139ERGO    R516110   1.509  18.200   6.513  0.0294  0.2944 -0.0231
 1139ERGO    C116111   1.402  18.211   6.880  0.2651 -0.1965  0.0680
 1139ERGO    C216112   1.395  18.029   7.153  0.1251  0.1955  0.1275
 1140ERGO   ROH16113  10.369   8.329   6.285 -0.1158  0.0685 -0.2287
 1140ERGO    R116114  10.275   8.199   6.518  0.1002  0.1164 -0.1133
 1140ERGO    R216115  10.370   8.260   6.771  0.1585  0.3426 -0.1877
 1140ERGO    R316116  10.106   8.296   6.826  0.1482  0.1412 -0.0948
 1140ERGO    R416117  10.239   8.308   7.087  0.2300  0.2364 -0.1415
 1140ERGO    R516118  10.072   8.179   7.032  0.3079  0.1103 -0.0853
 1140ERGO    C116119   9.915   8.369   7.323  0.2619 -0.0146 -0.0274
 1140ERGO    C216120   9.863   8.648   7.509 -0.1771 -0.3894  0.0624
 1141ERGO   ROH16121  17.288  14.607   6.318 -0.1362  0.0338 -0.0194
 1141ERGO    R116122  17.333  14.586   6.597  0.0215 -0.0222 -0.0485
 1141ERGO    R216123  17.520  14.742   6.729 -0.0644  0.1127 -0.0877
 1141ERGO    R316124  17.307  14.806   6.886 -0.0515 -0.1497  0.0440
 1141ERGO    R416125  17.540  14.902   7.035 -0.0677  0.1462 -0.1050
 1141ERGO    R516126  17.385  14.769   7.109  0.1394 -0.0515 -0.0019
 1141ERGO    C116127  17.353  15.055   7.359 -0.0575 -0.0807  0.0087
 1141ERGO    C216128  17.275  15.138   7.614  0.2213  0.1964 -0.3948
 1142ERGO   ROH16129  11.484  16.335   6.109  0.3470  0.1726 -0.2265
 1142ERGO    R116130  11.658  16.162   6.250  0.1815  0.0999 -0.1089
 1142ERGO    R216131  11.931  16.205   6.264  0.1870 -0.0109  0.0772
 1142ERGO    R316132  11.887  16.190   6.532  0.0035  0.0002  0.0499
 1142ERGO    R416133  12.105  16.000   6.481  0.1063  0.0588  0.2092
 1142ERGO    R516134  11.917  15.958   6.584  0.0413  0.0084  0.0850
 1142ERGO    C116135  12.165  15.867   6.859 -0.1128  0.1099  0.2605
 1142ERGO    C216136  12.403  15.677   6.834 -0.2806 -0.1840  0.1853
 1143ERGO   ROH16137   4.388   4.116   9.998  0.2995  0.2883  0.0347
 1143ERGO    R116138   4.490   4.157   9.737  0.2597  0.0947 -0.0136
 1143ERGO    R216139   4.597   3.953   9.585  0.1319 -0.0434  0.0740
 1143ERGO    R316140   4.416   4.037   9.401  0.1258 -0.0620  0.0717
 1143ERGO    R416141   4.646   3.947   9.243  0.2036  0.1306  0.0802
 1143ERGO    R516142   4.548   4.141   9.231  0.1029  0.0819  0.1433
 1143ERGO    C116143   4.504   4.022   8.871  0.2394  0.2144  0.0816
 1143ERGO    C216144   4.519   3.916   8.533 -0.2442 -0.1815 -0.0169
 1144ERGO   ROH16145   2.554   8.935   6.276 -0.0136 -0.4280 -0.0343
 1144ERGO    R116146   2.487   9.050   6.525 -0.0214 -0.3021 -0.0940
 1144ERGO    R216147   2.329   8.921   6.711  0.0353 -0.2404 -0.0034
 1144ERGO    R316148   2.539   8.969   6.876  0.0379 -0.0828 -0.0507
 1144ERGO    R416149   2.302   9.034   7.036  0.0263 -0.2050 -0.0160
 1144ERGO    R516150   2.474   9.163   7.000 -0.0602 -0.1028 -0.0695
 1144ERGO    C116151   2.484   9.145   7.381  0.0235 -0.0365 -0.0678
 1144ERGO    C216152   2.438   8.985   7.733  0.0217 -0.2371 -0.3171
 1145ERGO   ROH16153   9.520   0.519   6.798  0.0778  0.2230  0.0837
 1145ERGO    R116154   9.396   0.537   7.052  0.0892  0.3362  0.0821
 1145ERGO    R216155   9.326   0.314   7.199 -0.2996  0.3899 -0.0078
 1145ERGO    R316156   9.474   0.436   7.392 -0.1008  0.0686  0.0492
 1145ERGO    R416157   9.228   0.353   7.528 -0.2187  0.3586  0.0200
 1145ERGO    R516158   9.313   0.553   7.525  0.0808  0.2383  0.1235
 1145ERGO    C116159   9.310   0.489   7.901  0.0150  0.0386  0.0896
 1145ERGO    C216160   9.444   0.722   8.080 -0.1503 -0.2654  0.0975
 1146ERGO   ROH16161   3.874  12.750   9.202  0.0865  0.1714 -0.1150
 1146ERGO    R116162   3.887  12.874   8.948  0.1470  0.1060 -0.1436
 1146ERGO    R216163   4.125  12.915   8.814  0.1613 -0.0571 -0.1585
 1146ERGO    R316164   3.999  12.783   8.614  0.0852 -0.0292 -0.1303
 1146ERGO    R416165   4.190  12.959   8.478  0.0927 -0.0432 -0.1704
 1146ERGO    R516166   3.975  12.946   8.440  0.0713 -0.0063 -0.1160
 1146ERGO    C116167   4.109  12.860   8.093 -0.0187 -0.0089 -0.1507
 1146ERGO    C216168   4.287  12.832   7.726 -0.2296 -0.0642  0.1411
 1147ERGO   ROH16169   1.735  12.312   5.891 -0.1995 -0.0059 -0.0443
 1147ERGO    R116170   1.847  12.273   6.148 -0.1136  0.0535 -0.0723
 1147ERGO    R216171   1.802  12.447   6.358 -0.1889  0.0066 -0.0492
 1147ERGO    R316172   1.722  12.220   6.485 -0.0013 -0.0600 -0.0476
 1147ERGO    R416173   1.830  12.391   6.698 -0.1123  0.0190 -0.0535
 1147ERGO    R516174   1.888  12.186   6.654  0.0433  0.0640 -0.0648
 1147ERGO    C116175   1.772  12.146   7.015  0.1085 -0.0364 -0.0544
 1147ERGO    C216176   1.747  11.983   7.267 -0.0276 -0.3086  0.2184
 1148ERGO   ROH16177   0.538   7.760   6.037  0.0508 -0.2317 -0.0759
 1148ERGO    R116178   0.533   7.839   6.309  0.2805 -0.1931 -0.0813
 1148ERGO    R216179   0.337   7.756   6.485  0.1559  0.2127 -0.0219
 1148ERGO    R316180   0.549   7.674   6.633  0.0377 -0.1988 -0.0696
 1148ERGO    R416181   0.328   7.696   6.825  0.2046  0.6849  0.0693
 1148ERGO    R516182   0.525   7.790   6.841  0.5013  0.1610 -0.1958
 1148ERGO    C116183   0.522   7.584   7.162  0.1220  0.5735  0.0775
 1148ERGO    C216184   0.557   7.593   7.523 -0.0418 -0.1793  0.0871
 1149ERGO   ROH16185   7.002  10.381   9.643 -0.0325 -0.0900  0.0257
 1149ERGO    R116186   6.873  10.397   9.392  0.0081 -0.1062  0.0042
 1149ERGO    R216187   7.004  10.479   9.162  0.0759 -0.2378 -0.0021
 1149ERGO    R316188   6.911  10.243   9.065 -0.0224 -0.2240  0.0553
 1149ERGO    R416189   6.953  10.409   8.828  0.0443 -0.2950  0.0139
 1149ERGO    R516190   6.770  10.305   8.882  0.0003 -0.2078  0.0415
 1149ERGO    C116191   6.836  10.148   8.541 -0.0664 -0.3156  0.0771
 1149ERGO    C216192   6.966  10.108   8.192 -0.0101 -0.0475 -0.0894
 1150ERGO   ROH16193  10.782  18.779   6.417  0.2157 -0.0321  0.1330
 1150ERGO    R116194  10.595  18.845   6.619  0.3302  0.0531  0.2124
 1150ERGO    R216195  10.398  18.670   6.701  0.1166  0.2412  0.1031
 1150ERGO    R316196  10.504  18.716   6.947  0.2148 -0.0878  0.1272
 1150ERGO    R416197  10.227  18.637   7.000  0.1032  0.2479  0.0963
 1150ERGO    R516198  10.326  18.818   7.071  0.3628  0.0658  0.2225
 1150ERGO    C116199  10.228  18.661   7.405  0.1877 -0.0571  0.1150
 1150ERGO    C216200  10.129  18.525   7.720 -0.1466  0.1524 -0.0553
 1151ERGO   ROH16201   3.692   5.777   6.329  0.0699 -0.0833 -0.0496
 1151ERGO    R116202   3.501   5.768   6.538  0.0726 -0.0043 -0.0435
 1151ERGO    R216203   3.571   5.727   6.802  0.0662 -0.0082 -0.0436
 1151ERGO    R316204   3.431   5.957   6.841  0.1433  0.0412 -0.0547
 1151ERGO    R416205   3.421   5.818   7.100  0.1547  0.0865 -0.0272
 1151ERGO    R516206   3.251   5.892   6.985  0.1525  0.1184 -0.0062
 1151ERGO    C116207   3.202   6.086   7.310  0.2785  0.1881 -0.0281
 1151ERGO    C216208   3.371   6.317   7.498 -0.0456 -0.0098 -0.0153
 1152ERGO   ROH16209  12.692   2.007   5.666  0.0089  0.0542  0.0579
 1152ERGO    R116210  12.805   1.970   5.922  0.0404  0.0065  0.0378
 1152ERGO    R216211  12.997   1.778   5.974  0.1647  0.1005 -0.0564
 1152ERGO    R316212  13.137   1.990   6.071  0.0338  0.1463  0.0342
 1152ERGO    R416213  13.195   1.771   6.257 -0.0167  0.1687  0.0738
 1152ERGO    R516214  13.120   1.969   6.309 -0.1142  0.1439  0.0231
 1152ERGO    C116215  13.442   1.965   6.513 -0.2453  0.2513  0.2346
 1152ERGO    C216216  13.604   1.650   6.606 -0.0372  0.0293 -0.0891
 1153ERGO   ROH16217  18.235  14.237   6.257  0.0094  0.0678  0.0405
 1153ERGO    R116218  18.276  14.051   6.467 -0.1106  0.0718  0.0688
 1153ERGO    R216219  18.506  14.047   6.620 -0.0766 -0.1019  0.0206
 1153ERGO    R316220  18.329  14.065   6.826 -0.0198  0.0984  0.0536
 1153ERGO    R416221  18.588  14.012   6.954 -0.0428 -0.0895  0.0133
 1153ERGO    R516222  18.404  13.899   6.982 -0.1315  0.0750  0.0791
 1153ERGO    C116223  18.470  14.008   7.342  0.0304  0.1060  0.0401
 1153ERGO    C216224  18.652  13.901   7.551  0.0518 -0.0308 -0.2530
 1154ERGO   ROH16225  14.691   2.567   6.014  0.2354 -0.0086 -0.1054
 1154ERGO    R116226  14.735   2.592   6.293  0.2896 -0.2083 -0.0942
 1154ERGO    R216227  14.986   2.625   6.401  0.2802  0.0819 -0.1517
 1154ERGO    R316228  14.872   2.843   6.517 -0.0273 -0.2015  0.0975
 1154ERGO    R416229  15.138   2.824   6.640  0.1546  0.2431 -0.2038
 1154ERGO    R516230  14.947   2.835   6.745  0.2367 -0.1922  0.0137
 1154ERGO    C116231  15.119   3.143   6.889 -0.2072  0.0709 -0.0002
 1154ERGO    C216232  15.413   3.296   6.805 -0.0215 -0.1380  0.1126
 1155ERGO   ROH16233   1.546   7.627   6.139  0.0959  0.1102 -0.0982
 1155ERGO    R116234   1.624   7.809   6.342  0.0584  0.0930 -0.0682
 1155ERGO    R216235   1.446   7.984   6.461  0.0171  0.0205 -0.0225
 1155ERGO    R316236   1.538   7.870   6.690  0.0642  0.0016 -0.0507
 1155ERGO    R416237   1.399   8.112   6.779  0.0415 -0.0309  0.0019
 1155ERGO    R516238   1.604   8.055   6.827  0.0561 -0.0084 -0.0335
 1155ERGO    C116239   1.458   8.079   7.179  0.0998 -0.0788 -0.0103
 1155ERGO    C216240   1.225   8.210   7.485 -0.1432  0.0401 -0.3574
 1156ERGO   ROH16241   5.681  15.052   5.856  0.0793 -0.0918  0.0642
 1156ERGO    R116242   5.728  14.981   6.126  0.1422  0.1305  0.1133
 1156ERGO    R216243   5.707  15.163   6.334 -0.1094  0.2339  0.0013
 1156ERGO    R316244   5.537  14.978   6.436  0.1121  0.0761  0.0944
 1156ERGO    R416245   5.627  15.130   6.668 -0.1804  0.4037  0.0022
 1156ERGO    R516246   5.635  14.914   6.644  0.1316  0.3881  0.1858
 1156ERGO    C116247   5.420  14.937   6.959 -0.0138  0.3544  0.0900
 1156ERGO    C216248   5.438  15.005   7.330 -0.0591  0.2553 -0.1372
 1157ERGO   ROH16249   8.288  12.796   5.885  0.0003 -0.2483  0.0219
 1157ERGO    R116250   8.421  12.704   6.118  0.2130 -0.1131 -0.0428
 1157ERGO    R216251   8.561  12.873   6.286 -0.0396  0.0696 -0.0106
 1157ERGO    R316252   8.399  12.766   6.476  0.1821 -0.2881 -0.0130
 1157ERGO    R416253   8.660  12.790   6.606  0.1171  0.4080  0.0325
 1157ERGO    R516254   8.539  12.610   6.592  0.5627  0.0855  0.0587
 1157ERGO    C116255   8.566  12.642   6.971  0.4166  0.2693  0.0554
 1157ERGO    C216256   8.554  12.474   7.236 -0.0618 -0.1510  0.1425
 1158ERGO   ROH16257  14.481  12.175   6.067 -0.2179 -0.1459 -0.2253
 1158ERGO    R116258  14.375  12.380   6.230 -0.0242  0.0124 -0.2948
 1158ERGO    R216259  14.193  12.566   6.136 -0.1906 -0.1217 -0.2433
 1158ERGO    R316260  14.045  12.481   6.348  0.1194  0.0782  0.0619
 1158ERGO    R416261  13.908  12.722   6.253 -0.1785 -0.1686 -0.1511
 1158ERGO    R516262  13.976  12.683   6.456  0.0900  0.1916 -0.1631
 1158ERGO    C116263  13.603  12.733   6.520  0.1194 -0.0082  0.1891
 1158ERGO    C216264  13.271  12.989   6.604 -0.0320  0.0423 -0.0715
 1159ERGO   ROH16265  15.431   0.546   9.084  0.1066  0.0199 -0.0699
 1159ERGO    R116266  15.474   0.435   8.827 -0.0059  0.0571 -0.1051
 1159ERGO    R216267  15.266   0.376   8.654 -0.0722  0.2430 -0.0915
 1159ERGO    R316268  15.408   0.532   8.482  0.0102  0.1922 -0.0703
 1159ERGO    R416269  15.227   0.378   8.311 -0.0988  0.3418 -0.0883
 1159ERGO    R516270  15.443   0.393   8.291 -0.0916  0.2118 -0.1032
 1159ERGO    C116271  15.337   0.526   7.950 -0.0370  0.3518 -0.0666
 1159ERGO    C216272  15.154   0.479   7.650 -0.0259  0.1110  0.0674
 1160ERGO   ROH16273   1.464   3.648   6.048 -0.0657  0.0269 -0.0989
 1160ERGO    R116274   1.470   3.737   6.316  0.0604  0.0517 -0.1097
 1160ERGO    R216275   1.311   3.627   6.513 -0.0973  0.2979 -0.0978
 1160ERGO    R316276   1.548   3.593   6.641 -0.1414 -0.0224 -0.0917
 1160ERGO    R416277   1.345   3.536   6.845 -0.2393  0.4515 -0.0399
 1160ERGO    R516278   1.509   3.679   6.862  0.0092  0.1901 -0.1422
 1160ERGO    C116279   1.587   3.452   7.159 -0.3635  0.2402 -0.0005
 1160ERGO    C216280   1.646   3.219   7.337 -0.0523  0.3845  0.1304
 1161ERGO   ROH16281   4.072  11.455   6.139  0.0369  0.0807  0.0383
 1161ERGO    R116282   4.151  11.461   6.411 -0.0897  0.0446  0.0762
 1161ERGO    R216283   3.976  11.526   6.615 -0.2339 -0.1736  0.0222
 1161ERGO    R316284   4.059  11.288   6.717 -0.0855 -0.1448 -0.0277
 1161ERGO    R416285   4.004  11.453   6.952 -0.3298 -0.2679  0.0106
 1161ERGO    R516286   4.189  11.347   6.909 -0.2194 -0.1034  0.0540
 1161ERGO    C116287   4.098  11.188   7.243 -0.2463 -0.2957 -0.0430
 1161ERGO    C216288   3.840  11.164   7.564 -0.0751  0.3195 -0.3976
 1162ERGO   ROH16289   5.284   6.428   6.432  0.2427  0.0419 -0.0796
 1162ERGO    R116290   5.394   6.301   6.660  0.1510  0.0506 -0.0306
 1162ERGO    R216291   5.386   6.414   6.911  0.1072  0.0890 -0.0519
 1162ERGO    R316292   5.272   6.177   6.980  0.0358  0.1246 -0.0450
 1162ERGO    R416293   5.356   6.298   7.235  0.2795  0.0067 -0.0635
 1162ERGO    R516294   5.406   6.097   7.162  0.1281  0.0010 -0.1632
 1162ERGO    C116295   5.231   6.007   7.488  0.3128 -0.0078 -0.0639
 1162ERGO    C216296   5.183   5.874   7.842  0.0461  0.0115  0.0437
 1163ERGO   ROH16297  16.748   3.716   9.298  0.2312  0.1994 -0.1347
 1163ERGO    R116298  16.582   3.622   9.088  0.0981  0.2135 -0.0363
 1163ERGO    R216299  16.629   3.683   8.823 -0.0061  0.1392 -0.0701
 1163ERGO    R316300  16.621   3.413   8.794 -0.1182  0.1352 -0.0123
 1163ERGO    R416301  16.595   3.518   8.521  0.1053  0.0939 -0.0582
 1163ERGO    R516302  16.461   3.376   8.619 -0.0288  0.1782 -0.1081
 1163ERGO    C116303  16.568   3.168   8.318  0.0647  0.0639  0.0030
 1163ERGO    C216304  16.392   2.888   8.047 -0.0871  0.1072  0.2069
 1164ERGO   ROH16305   8.472   7.523   6.569  0.0407 -0.1655  0.3243
 1164ERGO    R116306   8.468   7.727   6.765  0.0509 -0.0489  0.2045
 1164ERGO    R216307   8.402   7.680   7.029 -0.0024  0.1194  0.2244
 1164ERGO    R316308   8.642   7.798   7.077  0.0147  0.0974  0.1919
 1164ERGO    R416309   8.494   7.822   7.330  0.0658  0.0818  0.2212
 1164ERGO    R516310   8.589   7.984   7.218  0.0557  0.0858  0.2212
 1164ERGO    C116311   8.773   8.017   7.550  0.1217  0.0391  0.1889
 1164ERGO    C216312   8.755   8.085   7.879  0.2197  0.1442  0.2099
 1165ERGO   ROH16313  14.797   7.764   5.975 -0.0699 -0.3271 -0.0299
 1165ERGO    R116314  14.877   7.904   6.207 -0.0447 -0.2658 -0.0756
 1165ERGO    R216315  14.730   8.114   6.313  0.0138 -0.1801 -0.1664
 1165ERGO    R316316  14.741   7.964   6.540 -0.0531 -0.0977 -0.1076
 1165ERGO    R416317  14.651   8.227   6.630  0.0044 -0.0358 -0.2196
 1165ERGO    R516318  14.820   8.115   6.707 -0.0329 -0.0523 -0.1559
 1165ERGO    C116319  14.615   8.153   7.027 -0.0639  0.1257 -0.1954
 1165ERGO    C216320  14.532   8.206   7.547 -0.4148  0.0951  0.1821
 1166ERGO   ROH16321  15.086   3.183   8.826 -0.1439 -0.0679 -0.0495
 1166ERGO    R116322  14.917   3.258   8.612 -0.0004 -0.0523 -0.1583
 1166ERGO    R216323  15.013   3.379   8.383  0.1811 -0.2213 -0.1733
 1166ERGO    R316324  14.884   3.174   8.260  0.0972 -0.1917 -0.1354
 1166ERGO    R416325  14.993   3.336   8.040  0.1356 -0.2562 -0.1664
 1166ERGO    R516326  14.785   3.274   8.066  0.1150 -0.1800 -0.1393
 1166ERGO    C116327  14.859   3.119   7.725  0.0304 -0.2487 -0.1266
 1166ERGO    C216328  14.827   2.986   7.357 -0.4146  0.3965  0.2597
 1167ERGO   ROH16329   9.508  12.972   5.750  0.2217 -0.2969 -0.0443
 1167ERGO    R116330   9.668  12.963   5.983  0.2644 -0.3375 -0.0759
 1167ERGO    R216331   9.561  12.974   6.238  0.3283 -0.1534 -0.0607
 1167ERGO    R316332   9.702  12.744   6.272  0.1516 -0.2552  0.0024
 1167ERGO    R416333   9.688  12.862   6.539  0.4210 -0.0489 -0.0595
 1167ERGO    R516334   9.868  12.799   6.435  0.3063 -0.2783 -0.1386
 1167ERGO    C116335   9.894  12.580   6.746  0.3089 -0.0836  0.0004
 1167ERGO    C216336  10.049  12.450   6.903 -0.0564 -0.0204  0.1121
 1168ERGO   ROH16337   2.311  11.209   7.470  0.0354  0.3380  0.3170
 1168ERGO    R116338   2.074  11.065   7.530  0.0253  0.1738 -0.0798
 1168ERGO    R216339   1.905  11.136   7.737 -0.1306 -0.2202 -0.0525
 1168ERGO    R316340   1.717  11.137   7.541  0.0048  0.0777 -0.1849
 1168ERGO    R416341   1.564  11.147   7.791 -0.1639  0.0109 -0.3011
 1168ERGO    R516342   1.539  11.003   7.629 -0.1672  0.1580 -0.4206
 1168ERGO    C116343   1.189  11.155   7.638 -0.0563  0.4251 -0.5702
 1168ERGO    C216344   0.919  11.251   7.643 -0.1956 -0.1164  0.1655
 1169ERGO   ROH16345   1.327  11.953   5.876 -0.4503 -0.0483 -0.0210
 1169ERGO    R116346   1.432  12.002   6.134 -0.2964 -0.0151 -0.0894
 1169ERGO    R216347   1.297  12.148   6.325 -0.1828  0.0089 -0.0277
 1169ERGO    R316348   1.338  11.927   6.477 -0.0919  0.0291 -0.0216
 1169ERGO    R416349   1.223  12.125   6.662 -0.1919 -0.0179 -0.0311
 1169ERGO    R516350   1.409  12.014   6.689 -0.1425  0.0655 -0.0187
 1169ERGO    C116351   1.219  11.904   7.001 -0.1119 -0.0146 -0.0276
 1169ERGO    C216352   1.257  12.092   7.209 -0.3753 -0.2649 -0.1380
 1170ERGO   ROH16353  15.909  11.115   5.760  0.1789 -0.0600 -0.0944
 1170ERGO    R116354  15.852  11.125   6.037  0.1022 -0.0146 -0.1090
 1170ERGO    R216355  15.957  10.943   6.218  0.0635  0.0142 -0.0402
 1170ERGO    R316356  16.043  11.168   6.344  0.0217  0.0438 -0.0701
 1170ERGO    R416357  15.997  10.975   6.559  0.0473  0.0864 -0.0473
 1170ERGO    R516358  15.914  11.176   6.545  0.0212  0.0619 -0.0805
 1170ERGO    C116359  16.101  11.205   6.877 -0.0014  0.1562 -0.0795
 1170ERGO    C216360  16.427  11.264   6.937 -0.1132 -0.0689 -0.3576
 1171ERGO   ROH16361  17.769  18.240   6.234 -0.2765  0.0384  0.0291
 1171ERGO    R116362  17.597  18.284   6.454 -0.1962 -0.0785  0.1173
 1171ERGO    R216363  17.621  18.144   6.691  0.0646 -0.0148  0.1355
 1171ERGO    R316364  17.632  18.393   6.799 -0.1018  0.0190  0.0764
 1171ERGO    R416365  17.543  18.222   7.019 -0.1236  0.0405  0.0785
 1171ERGO    R516366  17.445  18.403   6.948 -0.1739 -0.0259 -0.0138
 1171ERGO    C116367  17.508  18.501   7.311 -0.3896  0.1044 -0.0103
 1171ERGO    C216368  17.661  18.653   7.547  0.1112  0.0945  0.0194
 1172ERGO   ROH16369   0.515  17.192   5.887 -0.0167  0.0694 -0.0005
 1172ERGO    R116370   0.368  17.128   6.120 -0.0263  0.0441 -0.0137
 1172ERGO    R216371   0.470  16.967   6.321 -0.0377  0.0164 -0.0308
 1172ERGO    R316372   0.405  17.179   6.478 -0.0375 -0.0022 -0.0057
 1172ERGO    R416373   0.343  16.945   6.642  0.1314 -0.0210  0.0344
 1172ERGO    R516374   0.209  17.109   6.595  0.0464 -0.0720  0.0957
 1172ERGO    C116375   0.209  17.130   6.976  0.2301 -0.0604  0.0960
 1172ERGO    C216376   0.155  16.958   7.223  0.0968 -0.1459 -0.1162
 1173ERGO   ROH16377  17.765  15.657   6.147 -0.1287 -0.1138 -0.1875
 1173ERGO    R116378  17.560  15.659   6.342 -0.0869  0.0277 -0.1440
 1173ERGO    R216379  17.612  15.667   6.613 -0.0239 -0.0017 -0.1575
 1173ERGO    R316380  17.446  15.883   6.606  0.1171  0.1093 -0.1231
 1173ERGO    R416381  17.471  15.816   6.891 -0.0569 -0.0607 -0.1421
 1173ERGO    R516382  17.285  15.840   6.778  0.0073  0.1181 -0.2197
 1173ERGO    C116383  17.234  16.106   7.047  0.0559  0.0091 -0.1009
 1173ERGO    C216384  17.224  16.191   7.408  0.1474  0.1030  0.1785
 1174ERGO   ROH16385  17.073  10.090   5.968  0.0069 -0.0148 -0.1396
 1174ERGO    R116386  17.266  10.241   6.110 -0.0792  0.0387 -0.0763
 1174ERGO    R216387  17.198  10.448   6.280 -0.1976 -0.0399 -0.0165
 1174ERGO    R316388  17.346  10.306   6.459 -0.1482 -0.0285 -0.0500
 1174ERGO    R416389  17.341  10.577   6.567 -0.1071 -0.0366 -0.0638
 1174ERGO    R516390  17.518  10.457   6.528 -0.1270 -0.0370 -0.1054
 1174ERGO    C116391  17.564  10.519   6.901 -0.0080 -0.0240 -0.1229
 1174ERGO    C216392  17.814  10.711   7.187 -0.1474  0.2759 -0.1079
 1175ERGO   ROH16393  18.519  12.273   5.915 -0.0259 -0.0308  0.0163
 1175ERGO    R116394  18.331  12.320   6.121 -0.0223 -0.0446  0.0225
 1175ERGO    R216395  18.378  12.248   6.384  0.0726  0.1276  0.0540
 1175ERGO    R316396  18.323  12.510   6.432 -0.0945  0.1187 -0.0777
 1175ERGO    R416397  18.276  12.376   6.689  0.1117  0.2353  0.0227
 1175ERGO    R516398  18.136  12.505   6.582 -0.0277  0.0730  0.0048
 1175ERGO    C116399  18.165  12.696   6.911 -0.0226  0.2896 -0.1190
 1175ERGO    C216400  18.009  12.795   7.122  0.0398 -0.0150 -0.2988
 1176ERGO   ROH16401  15.091   4.672   5.968  0.1747 -0.1089  0.0628
 1176ERGO    R116402  15.039   4.579   6.230  0.2371  0.0949  0.1498
 1176ERGO    R216403  15.061   4.312   6.300 -0.1423  0.0849  0.2471
 1176ERGO    R316404  15.226   4.410   6.493  0.1838 -0.0956  0.0682
 1176ERGO    R416405  15.104   4.171   6.613 -0.2690  0.2517  0.3413
 1176ERGO    R516406  15.106   4.373   6.697  0.2100  0.3312  0.1732
 1176ERGO    C116407  15.283   4.181   6.976 -0.0368  0.1794  0.2282
 1176ERGO    C216408  15.297   3.980   7.247  0.0128  0.0520 -0.0964
 1177ERGO   ROH16409  18.400   5.050   6.023  0.0235  0.0943 -0.0522
 1177ERGO    R116410  18.424   5.244   6.227 -0.0113 -0.0033  0.0453
 1177ERGO    R216411  18.311   5.212   6.477 -0.0499 -0.1250  0.0114
 1177ERGO    R316412  18.564   5.258   6.563 -0.0647 -0.1617  0.0756
 1177ERGO    R416413  18.398   5.286   6.803 -0.1206 -0.1837  0.0441
 1177ERGO    R516414  18.541   5.432   6.727 -0.0884 -0.1835  0.0978
 1177ERGO    C116415  18.688   5.372   7.074 -0.1756 -0.2523  0.1234
 1177ERGO    C216416  18.687   5.281   7.414 -0.1596 -0.0185 -0.2551
 1178ERGO   ROH16417   6.167   0.313   9.934 -0.0640  0.0958  0.0087
 1178ERGO    R116418   6.297   0.330   9.683 -0.1312  0.5218 -0.0041
 1178ERGO    R216419   6.303   0.119   9.505  0.6551  0.4683  0.0566
 1178ERGO    R316420   6.200   0.304   9.334 -0.0728  0.0544  0.0080
 1178ERGO    R416421   6.280   0.080   9.162  0.8105  0.2857  0.0650
 1178ERGO    R516422   6.338   0.289   9.139  0.0116  0.5405  0.0157
 1178ERGO    C116423   6.170   0.230   8.802  0.2176 -0.2092  0.0243
 1178ERGO    C216424   6.218   0.398   8.492 -0.0950 -0.3992  0.0219
 1179ERGO   ROH16425  10.573  12.766   5.706 -0.0196  0.3131  0.0883
 1179ERGO    R116426  10.693  12.887   5.932  0.0524  0.3795  0.0144
 1179ERGO    R216427  10.639  13.147   6.008 -0.2326  0.2723  0.1824
 1179ERGO    R316428  10.579  13.031   6.246  0.1804  0.0834  0.2024
 1179ERGO    R416429  10.630  13.311   6.312 -0.2395  0.1650  0.2409
 1179ERGO    R516430  10.724  13.138   6.403  0.1472  0.2867  0.1030
 1179ERGO    C116431  10.568  13.298   6.713  0.1441 -0.0749  0.2938
 1179ERGO    C216432  10.461  13.385   6.900 -0.3467 -0.1425 -0.3841
 1180ERGO   ROH16433   8.180  10.200   6.377 -0.3225 -0.0792  0.2454
 1180ERGO    R116434   8.159  10.165   6.658  0.0883 -0.2376  0.2639
 1180ERGO    R216435   8.366  10.065   6.811  0.5133  0.1659 -0.0160
 1180ERGO    R316436   8.328  10.293   6.953  0.1602  0.0374  0.1079
 1180ERGO    R416437   8.506  10.131   7.120  0.2903  0.1559  0.0898
 1180ERGO    R516438   8.318  10.221   7.181  0.1450 -0.1161  0.0602
 1180ERGO    C116439   8.553  10.384   7.433 -0.1711  0.0294  0.2677
 1180ERGO    C216440   8.879  10.490   7.636 -0.1309  0.0989 -0.1270
 1181ERGO   ROH16441  15.209   2.352   9.493  0.2892  0.1019 -0.0081
 1181ERGO    R116442  15.312   2.296   9.236  0.0892 -0.1578 -0.0351
 1181ERGO    R216443  15.224   2.082   9.084 -0.3922 -0.0224  0.0381
 1181ERGO    R316444  15.181   2.275   8.897 -0.0778  0.0326  0.0159
 1181ERGO    R416445  15.132   2.022   8.756 -0.5363  0.0908  0.0566
 1181ERGO    R516446  15.267   2.181   8.694 -0.2611 -0.1499  0.0187
 1181ERGO    C116447  15.037   2.168   8.390 -0.3250  0.2085  0.0468
 1181ERGO    C216448  15.052   2.090   8.054  0.1652 -0.0050  0.0082
 1182ERGO   ROH16449  15.217  11.303   9.056 -0.2166 -0.0428  0.0861
 1182ERGO    R116450  15.209  11.197   8.794 -0.3004 -0.1088  0.1136
 1182ERGO    R216451  15.078  11.323   8.587 -0.2101 -0.0631  0.0753
 1182ERGO    R316452  15.319  11.299   8.463 -0.2253 -0.2784  0.0867
 1182ERGO    R416453  15.123  11.309   8.244 -0.1938 -0.0213  0.0771
 1182ERGO    R516454  15.275  11.156   8.276 -0.3551 -0.1834  0.0481
 1182ERGO    C116455  15.375  11.278   7.928 -0.1987 -0.1989  0.0887
 1182ERGO    C216456  15.221  11.468   7.652 -0.3197 -0.2128 -0.0319
 1183ERGO   ROH16457   1.961   6.339   5.842  0.2207 -0.0493  0.0417
 1183ERGO    R116458   1.800   6.219   6.041  0.2656 -0.0305  0.0899
 1183ERGO    R216459   1.843   6.258   6.311  0.1843  0.1831  0.0750
 1183ERGO    R316460   1.582   6.334   6.309  0.1298 -0.0023 -0.0314
 1183ERGO    R416461   1.651   6.310   6.594  0.1084  0.3053  0.0015
 1183ERGO    R516462   1.484   6.213   6.492  0.1905  0.0938  0.0650
 1183ERGO    C116463   1.294   6.412   6.757  0.0131  0.2023 -0.1411
 1183ERGO    C216464   1.244   6.484   7.107 -0.1218  0.1006 -0.1965
 1184ERGO   ROH16465   2.024  18.035   9.291 -0.1316 -0.1086 -0.0541
 1184ERGO    R116466   2.171  17.976   9.056 -0.0801 -0.0636 -0.0346
 1184ERGO    R216467   2.126  17.747   8.906 -0.0051 -0.0702 -0.0570
 1184ERGO    R316468   2.097  17.926   8.704 -0.0162 -0.0623 -0.0469
 1184ERGO    R416469   2.166  17.675   8.571  0.3524  0.0410 -0.0426
 1184ERGO    R516470   2.266  17.866   8.546  0.1768  0.1456  0.0814
 1184ERGO    C116471   2.161  17.800   8.185  0.5502  0.1133 -0.0248
 1184ERGO    C216472   1.985  17.922   7.861 -0.0920  0.5014 -0.0933
 1185ERGO   ROH16473   7.807   4.720   6.805  0.0021 -0.1291 -0.0456
 1185ERGO    R116474   7.948   4.677   7.047 -0.0663 -0.1669 -0.0114
 1185ERGO    R216475   8.097   4.875   7.170 -0.0158 -0.2126  0.0099
 1185ERGO    R316476   7.942   4.812   7.384 -0.0901 -0.1409 -0.0237
 1185ERGO    R416477   8.141   4.999   7.489 -0.0589 -0.2085  0.0138
 1185ERGO    R516478   8.094   4.801   7.568 -0.1466 -0.1812  0.0160
 1185ERGO    C116479   8.020   5.012   7.876 -0.1537 -0.1388 -0.0154
 1185ERGO    C216480   8.087   5.133   8.076  0.1196  0.0904 -0.1315
 1186ERGO   ROH16481   2.458   2.815   5.778 -0.0568  0.0978 -0.1164
 1186ERGO    R116482   2.389   2.820   6.052 -0.3075  0.0053 -0.1751
 1186ERGO    R216483   2.445   3.035   6.217 -0.0815 -0.2125  0.0410
 1186ERGO    R316484   2.178   3.024   6.269 -0.1605  0.2105 -0.2212
 1186ERGO    R416485   2.292   3.168   6.497 -0.0575 -0.3913  0.1402
 1186ERGO    R516486   2.165   2.992   6.505 -0.4196 -0.1770 -0.2761
 1186ERGO    C116487   1.953   3.235   6.708 -0.1176 -0.0983 -0.0482
 1186ERGO    C216488   1.688   3.162   6.775 -0.0726  0.3543  0.1210
 1187ERGO   ROH16489  18.676  17.963   5.774 -0.0984  0.2386 -0.1046
 1187ERGO    R116490  18.570  18.006   6.033 -0.1122  0.0130 -0.0709
 1187ERGO    R216491  18.483  17.800   6.195  0.1740 -0.1572 -0.1303
 1187ERGO    R316492  18.656  17.910   6.373  0.0660 -0.0021 -0.1182
 1187ERGO    R416493  18.457  17.771   6.538  0.2855 -0.3621 -0.1369
 1187ERGO    R516494  18.517  17.980   6.555  0.0029 -0.2800 -0.0514
 1187ERGO    C116495  18.604  17.858   6.906  0.2493 -0.3356 -0.1293
 1187ERGO    C216496  18.729  17.524   7.137 -0.1243 -0.0889  0.0588
 1188ERGO   ROH16497   4.055   2.252   6.527 -0.0054 -0.0566 -0.0704
 1188ERGO    R116498   4.188   2.163   6.761 -0.0344 -0.0723 -0.0600
 1188ERGO    R216499   4.122   2.254   7.014 -0.0278 -0.0464 -0.0676
 1188ERGO    R316500   4.097   1.989   7.067 -0.0842 -0.0389 -0.0558
 1188ERGO    R416501   4.225   2.101   7.306  0.0611 -0.0787 -0.1153
 1188ERGO    R516502   4.297   1.933   7.186 -0.0455 -0.1006 -0.1486
 1188ERGO    C116503   4.261   1.762   7.526  0.0600 -0.0905 -0.1319
 1188ERGO    C216504   4.118   1.598   7.709  0.2345  0.2662  0.5297
 1189ERGO   ROH16505  10.108  17.464   6.456  0.1254 -0.0078  0.1128
 1189ERGO    R116506  10.098  17.304   6.689  0.0597 -0.1045  0.0442
 1189ERGO    R216507  10.308  17.143   6.769  0.0532 -0.1039  0.0593
 1189ERGO    R316508  10.283  17.280   7.002 -0.0574 -0.2039  0.1072
 1189ERGO    R416509  10.392  17.020   7.080  0.2260 -0.1220  0.0067
 1189ERGO    R516510  10.213  17.115   7.161  0.1349 -0.3314  0.0639
 1189ERGO    C116511  10.417  17.077   7.481  0.2229 -0.2261  0.0211
 1189ERGO    C216512  10.352  16.919   7.715 -0.1575  0.1185 -0.3726
 1190ERGO   ROH16513   5.616   4.986   6.409  0.2160 -0.0206  0.0583
 1190ERGO    R116514   5.596   4.809   6.629  0.0557  0.0693  0.1193
 1190ERGO    R216515   5.818   4.703   6.756 -0.0344 -0.1226  0.1334
 1190ERGO    R316516   5.702   4.808   6.978  0.0937  0.0781  0.1060
 1190ERGO    R416517   5.792   4.543   7.061 -0.1952  0.0144  0.1917
 1190ERGO    R516518   5.590   4.623   7.081 -0.1022  0.2388  0.1786
 1190ERGO    C116519   5.667   4.548   7.446 -0.1686  0.2827  0.1999
 1190ERGO    C216520   5.781   4.464   7.771 -0.0235  0.0891 -0.0631
 1191ERGO   ROH16521   2.240  18.543   5.531  0.0922 -0.1112  0.1501
 1191ERGO    R116522   2.268  18.644   5.794  0.0700 -0.1313  0.1608
 1191ERGO    R216523   2.225  18.910   5.857  0.2385 -0.0972  0.1459
 1191ERGO    R316524   2.053  18.806   6.040  0.0956  0.0238  0.0815
 1191ERGO    R416525   2.145  19.058   6.159  0.2145 -0.0342  0.1082
 1191ERGO    R516526   2.151  18.860   6.252  0.0461 -0.0344  0.1181
 1191ERGO    C116527   1.936  19.046   6.506  0.0664  0.1161  0.0259
 1191ERGO    C216528   1.767  19.300   6.754  0.1994 -0.1939  0.1080
 1192ERGO   ROH16529  10.411  15.369   6.169  0.2609  0.2256 -0.0795
 1192ERGO    R116530  10.613  15.235   6.316  0.1904  0.2205  0.0115
 1192ERGO    R216531  10.662  15.286   6.583 -0.0672  0.0720  0.0853
 1192ERGO    R316532  10.628  15.018   6.608  0.0307  0.0386 -0.1117
 1192ERGO    R416533  10.759  15.098   6.857 -0.1411 -0.0617  0.0221
 1192ERGO    R516534  10.825  14.942   6.720  0.0041  0.0518 -0.0479
 1192ERGO    C116535  10.783  14.737   7.039 -0.0923 -0.1707 -0.1997
 1192ERGO    C216536  10.681  14.432   7.234  0.1633  0.1841  0.2700
 1193ERGO   ROH16537  11.042  10.619   6.245 -0.0071  0.2692  0.0478
 1193ERGO    R116538  10.958  10.708   6.501  0.0832  0.1141  0.1330
 1193ERGO    R216539  11.095  10.644   6.733  0.2792  0.1345  0.0266
 1193ERGO    R316540  11.097  10.913   6.767  0.0932  0.1257  0.1185
 1193ERGO    R416541  11.216  10.807   7.012  0.4433  0.1347 -0.0439
 1193ERGO    R516542  11.048  10.944   7.000  0.3137  0.0023  0.1833
 1193ERGO    C116543  11.289  11.154   7.207  0.3643  0.1264  0.0013
 1193ERGO    C216544  11.421  11.312   7.447 -0.0903 -0.1341 -0.1638
 1194ERGO   ROH16545   1.675   2.065   6.066 -0.2483  0.1442  0.0305
 1194ERGO    R116546   1.786   2.133   6.317 -0.0929  0.0363 -0.0059
 1194ERGO    R216547   1.631   2.210   6.533  0.0529  0.2023  0.0529
 1194ERGO    R316548   1.762   2.008   6.658 -0.1107  0.0626 -0.0001
 1194ERGO    R416549   1.734   2.216   6.863  0.3255  0.1417 -0.0306
 1194ERGO    R516550   1.919   2.119   6.801  0.1472 -0.1132 -0.1497
 1194ERGO    C116551   1.918   2.030   7.172  0.3307 -0.0247 -0.1289
 1194ERGO    C216552   2.124   2.003   7.347  0.1136 -0.1274 -0.4257
 1195ERGO   ROH16553  15.651   2.534   5.648  0.2334  0.1248  0.0537
 1195ERGO    R116554  15.752   2.668   5.876  0.1632  0.0404  0.1352
 1195ERGO    R216555  15.587   2.786   6.063  0.1052 -0.0749  0.1553
 1195ERGO    R316556  15.726   2.631   6.237  0.0981 -0.1260  0.1152
 1195ERGO    R416557  15.621   2.849   6.401  0.1141 -0.1493  0.1682
 1195ERGO    R516558  15.829   2.786   6.387  0.1126 -0.1628  0.1478
 1195ERGO    C116559  15.772   2.740   6.761  0.1127 -0.2406  0.1380
 1195ERGO    C216560  15.605   2.749   6.931  0.1807  0.2811  0.0476
 1196ERGO   ROH16561   4.040   8.336   9.877  0.1689  0.1282 -0.0183
 1196ERGO    R116562   4.130   8.366   9.610  0.3098 -0.0582  0.0041
 1196ERGO    R216563   4.227   8.155   9.460 -0.0100 -0.2575  0.0556
 1196ERGO    R316564   4.037   8.235   9.283  0.1756  0.0622 -0.0053
 1196ERGO    R416565   4.229   8.083   9.122 -0.0072 -0.2140  0.0474
 1196ERGO    R516566   4.159   8.286   9.084  0.3226 -0.1010  0.0460
 1196ERGO    C116567   4.051   8.117   8.759  0.1686  0.1117 -0.0143
 1196ERGO    C216568   4.034   8.040   8.393  0.5192 -0.2670 -0.1348
 1197ERGO   ROH16569  12.923   6.120   9.524 -0.1042 -0.0398 -0.0280
 1197ERGO    R116570  12.838   6.177   9.260  0.0534 -0.0199 -0.0753
 1197ERGO    R216571  13.016   6.229   9.055  0.1809 -0.1104  0.0089
 1197ERGO    R316572  12.881   6.029   8.931  0.1553 -0.0606 -0.0437
 1197ERGO    R416573  12.931   6.226   8.720  0.0707  0.0407  0.0344
 1197ERGO    R516574  12.738   6.141   8.775  0.0963  0.0015  0.0560
 1197ERGO    C116575  12.755   6.036   8.408 -0.0174  0.1754 -0.0001
 1197ERGO    C216576  12.743   6.010   8.057 -0.1854 -0.1485 -0.2586
 1198ERGO   ROH16577   6.254   9.596   6.105  0.3142  0.2773  0.0753
 1198ERGO    R116578   6.375   9.572   6.360  0.1222 -0.0829  0.1402
 1198ERGO    R216579   6.384   9.782   6.540  0.5262 -0.1403  0.1960
 1198ERGO    R316580   6.269   9.601   6.707 -0.0107  0.0830  0.0865
 1198ERGO    R416581   6.415   9.783   6.884  0.3765 -0.3408  0.2122
 1198ERGO    R516582   6.432   9.566   6.878 -0.1685 -0.3921  0.1504
 1198ERGO    C116583   6.324   9.614   7.241 -0.2146 -0.2479  0.1189
 1198ERGO    C216584   6.282   9.616   7.648  0.0748 -0.1473  0.1435
 1199ERGO   ROH16585  17.662   4.381   5.833 -0.0366 -0.1504  0.1590
 1199ERGO    R116586  17.658   4.512   6.083  0.1673 -0.0733  0.1248
 1199ERGO    R216587  17.423   4.587   6.208  0.2739  0.2319  0.1586
 1199ERGO    R316588  17.526   4.443   6.415  0.1578  0.1682  0.1717
 1199ERGO    R416589  17.299   4.588   6.531  0.1277  0.1642  0.1028
 1199ERGO    R516590  17.504   4.588   6.605  0.0896  0.1196  0.1977
 1199ERGO    C116591  17.322   4.454   6.913 -0.0665  0.0651  0.0825
 1199ERGO    C216592  17.205   4.525   7.294 -0.0674  0.1603 -0.2948
 1200ERGO   ROH16593  11.756   9.924   5.881  0.1197  0.1714 -0.0485
 1200ERGO    R116594  11.895   9.974   6.123  0.0720  0.3950 -0.0668
 1200ERGO    R216595  11.880  10.217   6.256 -0.4293  0.3207  0.0249
 1200ERGO    R316596  11.806  10.060   6.466 -0.0317  0.0825 -0.0148
 1200ERGO    R416597  11.963  10.276   6.586 -0.3122  0.2748  0.0051
 1200ERGO    R516598  11.995  10.062   6.612  0.0597  0.3167 -0.1357
 1200ERGO    C116599  11.941  10.164   6.975  0.1293  0.0242 -0.0436
 1200ERGO    C216600  11.850  10.244   7.309 -0.2355  0.1112  0.3908
 1201ERGO   ROH16601  14.435   0.015   5.944  0.2808  0.3394 -0.0434
 1201ERGO    R116602  14.486   0.131   6.197  0.2630  0.1676  0.0395
 1201ERGO    R216603  14.362   0.043   6.429  0.1432  0.1028 -0.0523
 1201ERGO    R316604  14.618   0.020   6.518  0.1011 -0.0846  0.0228
 1201ERGO    R416605  14.453  -0.028   6.755 -0.0079  0.1852  0.0091
 1201ERGO    R516606  14.614   0.117   6.736  0.1306  0.0319 -0.0259
 1201ERGO    C116607  14.745  -0.091   7.028 -0.1354  0.0575  0.1153
 1201ERGO    C216608  14.614  -0.318   7.258  0.1156  0.0899 -0.2533
 1202ERGO   ROH16609  14.968  11.618   6.074 -0.0645 -0.0426 -0.0401
 1202ERGO    R116610  15.047  11.526   6.330 -0.0211  0.0099 -0.0349
 1202ERGO    R216611  14.995  11.668   6.562 -0.1218 -0.0190 -0.0413
 1202ERGO    R316612  14.881  11.435   6.640  0.0192 -0.0898 -0.0416
 1202ERGO    R416613  14.873  11.604   6.878  0.0284 -0.1343 -0.0049
 1202ERGO    R516614  14.956  11.404   6.865  0.1208 -0.0947 -0.0738
 1202ERGO    C116615  14.694  11.347   7.136  0.2482 -0.2678  0.0159
 1202ERGO    C216616  14.426  11.190   7.423  0.0477  0.0621  0.0880
 1203ERGO   ROH16617   2.782   3.790   5.587  0.0587  0.0030  0.2158
 1203ERGO    R116618   2.664   3.988   5.752 -0.2221 -0.0671  0.1048
 1203ERGO    R216619   2.414   3.957   5.866 -0.1195 -0.4291  0.2478
 1203ERGO    R316620   2.548   4.010   6.096 -0.0966  0.0073  0.1428
 1203ERGO    R416621   2.267   4.066   6.159 -0.1649 -0.3879  0.2100
 1203ERGO    R516622   2.436   4.201   6.187 -0.3656 -0.0825  0.0094
 1203ERGO    C116623   2.307   4.180   6.545 -0.1698  0.0458  0.0893
 1203ERGO    C216624   2.336   4.171   6.876  0.0669  0.1952  0.0662
 1204ERGO   ROH16625   7.630   1.179   6.909 -0.1569 -0.1763  0.2225
 1204ERGO    R116626   7.395   1.313   6.993 -0.0808 -0.0217  0.1935
 1204ERGO    R216627   7.177   1.180   7.098 -0.1647  0.1251  0.2108
 1204ERGO    R316628   7.210   1.354   7.304 -0.0659  0.1409  0.1818
 1204ERGO    R416629   6.947   1.234   7.350 -0.0540  0.1620  0.3040
 1204ERGO    R516630   6.993   1.447   7.339 -0.0449  0.1578  0.2663
 1204ERGO    C116631   6.845   1.430   7.691  0.1031  0.1982  0.3311
 1204ERGO    C216632   6.719   1.318   8.084 -0.1437 -0.0474  0.2538
 1205ERGO   ROH16633   2.460  17.885   9.516  0.3260 -0.0699  0.3153
 1205ERGO    R116634   2.608  17.761   9.308  0.2602  0.0708  0.1825
 1205ERGO    R216635   2.513  17.543   9.168  0.3329 -0.0095  0.2572
 1205ERGO    R316636   2.563  17.700   8.952  0.0064  0.0476  0.2165
 1205ERGO    R416637   2.537  17.429   8.843  0.3078  0.0038  0.2502
 1205ERGO    R516638   2.704  17.566   8.813  0.1121  0.2268  0.1484
 1205ERGO    C116639   2.599  17.510   8.451 -0.0133  0.0651  0.2081
 1205ERGO    C216640   2.484  17.468   8.152 -0.1220 -0.1838 -0.0129
 1206ERGO   ROH16641  15.020  18.038   6.222  0.0783  0.5509 -0.0304
 1206ERGO    R116642  14.908  17.896   6.439  0.0383  0.2915 -0.2149
 1206ERGO    R216643  15.051  17.835   6.667 -0.0420  0.1468 -0.2015
 1206ERGO    R316644  14.845  17.960   6.792 -0.1635 -0.0670 -0.1816
 1206ERGO    R416645  14.999  17.835   7.009  0.1301  0.3042 -0.1732
 1206ERGO    R516646  14.786  17.812   6.971  0.1418 -0.0338 -0.0486
 1206ERGO    C116647  14.775  17.953   7.325  0.1163  0.1953 -0.1379
 1206ERGO    C216648  14.853  17.934   7.768 -0.0211  0.3270 -0.0684
 1207ERGO   ROH16649   2.118  14.141   6.156  0.1975 -0.1466  0.0917
 1207ERGO    R116650   1.995  14.348   6.306  0.1629 -0.0322 -0.0941
 1207ERGO    R216651   1.998  14.353   6.582 -0.1454  0.0248 -0.0950
 1207ERGO    R316652   2.102  14.602   6.544  0.0592 -0.0469 -0.0288
 1207ERGO    R416653   1.924  14.629   6.776 -0.0660  0.0712 -0.1274
 1207ERGO    R516654   1.920  14.750   6.594  0.1292  0.0829 -0.1323
 1207ERGO    C116655   1.978  15.023   6.854  0.1723  0.0309 -0.0842
 1207ERGO    C216656   1.717  15.066   7.220 -0.1187 -0.0195 -0.0295
 1208ERGO   ROH16657   4.541  18.241   7.828  0.1425  0.0694  0.1961
 1208ERGO    R116658   4.565  18.359   7.572  0.0227  0.1060  0.2011
 1208ERGO    R216659   4.684  18.605   7.531  0.1203  0.0536  0.1665
 1208ERGO    R316660   4.837  18.466   7.355 -0.0727  0.0088  0.0310
 1208ERGO    R416661   4.790  18.725   7.225  0.0137  0.0809  0.1399
 1208ERGO    R516662   4.751  18.528   7.140 -0.1630  0.1306  0.1006
 1208ERGO    C116663   4.995  18.664   6.881 -0.2295  0.0551 -0.0027
 1208ERGO    C216664   5.015  18.802   6.602  0.1414  0.0176  0.0127
 1209ERGO   ROH16665  15.000  10.456   5.806  0.0351  0.1501  0.1788
 1209ERGO    R116666  15.072  10.352   6.059  0.0764  0.0703  0.1351
 1209ERGO    R216667  15.081  10.509   6.287  0.0830 -0.0075  0.1892
 1209ERGO    R316668  14.914  10.318   6.385  0.1172 -0.0624  0.1416
 1209ERGO    R416669  14.986  10.481   6.618 -0.0359 -0.0116  0.1552
 1209ERGO    R516670  15.005  10.265   6.600  0.0542 -0.0066  0.1825
 1209ERGO    C116671  14.774  10.287   6.904 -0.0730 -0.0655  0.0907
 1209ERGO    C216672  14.484  10.363   7.233 -0.1766  0.1439  0.0596
 1210ERGO   ROH16673  17.031  17.391   5.977 -0.1035  0.0130  0.0138
 1210ERGO    R116674  16.965  17.635   6.104 -0.1387  0.0509 -0.0858
 1210ERGO    R216675  16.704  17.714   6.147 -0.1367 -0.1392  0.1846
 1210ERGO    R316676  16.787  17.738   6.404  0.1644  0.1407  0.0722
 1210ERGO    R416677  16.551  17.911   6.386 -0.3037 -0.3976  0.3009
 1210ERGO    R516678  16.749  17.969   6.457 -0.3097  0.0972  0.0205
 1210ERGO    C116679  16.540  18.049   6.767 -0.1182 -0.2851  0.2629
 1210ERGO    C216680  16.572  18.006   7.083  0.4068  0.0920 -0.1957
 1211ERGO   ROH16681   9.378  16.826   6.468  0.1270  0.0801  0.1109
 1211ERGO    R116682   9.137  16.728   6.579  0.0297  0.0984 -0.0798
 1211ERGO    R216683   9.107  16.675   6.849 -0.0710 -0.2499 -0.1501
 1211ERGO    R316684   8.893  16.841   6.824  0.0558 -0.0588  0.0183
 1211ERGO    R416685   8.844  16.694   7.072 -0.0050 -0.1899 -0.0782
 1211ERGO    R516686   8.708  16.712   6.904 -0.0298  0.0391 -0.0304
 1211ERGO    C116687   8.491  16.862   7.180  0.1529  0.0245  0.1217
 1211ERGO    C216688   8.135  16.830   7.186  0.0348 -0.1938 -0.1948
 1212ERGO   ROH16689   9.515  11.502   6.052  0.0551  0.0332  0.0212
 1212ERGO    R116690   9.646  11.470   6.301 -0.1462  0.0231  0.1266
 1212ERGO    R216691   9.898  11.571   6.350 -0.1107 -0.1451  0.2694
 1212ERGO    R316692   9.775  11.689   6.561 -0.1734  0.0182  0.1460
 1212ERGO    R416693  10.060  11.715   6.619 -0.1837  0.0597  0.2079
 1212ERGO    R516694   9.909  11.629   6.750 -0.2249  0.1579  0.2325
 1212ERGO    C116695  10.039  11.909   6.975 -0.2851  0.3322  0.0562
 1212ERGO    C216696  10.103  12.113   7.262 -0.2631 -0.0472 -0.1296
 1213ERGO   ROH16697  17.311   6.445   5.937  0.0423 -0.0759  0.2109
 1213ERGO    R116698  17.362   6.281   6.162 -0.1093 -0.2260  0.1374
 1213ERGO    R216699  17.376   6.381   6.420  0.1544 -0.3232  0.1602
 1213ERGO    R316700  17.188   6.191   6.469 -0.1175 -0.0577  0.1843
 1213ERGO    R416701  17.287   6.269   6.734  0.1881 -0.3384  0.1653
 1213ERGO    R516702  17.277   6.067   6.653 -0.1832 -0.2916  0.0653
 1213ERGO    C116703  17.058   6.025   6.963 -0.0475 -0.0981  0.1909
 1213ERGO    C216704  16.852   5.814   7.080  0.3599 -0.0280 -0.1002
 1214ERGO   ROH16705   1.195  13.625   6.045 -0.1573 -0.4242  0.2485
 1214ERGO    R116706   1.120  13.721   6.300 -0.1733 -0.2425  0.1771
 1214ERGO    R216707   1.279  13.691   6.523 -0.2578 -0.2271  0.2429
 1214ERGO    R316708   1.250  13.960   6.541 -0.0927 -0.1980  0.0894
 1214ERGO    R416709   1.207  13.862   6.815 -0.3151 -0.0305  0.1143
 1214ERGO    R516710   1.073  13.991   6.700 -0.1648  0.0000 -0.0274
 1214ERGO    C116711   1.138  14.215   7.001 -0.1935  0.1114 -0.1047
 1214ERGO    C216712   1.058  14.415   7.232 -0.0078  0.2385  0.1183
 1215ERGO   ROH16713   2.729   7.714   5.980 -0.4600 -0.3701  0.1503
 1215ERGO    R116714   2.915   7.675   6.189 -0.3341 -0.0995  0.0936
 1215ERGO    R216715   2.851   7.715   6.455 -0.2968 -0.1460  0.1123
 1215ERGO    R316716   2.943   7.460   6.482  0.0440 -0.0268  0.1148
 1215ERGO    R416717   2.927   7.564   6.756 -0.2570 -0.1020  0.1240
 1215ERGO    R516718   3.102   7.474   6.662 -0.0753  0.1587  0.2066
 1215ERGO    C116719   3.057   7.237   6.958  0.0861  0.0356  0.1333
 1215ERGO    C216720   2.810   7.011   7.144  0.0312  0.0896  0.0498
 1216ERGO   ROH16721  12.354   3.931   5.954  0.1706 -0.1999 -0.0675
 1216ERGO    R116722  12.346   4.044   6.213  0.0699 -0.1528 -0.0922
 1216ERGO    R216723  12.340   3.890   6.442 -0.0245 -0.1079 -0.0721
 1216ERGO    R316724  12.557   4.040   6.510 -0.0495 -0.0995 -0.0038
 1216ERGO    R416725  12.480   3.904   6.758  0.0784 -0.3799 -0.1019
 1216ERGO    R516726  12.508   4.119   6.731 -0.0041 -0.3346  0.0981
 1216ERGO    C116727  12.764   4.053   7.006  0.1150 -0.5304 -0.0551
 1216ERGO    C216728  12.822   3.863   7.201 -0.1401 -0.3957 -0.2249
 1217ERGO   ROH16729   6.739   7.492   6.722 -0.1488  0.0741 -0.0925
 1217ERGO    R116730   6.823   7.523   6.990 -0.1106  0.0653 -0.1026
 1217ERGO    R216731   6.655   7.616   7.189 -0.0892  0.0464 -0.0689
 1217ERGO    R316732   6.730   7.387   7.314 -0.0566  0.0418 -0.0988
 1217ERGO    R416733   6.549   7.518   7.503 -0.0141  0.0133 -0.0542
 1217ERGO    R516734   6.751   7.448   7.545 -0.0095  0.0190 -0.1019
 1217ERGO    C116735   6.557   7.245   7.803  0.0602 -0.0104 -0.0737
 1217ERGO    C216736   6.468   7.104   8.167 -0.0786 -0.1650 -0.0539
 1218ERGO   ROH16737   2.880   1.137   5.687  0.0493  0.1446  0.0686
 1218ERGO    R116738   2.744   1.172   5.933 -0.1875  0.1945 -0.0671
 1218ERGO    R216739   2.876   1.214   6.172 -0.4014 -0.0505  0.0989
 1218ERGO    R316740   2.714   1.432   6.185 -0.1763  0.1263  0.0061
 1218ERGO    R416741   2.781   1.373   6.464 -0.5031 -0.0379  0.0597
 1218ERGO    R516742   2.581   1.396   6.381 -0.4050  0.2084 -0.1274
 1218ERGO    C116743   2.575   1.670   6.646 -0.3509  0.1355 -0.0502
 1218ERGO    C216744   2.387   1.960   6.914 -0.0359 -0.0729 -0.1595
 1219ERGO   ROH16745  16.356   1.891   9.482  0.1206  0.1909 -0.0789
 1219ERGO    R116746  16.392   1.767   9.229  0.1224  0.1636 -0.0643
 1219ERGO    R216747  16.191   1.626   9.103  0.1516  0.0790 -0.0090
 1219ERGO    R316748  16.245   1.796   8.898  0.0632  0.0618 -0.0482
 1219ERGO    R416749  16.075   1.589   8.779 -0.0198  0.0662  0.0521
 1219ERGO    R516750  16.270   1.654   8.707 -0.0478  0.0441 -0.0530
 1219ERGO    C116751  16.058   1.727   8.399 -0.2028  0.0426  0.0508
 1219ERGO    C216752  15.875   1.739   8.124 -0.0113 -0.0975 -0.2238
 1220ERGO   ROH16753  13.256   8.101   9.554 -0.0661 -0.1360  0.1055
 1220ERGO    R116754  13.039   8.023   9.388 -0.0605 -0.0858  0.0759
 1220ERGO    R216755  12.845   8.200   9.304  0.0159 -0.0356  0.0203
 1220ERGO    R316756  12.915   8.109   9.057  0.0257 -0.0882  0.0410
 1220ERGO    R416757  12.667   8.261   9.014 -0.0343 -0.1768  0.0198
 1220ERGO    R516758  12.706   8.055   8.953  0.0287 -0.1877  0.0776
 1220ERGO    C116759  12.628   8.211   8.614 -0.0543 -0.3084  0.0392
 1220ERGO    C216760  12.405   8.277   8.317 -0.2119  0.3396  0.0851
 1221ERGO   ROH16761   1.208   1.695   9.424 -0.2680  0.2549 -0.0329
 1221ERGO    R116762   1.331   1.762   9.179 -0.1244 -0.0932 -0.0634
 1221ERGO    R216763   1.359   1.582   8.971 -0.3476 -0.2859  0.0615
 1221ERGO    R316764   1.233   1.776   8.828 -0.0493 -0.1975 -0.0868
 1221ERGO    R416765   1.369   1.612   8.627  0.0174 -0.3114  0.0675
 1221ERGO    R516766   1.386   1.828   8.652  0.1640 -0.3292  0.0621
 1221ERGO    C116767   1.258   1.812   8.293  0.5100 -0.2433 -0.0680
 1221ERGO    C216768   1.376   1.783   7.887 -0.3337  0.0178  0.1246
 1222ERGO   ROH16769   9.309  15.829   6.322 -0.1099 -0.0995 -0.0129
 1222ERGO    R116770   9.522  15.869   6.503 -0.1046 -0.0751 -0.0242
 1222ERGO    R216771   9.496  15.826   6.775 -0.1136  0.0171 -0.0098
 1222ERGO    R316772   9.712  15.664   6.737 -0.1395 -0.0303  0.0435
 1222ERGO    R416773   9.698  15.703   7.028 -0.0198  0.2258  0.0189
 1222ERGO    R516774   9.871  15.738   6.900 -0.0685  0.1039 -0.0843
 1222ERGO    C116775  10.017  15.480   7.139  0.0103  0.3030  0.0857
 1222ERGO    C216776  10.107  15.347   7.484 -0.0151  0.2084 -0.0945
 1223ERGO   ROH16777   0.310  14.490   5.932  0.0414  0.1045  0.0102
 1223ERGO    R116778   0.226  14.506   6.202  0.2710  0.2560  0.0760
 1223ERGO    R216779   0.090  14.300   6.327 -0.1658  0.5603  0.1183
 1223ERGO    R316780   0.290  14.322   6.510  0.0343  0.0104 -0.0158
 1223ERGO    R416781   0.064  14.213   6.661 -0.2438  0.7576  0.1652
 1223ERGO    R516782   0.180  14.390   6.711  0.3524  0.4370  0.0308
 1223ERGO    C116783   0.238  14.183   7.026 -0.1013  0.3562  0.0667
 1223ERGO    C216784   0.245  14.131   7.424 -0.0031 -0.1948 -0.0943
 1224ERGO   ROH16785   6.381  18.580   6.247 -0.2605 -0.0042 -0.1520
 1224ERGO    R116786   6.291  18.384   6.430 -0.1797  0.0226 -0.0833
 1224ERGO    R216787   6.462  18.252   6.602 -0.0903 -0.0131 -0.1979
 1224ERGO    R316788   6.288  18.341   6.791  0.0622  0.0339 -0.0787
 1224ERGO    R416789   6.455  18.143   6.930  0.0974 -0.0120 -0.1925
 1224ERGO    R516790   6.237  18.146   6.920  0.0933  0.0497 -0.0452
 1224ERGO    C116791   6.288  18.163   7.298  0.3499  0.0324 -0.0775
 1224ERGO    C216792   6.266  18.159   7.608 -0.2638 -0.1373 -0.1085
 1225ERGO   ROH16793   6.970   6.412   6.849  0.0581 -0.0846 -0.0010
 1225ERGO    R116794   6.872   6.316   7.096 -0.0319 -0.3298 -0.1280
 1225ERGO    R216795   6.895   6.051   7.173  0.4241 -0.3091 -0.1546
 1225ERGO    R316796   7.012   6.159   7.393 -0.0387 -0.0967 -0.0001
 1225ERGO    R416797   6.918   5.896   7.481  0.3244 -0.2695 -0.1271
 1225ERGO    R516798   6.875   6.087   7.575 -0.1387 -0.3454 -0.1714
 1225ERGO    C116799   7.042   5.906   7.866 -0.1681 -0.0469  0.0340
 1225ERGO    C216800   6.989   5.633   7.963  0.1084  0.0587 -0.1709
 1226ERGO   ROH16801   5.821  17.331   5.868  0.0064 -0.1287  0.1042
 1226ERGO    R116802   5.786  17.429   6.131 -0.0529 -0.1095  0.0903
 1226ERGO    R216803   5.640  17.292   6.322 -0.0922 -0.1007  0.0725
 1226ERGO    R316804   5.869  17.318   6.467 -0.1217 -0.0843  0.1146
 1226ERGO    R416805   5.665  17.240   6.663 -0.1676  0.0033  0.0938
 1226ERGO    R516806   5.798  17.413   6.675 -0.1511 -0.0124  0.0687
 1226ERGO    C116807   5.895  17.234   6.998 -0.2392  0.0794  0.1456
 1226ERGO    C216808   6.124  17.171   7.281  0.4528 -0.3922 -0.1848
 1227ERGO   ROH16809  15.212   0.625   5.639  0.1864 -0.2127  0.0301
 1227ERGO    R116810  15.256   0.567   5.913  0.2404 -0.1554  0.0334
 1227ERGO    R216811  15.474   0.663   6.052  0.1199  0.1078  0.0429
 1227ERGO    R316812  15.284   0.756   6.222 -0.0020 -0.1137  0.0325
 1227ERGO    R416813  15.501   0.665   6.396  0.1201  0.1760  0.0430
 1227ERGO    R516814  15.291   0.606   6.408  0.1894 -0.0894  0.0483
 1227ERGO    C116815  15.337   0.754   6.757  0.0056  0.0078  0.0333
 1227ERGO    C216816  15.310   0.794   7.115  0.3296  0.1249 -0.1093
 1228ERGO   ROH16817  10.689   6.602   6.235  0.2376 -0.0818 -0.0699
 1228ERGO    R116818  10.897   6.586   6.427  0.2189 -0.3393 -0.0684
 1228ERGO    R216819  10.882   6.710   6.673  0.4994 -0.0429 -0.1980
 1228ERGO    R316820  10.935   6.460   6.766 -0.0412 -0.0748  0.0651
 1228ERGO    R416821  11.021   6.641   6.981  0.6349  0.0194 -0.2440
 1228ERGO    R516822  11.141   6.485   6.887  0.1579 -0.4246 -0.1771
 1228ERGO    C116823  11.152   6.366   7.249  0.2064  0.0258 -0.0237
 1228ERGO    C216824  11.309   6.429   7.582  0.0625 -0.0717 -0.1900
 1229ERGO   ROH16825  13.171   3.189   9.671 -0.3286  0.0306  0.3865
 1229ERGO    R116826  13.018   3.095   9.452 -0.2344  0.0073  0.3311
 1229ERGO    R216827  12.792   3.226   9.361 -0.0829  0.1009  0.0990
 1229ERGO    R316828  12.923   3.217   9.123  0.0757 -0.1179  0.1900
 1229ERGO    R416829  12.643   3.174   9.053  0.0484  0.2552  0.0066
 1229ERGO    R516830  12.810   3.047   8.998 -0.0787  0.0096  0.1441
 1229ERGO    C116831  12.679   3.135   8.651  0.2737  0.1397  0.0383
 1229ERGO    C216832  12.643   3.161   8.303 -0.0673 -0.0005 -0.1241
 1230ERGO   ROH16833  10.498   3.622   6.538  0.1341 -0.0862 -0.1694
 1230ERGO    R116834  10.617   3.499   6.764  0.0477  0.0018 -0.0750
 1230ERGO    R216835  10.876   3.555   6.845  0.0206  0.0259 -0.0033
 1230ERGO    R316836  10.755   3.609   7.082 -0.0649  0.1277 -0.0688
 1230ERGO    R416837  11.036   3.559   7.151 -0.1309 -0.0454  0.0782
 1230ERGO    R516838  10.862   3.461   7.238 -0.2379  0.0753  0.0014
 1230ERGO    C116839  11.016   3.612   7.552 -0.2995  0.0087  0.0641
 1230ERGO    C216840  11.289   3.589   7.605  0.1707  0.0005 -0.1627
 1231ERGO   ROH16841   3.393   2.922   5.951 -0.0068  0.0429 -0.1898
 1231ERGO    R116842   3.406   2.775   6.192 -0.0608  0.2874 -0.0360
 1231ERGO    R216843   3.637   2.651   6.279 -0.1710  0.1013 -0.0318
 1231ERGO    R316844   3.592   2.795   6.505  0.1282  0.3975 -0.1505
 1231ERGO    R416845   3.773   2.580   6.589 -0.5911 -0.1759  0.0985
 1231ERGO    R516846   3.581   2.631   6.679 -0.5214  0.5032 -0.0555
 1231ERGO    C116847   3.809   2.674   6.981 -0.5549 -0.0593  0.0630
 1231ERGO    C216848   3.786   2.604   7.236  0.0321 -0.1663  0.0242
 1232ERGO   ROH16849   0.672  18.518   6.071  0.0047 -0.0365  0.0023
 1232ERGO    R116850   0.502  18.479   6.294 -0.0730  0.0195 -0.0463
 1232ERGO    R216851   0.597  18.470   6.553 -0.1534  0.0126 -0.0163
 1232ERGO    R316852   0.412  18.665   6.593 -0.1181  0.0612 -0.0858
 1232ERGO    R416853   0.497  18.586   6.863 -0.4571 -0.1701 -0.0417
 1232ERGO    R516854   0.292  18.594   6.788 -0.3716 -0.0312 -0.2705
 1232ERGO    C116855   0.265  18.837   7.081 -0.6009 -0.2310 -0.1218
 1232ERGO    C216856   0.224  19.124   7.271 -0.1206  0.3424 -0.0125
 1233ERGO   ROH16857  11.218  13.049   5.642  0.0907  0.3588 -0.0417
 1233ERGO    R116858  11.241  13.150   5.905  0.2776  0.1861  0.0090
 1233ERGO    R216859  11.115  13.033   6.120  0.0139  0.3400 -0.0716
 1233ERGO    R316860  11.366  13.030   6.225  0.0045 -0.2293 -0.0291
 1233ERGO    R416861  11.186  13.044   6.459 -0.0537  0.8650 -0.0631
 1233ERGO    R516862  11.352  13.179   6.414  0.4144  0.2622 -0.3497
 1233ERGO    C116863  11.463  13.047   6.754 -0.1021  0.6364 -0.0183
 1233ERGO    C216864  11.570  12.837   6.986 -0.2221  0.0591  0.0816
 1234ERGO   ROH16865   2.612  12.711   5.811 -0.0279 -0.0613 -0.0377
 1234ERGO    R116866   2.652  12.680   6.090  0.1021 -0.0777 -0.0571
 1234ERGO    R216867   2.852  12.813   6.226  0.1012  0.0001 -0.1217
 1234ERGO    R316868   2.646  12.896   6.383  0.1236 -0.1149 -0.0313
 1234ERGO    R416869   2.886  12.936   6.548  0.1847  0.2134 -0.2105
 1234ERGO    R516870   2.707  12.825   6.604  0.3339  0.0705 -0.0307
 1234ERGO    C116871   2.712  13.086   6.882  0.2542  0.2297 -0.1774
 1234ERGO    C216872   2.711  13.276   7.185  0.5102 -0.1564  0.1038
 1235ERGO   ROH16873   5.515   1.704   6.012  0.1209 -0.0320  0.0054
 1235ERGO    R116874   5.285   1.539   6.012  0.1055 -0.0103  0.0144
 1235ERGO    R216875   5.300   1.263   6.010  0.0796 -0.0113 -0.0145
 1235ERGO    R316876   5.143   1.286   6.231  0.1057 -0.0182  0.0052
 1235ERGO    R416877   5.140   1.000   6.166  0.0518 -0.0075 -0.0360
 1235ERGO    R516878   4.966   1.128   6.194  0.0759  0.0166  0.0008
 1235ERGO    C116879   4.898   0.867   6.463  0.0601 -0.0116 -0.0300
 1235ERGO    C216880   4.826   0.770   6.779  0.0259 -0.1162  0.1854
 1236ERGO   ROH16881  13.388   3.386   6.164  0.0102  0.0619 -0.1691
 1236ERGO    R116882  13.612   3.471   6.315 -0.0037  0.0732 -0.1557
 1236ERGO    R216883  13.593   3.662   6.515 -0.0223  0.0840 -0.1716
 1236ERGO    R316884  13.711   3.468   6.665 -0.0312  0.0973 -0.1466
 1236ERGO    R416885  13.739   3.713   6.824 -0.1514  0.0955 -0.1118
 1236ERGO    R516886  13.899   3.577   6.766 -0.0938  0.1379 -0.0665
 1236ERGO    C116887  13.935   3.561   7.145 -0.2351  0.1147 -0.0534
 1236ERGO    C216888  13.937   3.383   7.471  0.0117 -0.2659 -0.3136
 1237ERGO   ROH16889  17.217   8.334   5.693 -0.0101 -0.1532  0.0850
 1237ERGO    R116890  17.007   8.355   5.882 -0.0493 -0.0246  0.0284
 1237ERGO    R216891  17.004   8.212   6.119 -0.2473 -0.0964 -0.0145
 1237ERGO    R316892  16.973   8.458   6.229 -0.0609 -0.1010  0.0499
 1237ERGO    R416893  16.877   8.272   6.434 -0.0566 -0.0896  0.0618
 1237ERGO    R516894  16.769   8.443   6.353 -0.0072 -0.0160  0.1499
 1237ERGO    C116895  16.774   8.539   6.722  0.2297 -0.0899  0.1668
 1237ERGO    C216896  16.585   8.544   6.965  0.1868  0.4788  0.0795
 1238ERGO   ROH16897   6.015  16.846   5.933  0.0531 -0.1446  0.0269
 1238ERGO    R116898   6.030  16.939   6.200  0.3037 -0.1375  0.0111
 1238ERGO    R216899   5.850  16.863   6.394  0.1689  0.2758  0.0512
 1238ERGO    R316900   6.075  16.792   6.529  0.0475 -0.1933  0.0240
 1238ERGO    R416901   5.870  16.824   6.737  0.1981  0.5802  0.0880
 1238ERGO    R516902   6.066  16.920   6.731  0.4721  0.0569 -0.1005
 1238ERGO    C116903   6.093  16.734   7.063  0.1011  0.3172  0.0838
 1238ERGO    C216904   6.188  16.724   7.421  0.2440  0.1684  0.1957
 1239ERGO   ROH16905   4.647  17.323   5.969 -0.0006  0.0933 -0.1218
 1239ERGO    R116906   4.597  17.445   6.219  0.0411  0.0837 -0.1087
 1239ERGO    R216907   4.536  17.301   6.446 -0.1719  0.0877 -0.1612
 1239ERGO    R316908   4.746  17.437   6.551 -0.0673 -0.1404 -0.0637
 1239ERGO    R416909   4.591  17.348   6.784 -0.2254 -0.0504 -0.1325
 1239ERGO    R516910   4.653  17.552   6.740 -0.0130 -0.0968 -0.0632
 1239ERGO    C116911   4.820  17.504   7.080 -0.1583 -0.3451 -0.0243
 1239ERGO    C216912   5.074  17.547   7.341  0.0273 -0.3027  0.1829
 1240ERGO   ROH16913  15.928   7.233   5.857  0.1612 -0.0337  0.1503
 1240ERGO    R116914  15.941   7.303   6.131  0.0146 -0.0350  0.1585
 1240ERGO    R216915  15.734   7.433   6.262 -0.0321  0.0181  0.0334
 1240ERGO    R316916  15.756   7.223   6.434 -0.1881  0.0140  0.0491
 1240ERGO    R416917  15.646   7.441   6.596 -0.2484  0.0376 -0.0229
 1240ERGO    R516918  15.823   7.323   6.641 -0.3017  0.0005  0.0933
 1240ERGO    C116919  15.614   7.249   6.951 -0.5208  0.0451 -0.0408
 1240ERGO    C216920  15.457   7.064   7.150 -0.1901 -0.0686 -0.0839
 1241ERGO   ROH16921   1.392  15.827   6.178  0.0710 -0.2613 -0.1177
 1241ERGO    R116922   1.459  15.793   6.451  0.0536 -0.2062 -0.1063
 1241ERGO    R216923   1.501  15.544   6.563  0.1148 -0.1806 -0.0694
 1241ERGO    R316924   1.738  15.653   6.639  0.0756 -0.1006 -0.0611
 1241ERGO    R416925   1.694  15.434   6.828  0.1424 -0.1057 -0.0578
 1241ERGO    R516926   1.735  15.642   6.878  0.0712 -0.0928 -0.0624
 1241ERGO    C116927   2.028  15.473   7.053  0.1216  0.0130 -0.0434
 1241ERGO    C216928   2.144  15.417   7.339 -0.0619 -0.0467  0.1845
 1242ERGO   ROH16929  15.798   7.782   8.047 -0.0112  0.1927  0.0256
 1242ERGO    R116930  16.032   7.805   7.889  0.0746  0.1548  0.1456
 1242ERGO    R216931  16.235   7.618   7.895 -0.0519  0.0155  0.1007
 1242ERGO    R316932  16.194   7.612   7.626  0.0624  0.2384  0.0756
 1242ERGO    R416933  16.408   7.418   7.673 -0.0412  0.1072  0.0252
 1242ERGO    R516934  16.413   7.585   7.534  0.0935  0.2143  0.1523
 1242ERGO    C116935  16.471   7.295   7.292  0.0723  0.3699 -0.0423
 1242ERGO    C216936  16.619   6.981   7.059 -0.1648 -0.1287  0.3439
 1243ERGO   ROH16937  12.243   8.055   6.176  0.1301 -0.2708  0.2457
 1243ERGO    R116938  12.277   8.094   6.454  0.1588 -0.0599  0.2155
 1243ERGO    R216939  12.145   7.941   6.642  0.1105  0.1376  0.3495
 1243ERGO    R316940  12.396   7.897   6.736  0.0994  0.1188  0.3672
 1243ERGO    R416941  12.220   7.789   6.944  0.0801 -0.1279  0.2248
 1243ERGO    R516942  12.380   7.934   6.972  0.0332 -0.1098  0.4004
 1243ERGO    C116943  12.500   7.659   7.206  0.0521 -0.3003  0.1688
 1243ERGO    C216944  12.724   7.609   7.374  0.0395 -0.3394 -0.0993
 1244ERGO   ROH16945  16.349  16.545   5.776  0.1024 -0.2320 -0.1363
 1244ERGO    R116946  16.520  16.535   6.002  0.0638 -0.0746 -0.0978
 1244ERGO    R216947  16.526  16.733   6.194 -0.1219 -0.0406 -0.1237
 1244ERGO    R316948  16.480  16.525   6.363 -0.0073 -0.0510 -0.1053
 1244ERGO    R416949  16.527  16.755   6.539  0.0699 -0.0557 -0.1223
 1244ERGO    R516950  16.630  16.563   6.546  0.0916 -0.0451 -0.1875
 1244ERGO    C116951  16.484  16.572   6.899  0.2893 -0.0742 -0.1042
 1244ERGO    C216952  16.279  16.671   7.173 -0.1043  0.0318  0.0184
 1245ERGO   ROH16953  16.019   5.323   5.840  0.0979 -0.0145  0.0259
 1245ERGO    R116954  16.143   5.106   5.973 -0.1748 -0.1633  0.0426
 1245ERGO    R216955  16.359   5.139   6.142  0.0832 -0.4535 -0.2275
 1245ERGO    R316956  16.201   5.005   6.318  0.0144 -0.0216  0.0561
 1245ERGO    R416957  16.452   5.048   6.462  0.2408 -0.2849 -0.2233
 1245ERGO    R516958  16.350   4.857   6.432 -0.1113 -0.1603  0.0565
 1245ERGO    C116959  16.358   4.870   6.813  0.2679  0.2187  0.0454
 1245ERGO    C216960  16.440   4.943   7.149 -0.0150 -0.2033 -0.0651
 1246ERGO   ROH16961   7.146  15.822   6.032 -0.0242 -0.1209 -0.0738
 1246ERGO    R116962   7.069  15.913   6.288  0.0485 -0.0594 -0.0736
 1246ERGO    R216963   6.817  15.866   6.393  0.0669 -0.0020 -0.0069
 1246ERGO    R316964   6.959  15.762   6.600  0.0982  0.0184 -0.0176
 1246ERGO    R416965   6.708  15.854   6.721  0.0710 -0.0597 -0.0074
 1246ERGO    R516966   6.909  15.907   6.785  0.0590 -0.0094 -0.0045
 1246ERGO    C116967   6.777  15.750   7.106  0.1026 -0.0741 -0.0177
 1246ERGO    C216968   6.728  15.780   7.430  0.1064  0.3507  0.1336
 1247ERGO   ROH16969   6.489   7.775  10.290  0.2815 -0.0164  0.0655
 1247ERGO    R116970   6.415   7.767  10.017  0.0744 -0.0578  0.1201
 1247ERGO    R216971   6.557   7.900   9.820 -0.2046  0.1081  0.0167
 1247ERGO    R316972   6.564   7.654   9.705 -0.0518  0.1243 -0.0070
 1247ERGO    R416973   6.615   7.841   9.485 -0.1202  0.1624  0.0223
 1247ERGO    R516974   6.462   7.685   9.490 -0.0321  0.0822 -0.0176
 1247ERGO    C116975   6.656   7.576   9.181  0.0724  0.2092  0.0034
 1247ERGO    C216976   6.767   7.646   8.912  0.0983 -0.1991 -0.0401
 1248ERGO   ROH16977  16.212   3.737   6.228  0.0068  0.2160 -0.1204
 1248ERGO    R116978  16.247   3.818   6.497 -0.0775  0.1349 -0.0845
 1248ERGO    R216979  16.364   4.059   6.566 -0.0206  0.0757  0.0251
 1248ERGO    R316980  16.134   4.093   6.708 -0.0688  0.1215 -0.0620
 1248ERGO    R416981  16.310   4.311   6.796 -0.1807  0.2851 -0.2343
 1248ERGO    R516982  16.209   4.166   6.924 -0.1494  0.3673 -0.1134
 1248ERGO    C116983  16.063   4.489   7.064 -0.3191  0.4499 -0.4671
 1248ERGO    C216984  15.946   4.732   7.250 -0.1082  0.0608 -0.1904
 1249ERGO   ROH16985   4.165   4.724   6.225 -0.1819  0.0025  0.1669
 1249ERGO    R116986   4.297   4.835   6.449 -0.1335 -0.0115  0.1460
 1249ERGO    R216987   4.314   5.108   6.491  0.0232 -0.0067  0.0711
 1249ERGO    R316988   4.205   5.044   6.732 -0.0347  0.1222  0.0798
 1249ERGO    R416989   4.404   5.249   6.794  0.0938  0.0048  0.0445
 1249ERGO    R516990   4.389   5.052   6.885 -0.0412  0.0378  0.0901
 1249ERGO    C116991   4.355   5.270   7.196  0.0806  0.1326  0.0373
 1249ERGO    C216992   4.494   5.376   7.462  0.0826  0.1762  0.1183
 1250ERGO   ROH16993   0.258  11.520   5.868  0.0925  0.2577  0.1384
 1250ERGO    R116994   0.129  11.335   6.038 -0.0733  0.2141 -0.0314
 1250ERGO    R216995   0.185  11.315   6.308  0.1624 -0.3112 -0.1017
 1250ERGO    R316996  -0.084  11.350   6.334  0.2388  0.1371  0.2002
 1250ERGO    R416997  -0.019  11.131   6.518 -0.0128 -0.4810 -0.4137
 1250ERGO    R516998  -0.170  11.128   6.361 -0.1594  0.2141 -0.3119
 1250ERGO    C116999  -0.389  11.056   6.664 -0.0429 -0.1591 -0.3119
 1250ERGO    C217000  -0.522  10.856   6.905  0.0753 -0.0113  0.2922
 1251ERGO   ROH17001  13.669   5.327   6.034  0.2534  0.0324  0.1546
 1251ERGO    R117002  13.528   5.467   6.236  0.2010 -0.0839  0.1996
 1251ERGO    R217003  13.594   5.449   6.503  0.3039 -0.0281  0.1806
 1251ERGO    R317004  13.605   5.720   6.486  0.0731 -0.0177  0.1716
 1251ERGO    R417005  13.532   5.666   6.765  0.4615 -0.0778  0.2603
 1251ERGO    R517006  13.426   5.796   6.626  0.1878 -0.1568  0.3953
 1251ERGO    C117007  13.507   6.047   6.901  0.3365 -0.0970  0.2983
 1251ERGO    C217008  13.287   6.327   7.064  0.0739 -0.0076 -0.1261
 1252ERGO   ROH17009  10.557   2.226   6.398 -0.0153 -0.0459  0.0480
 1252ERGO    R117010  10.659   2.408   6.590 -0.1336 -0.1128  0.1734
 1252ERGO    R217011  10.574   2.411   6.853 -0.0338 -0.4465  0.2045
 1252ERGO    R317012  10.839   2.387   6.905  0.0166 -0.2082  0.0850
 1252ERGO    R417013  10.743   2.587   7.097 -0.1190 -0.3768  0.2163
 1252ERGO    R517014  10.910   2.609   6.958 -0.1885 -0.1496  0.1515
 1252ERGO    C117015  11.091   2.667   7.288 -0.1212 -0.1125  0.1109
 1252ERGO    C217016  11.334   2.678   7.668  0.2473  0.4031  0.2350
 1253ERGO   ROH17017   2.203   5.236   6.080 -0.5456  0.1582 -0.2472
 1253ERGO    R117018   2.209   5.222   6.363 -0.2545  0.1118 -0.2529
 1253ERGO    R217019   2.090   5.412   6.524 -0.1387  0.0548 -0.0991
 1253ERGO    R317020   1.965   5.196   6.632  0.0230  0.0064 -0.0050
 1253ERGO    R417021   1.972   5.393   6.848 -0.1346  0.1159 -0.0939
 1253ERGO    R517022   2.044   5.188   6.857  0.0238  0.1724  0.0032
 1253ERGO    C117023   1.786   5.179   7.138  0.0196  0.1061 -0.0024
 1253ERGO    C217024   1.624   5.252   7.393  0.1149  0.2170  0.2036
 1254ERGO   ROH17025   6.895   2.670   6.636 -0.2280 -0.0337  0.0727
 1254ERGO    R117026   6.854   2.720   6.911 -0.1076  0.0735  0.0720
 1254ERGO    R217027   6.603   2.762   7.020 -0.0671  0.0457  0.1772
 1254ERGO    R317028   6.678   2.560   7.186  0.0736  0.1394  0.2299
 1254ERGO    R417029   6.442   2.677   7.313  0.0807  0.1079  0.2773
 1254ERGO    R517030   6.636   2.645   7.406  0.1316  0.2154  0.2127
 1254ERGO    C117031   6.417   2.439   7.640  0.2987  0.2321  0.3851
 1254ERGO    C217032   6.255   2.338   8.044 -0.1721  0.2616  0.0747
 1255ERGO   ROH17033   9.498  18.183   6.872 -0.0881  0.0311  0.0176
 1255ERGO    R117034   9.566  18.123   7.140 -0.0514 -0.0100 -0.0001
 1255ERGO    R217035   9.587  18.318   7.335 -0.0129 -0.0369  0.0265
 1255ERGO    R317036   9.409  18.159   7.466 -0.0027 -0.0471  0.0265
 1255ERGO    R417037   9.517  18.337   7.673 -0.0468 -0.0180  0.0180
 1255ERGO    R517038   9.511  18.119   7.679 -0.0188 -0.0150  0.0378
 1255ERGO    C117039   9.310  18.199   7.993 -0.0567 -0.0167  0.0131
 1255ERGO    C217040   8.995  18.252   8.169  0.0133 -0.0530 -0.0660
 1256ERGO   ROH17041  10.466   9.633   5.972 -0.0666 -0.2344 -0.0178
 1256ERGO    R117042  10.452   9.734   6.236 -0.0534 -0.1338 -0.0549
 1256ERGO    R217043  10.414   9.570   6.456 -0.1169 -0.0424  0.0020
 1256ERGO    R317044  10.640   9.693   6.545 -0.0858 -0.0779 -0.0272
 1256ERGO    R417045  10.512   9.588   6.787 -0.0975 -0.0196 -0.0049
 1256ERGO    R517046  10.575   9.794   6.752 -0.0553 -0.0360 -0.0367
 1256ERGO    C117047  10.781   9.714   7.063 -0.0569 -0.0395 -0.0364
 1256ERGO    C217048  10.807   9.594   7.405 -0.0288  0.0501 -0.0166
 1257ERGO   ROH17049   4.182   6.293   6.587 -0.2543 -0.0239 -0.0561
 1257ERGO    R117050   4.303   6.381   6.827 -0.1089 -0.0957 -0.1013
 1257ERGO    R217051   4.164   6.521   7.020  0.0921  0.1535 -0.1297
 1257ERGO    R317052   4.257   6.324   7.183 -0.1422  0.0857 -0.0758
 1257ERGO    R417053   4.158   6.530   7.366  0.0988  0.2527 -0.1322
 1257ERGO    R517054   4.356   6.440   7.367 -0.0064  0.0180 -0.1065
 1257ERGO    C117055   4.241   6.350   7.719 -0.1173  0.2469 -0.0830
 1257ERGO    C217056   4.333   6.246   8.043 -0.0800 -0.1757 -0.0731
 1258ERGO   ROH17057  18.334   8.197   6.129 -0.2043 -0.3488  0.0096
 1258ERGO    R117058  18.240   8.101   6.378  0.0227 -0.4195  0.0697
 1258ERGO    R217059  18.410   7.999   6.571  0.2748  0.0783  0.1279
 1258ERGO    R317060  18.290   8.185   6.729 -0.1503 -0.0929  0.0203
 1258ERGO    R417061  18.338   7.956   6.907  0.1607  0.0254  0.0971
 1258ERGO    R517062  18.147   8.057   6.874 -0.0083 -0.3185 -0.0330
 1258ERGO    C117063  18.183   8.106   7.250 -0.3049 -0.1663 -0.0218
 1258ERGO    C217064  18.086   8.037   7.503 -0.0081  0.0755  0.0228
 1259ERGO   ROH17065  10.875  18.284   6.321  0.2803  0.3936 -0.1628
 1259ERGO    R117066  11.007  18.375   6.554  0.1292  0.3081 -0.0434
 1259ERGO    R217067  10.877  18.517   6.753 -0.0522  0.0323  0.0332
 1259ERGO    R317068  10.977  18.321   6.913  0.0595 -0.0177 -0.0935
 1259ERGO    R417069  10.921  18.545   7.095 -0.0305 -0.1378  0.0460
 1259ERGO    R517070  11.110  18.439   7.074  0.0238 -0.0402 -0.0401
 1259ERGO    C117071  11.040  18.378   7.444  0.0869 -0.2839 -0.0655
 1259ERGO    C217072  11.127  18.261   7.768  0.1728  0.0623  0.0881
 1260ERGO   ROH17073   2.860  13.913   6.389 -0.2512 -0.1932  0.0109
 1260ERGO    R117074   2.766  13.934   6.655 -0.0377 -0.1994  0.0893
 1260ERGO    R217075   2.924  14.025   6.863  0.0382  0.1062 -0.0932
 1260ERGO    R317076   2.720  14.200   6.899 -0.1659 -0.1453  0.0063
 1260ERGO    R417077   2.836  14.165   7.166  0.1249  0.1352 -0.0813
 1260ERGO    R517078   2.626  14.140   7.111  0.1048 -0.1693  0.1206
 1260ERGO    C117079   2.593  14.411   7.377 -0.0162 -0.0839  0.0191
 1260ERGO    C217080   2.390  14.598   7.594 -0.2432  0.0600  0.0927
 1261ERGO   ROH17081  13.859   9.250   6.122  0.0838  0.0709 -0.0414
 1261ERGO    R117082  13.895   9.335   6.390 -0.1086  0.2297 -0.0640
 1261ERGO    R217083  13.691   9.448   6.539 -0.3572 -0.1349 -0.1204
 1261ERGO    R317084  13.754   9.250   6.714  0.0318  0.0413 -0.0492
 1261ERGO    R417085  13.595   9.441   6.870 -0.3194 -0.1840 -0.1098
 1261ERGO    R517086  13.793   9.365   6.921 -0.1615  0.2017 -0.0950
 1261ERGO    C117087  13.598   9.251   7.229  0.0678 -0.0474 -0.0366
 1261ERGO    C217088  13.577   9.106   7.501  0.2000  0.0314 -0.4067
 1262ERGO   ROH17089   1.970   9.297   6.207 -0.1249  0.1877  0.1936
 1262ERGO    R117090   2.008   9.155   6.449 -0.1085  0.1858  0.1902
 1262ERGO    R217091   1.825   9.162   6.656 -0.1687  0.0632  0.1447
 1262ERGO    R317092   1.835   8.891   6.630 -0.0095  0.0711  0.1181
 1262ERGO    R417093   1.718   8.936   6.895 -0.1816 -0.0270  0.0544
 1262ERGO    R517094   1.891   8.813   6.849 -0.0913  0.0729  0.1375
 1262ERGO    C117095   1.665   8.551   7.010 -0.0396 -0.0721 -0.0232
 1262ERGO    C217096   1.496   8.571   7.238 -0.1785  0.1663  0.1889
 1263ERGO   ROH17097   3.156  16.793   6.134  0.1210 -0.0391  0.0183
 1263ERGO    R117098   3.100  16.979   6.340  0.1096  0.0601 -0.0706
 1263ERGO    R217099   2.979  16.905   6.578 -0.0440  0.1986 -0.0953
 1263ERGO    R317100   3.198  17.024   6.688 -0.0346  0.1270 -0.0403
 1263ERGO    R417101   2.997  17.025   6.902 -0.1155  0.2960 -0.1283
 1263ERGO    R517102   3.108  17.197   6.827 -0.0027  0.2132 -0.1346
 1263ERGO    C117103   3.213  17.206   7.193 -0.1485  0.2854 -0.0959
 1263ERGO    C217104   3.154  17.196   7.527 -0.0537 -0.0343 -0.2710
 1264ERGO   ROH17105  18.351   7.206   6.165 -0.1445 -0.3263 -0.0872
 1264ERGO    R117106  18.457   7.018   6.348 -0.0668 -0.1947  0.0046
 1264ERGO    R217107  18.584   7.093   6.582 -0.1279 -0.0296 -0.0132
 1264ERGO    R317108  18.401   6.927   6.695 -0.0558 -0.0739  0.0382
 1264ERGO    R417109  18.617   6.947   6.893 -0.1451  0.2223  0.1096
 1264ERGO    R517110  18.533   6.763   6.810  0.0150  0.1014  0.2112
 1264ERGO    C117111  18.465   6.705   7.181 -0.0875  0.3273  0.2292
 1264ERGO    C217112  18.467   6.609   7.469 -0.2422  0.1301 -0.0854
 1265ERGO   ROH17113   0.009   2.081   9.138  0.0280  0.0494 -0.1531
 1265ERGO    R117114  -0.086   2.177   8.889  0.1060  0.0055 -0.1995
 1265ERGO    R217115   0.054   2.142   8.653  0.0586 -0.2605 -0.1881
 1265ERGO    R317116  -0.180   2.032   8.569 -0.0551 -0.0796 -0.1159
 1265ERGO    R417117  -0.082   2.182   8.338  0.0594 -0.2530 -0.1879
 1265ERGO    R517118  -0.278   2.200   8.430  0.0825 -0.0373 -0.1677
 1265ERGO    C117119  -0.381   2.103   8.075 -0.0467 -0.0788 -0.1201
 1265ERGO    C217120  -0.563   2.127   7.825  0.0974 -0.2042 -0.1091
 1266ERGO   ROH17121   5.482  13.835   6.283  0.1507  0.0441  0.0326
 1266ERGO    R117122   5.495  13.927   6.551  0.0684  0.1311  0.0080
 1266ERGO    R217123   5.629  13.788   6.749 -0.0844  0.1381  0.1203
 1266ERGO    R317124   5.757  14.025   6.784  0.0066  0.0928  0.0936
 1266ERGO    R417125   5.747  13.906   7.052 -0.0990  0.1583  0.1177
 1266ERGO    R517126   5.677  14.105   6.995 -0.0042  0.1737  0.0583
 1266ERGO    C117127   5.935  14.197   7.261 -0.0220  0.1275  0.0910
 1266ERGO    C217128   6.027  14.238   7.654 -0.0740  0.1800 -0.1805
 1267ERGO   ROH17129  15.532   9.093   5.772 -0.0874  0.2392  0.0223
 1267ERGO    R117130  15.496   8.904   5.980 -0.0204  0.0498 -0.1377
 1267ERGO    R217131  15.697   8.734   6.064  0.1505  0.3021 -0.0483
 1267ERGO    R317132  15.641   8.840   6.308 -0.2615  0.0592 -0.0247
 1267ERGO    R417133  15.791   8.595   6.366  0.2669  0.3504 -0.0592
 1267ERGO    R517134  15.596   8.650   6.446  0.0703 -0.1294 -0.1566
 1267ERGO    C117135  15.793   8.613   6.770 -0.0520  0.1505 -0.0435
 1267ERGO    C217136  15.918   8.737   6.944  0.0740 -0.0808  0.2809
 1268ERGO   ROH17137   8.117  10.662   6.323  0.0294  0.2801 -0.0172
 1268ERGO    R117138   8.215  10.805   6.546  0.0506  0.0858  0.1009
 1268ERGO    R217139   8.062  10.856   6.770  0.0064  0.0627  0.0775
 1268ERGO    R317140   8.270  10.739   6.900 -0.1181 -0.1553  0.0839
 1268ERGO    R417141   8.135  10.900   7.105  0.1165  0.0896  0.0499
 1268ERGO    R517142   8.347  10.907   7.053  0.1195 -0.1960  0.0121
 1268ERGO    C117143   8.373  10.815   7.422  0.0639 -0.0993  0.0399
 1268ERGO    C217144   8.229  10.628   7.700  0.5419  0.0842  0.1182
 1269ERGO   ROH17145   1.627  10.940   5.876 -0.3462 -0.1164  0.0184
 1269ERGO    R117146   1.562  10.883   6.146 -0.1375  0.0218  0.1013
 1269ERGO    R217147   1.724  10.956   6.357  0.0586  0.0810 -0.0612
 1269ERGO    R317148   1.498  11.075   6.448  0.1605  0.1774  0.0672
 1269ERGO    R417149   1.587  10.907   6.670  0.0182 -0.1248 -0.1103
 1269ERGO    R517150   1.390  10.906   6.579  0.0190  0.1365 -0.1069
 1269ERGO    C117151   1.294  10.990   6.938  0.0903 -0.1540 -0.0183
 1269ERGO    C217152   1.267  10.975   7.181 -0.0948 -0.1348  0.0045
 1270ERGO   ROH17153   9.382  14.713   6.147  0.0140  0.2999 -0.0923
 1270ERGO    R117154   9.581  14.557   6.273 -0.1581  0.0692 -0.1029
 1270ERGO    R217155   9.758  14.662   6.458  0.0246 -0.1146 -0.1776
 1270ERGO    R317156   9.664  14.460   6.614 -0.1973  0.0444 -0.0985
 1270ERGO    R417157   9.925  14.526   6.729 -0.1093 -0.1894 -0.1307
 1270ERGO    R517158   9.858  14.329   6.666 -0.3297 -0.1483 -0.0568
 1270ERGO    C117159   9.934  14.257   7.033 -0.3958 -0.0839 -0.0292
 1270ERGO    C217160   9.965  13.867   7.369  0.0890  0.0663 -0.2133
 1271ERGO   ROH17161  15.395  12.458   6.093 -0.2959 -0.0416 -0.0652
 1271ERGO    R117162  15.396  12.573   6.351  0.0340 -0.0095 -0.0758
 1271ERGO    R217163  15.472  12.834   6.397  0.0069  0.0322 -0.2209
 1271ERGO    R317164  15.229  12.849   6.520  0.1643 -0.0507  0.1247
 1271ERGO    R417165  15.390  13.060   6.646  0.2447  0.0519 -0.1589
 1271ERGO    R517166  15.281  12.900   6.748  0.4613  0.0283  0.0408
 1271ERGO    C117167  15.114  13.206   6.905  0.5307 -0.0143  0.2017
 1271ERGO    C217168  14.986  13.577   7.075 -0.2765 -0.1191  0.0238
 1272ERGO   ROH17169   9.991   2.710   6.815 -0.0709  0.0044 -0.1430
 1272ERGO    R117170   9.838   2.927   6.916  0.0485  0.1552 -0.2814
 1272ERGO    R217171   9.744   2.935   7.176 -0.3717  0.1356 -0.4236
 1272ERGO    R317172   9.873   3.174   7.180 -0.0501 -0.0341 -0.0899
 1272ERGO    R417173   9.705   3.176   7.420 -0.2955 -0.0077 -0.2675
 1272ERGO    R517174   9.710   3.328   7.264  0.0718  0.1181 -0.1368
 1272ERGO    C117175   9.803   3.541   7.567  0.0508 -0.2504  0.1366
 1272ERGO    C217176   9.939   3.624   7.787 -0.3209  0.2675 -0.2566
 1273ERGO   ROH17177   9.960   6.075   6.313 -0.0358  0.1793 -0.0012
 1273ERGO    R117178   9.946   6.167   6.580  0.0142  0.1048  0.0271
 1273ERGO    R217179   9.893   5.998   6.793 -0.1156  0.0741 -0.0300
 1273ERGO    R317180  10.124   6.103   6.891 -0.0468 -0.1186  0.0181
 1273ERGO    R417181   9.929   6.135   7.108 -0.0813  0.0852 -0.0386
 1273ERGO    R517182  10.053   6.291   7.021  0.0847 -0.0358 -0.0276
 1273ERGO    C117183  10.167   6.313   7.384  0.0035 -0.0893  0.0015
 1273ERGO    C217184  10.427   6.390   7.685  0.0508  0.1944 -0.2281
 1274ERGO   ROH17185  11.210   4.436   6.228  0.0813 -0.4818 -0.0747
 1274ERGO    R117186  11.312   4.312   6.461 -0.0883 -0.2521  0.1271
 1274ERGO    R217187  11.553   4.385   6.575 -0.0462 -0.3127  0.0677
 1274ERGO    R317188  11.401   4.415   6.799 -0.0690  0.1471  0.0094
 1274ERGO    R417189  11.677   4.398   6.897 -0.1067 -0.4445  0.0985
 1274ERGO    R517190  11.508   4.276   6.962 -0.4294 -0.0392  0.1104
 1274ERGO    C117191  11.607   4.434   7.295 -0.1632 -0.0896  0.0617
 1274ERGO    C217192  11.875   4.627   7.494 -0.0066  0.3567  0.0938
 1275ERGO   ROH17193   4.123  10.132   6.206 -0.1374 -0.0008 -0.0366
 1275ERGO    R117194   4.128  10.088   6.486 -0.0278  0.0051 -0.0372
 1275ERGO    R217195   3.903  10.016   6.630  0.0116  0.0782  0.0650
 1275ERGO    R317196   4.061   9.810   6.711 -0.0152  0.0315 -0.0013
 1275ERGO    R417197   3.805   9.766   6.848 -0.0059  0.0391  0.0122
 1275ERGO    R517198   4.002   9.777   6.941  0.0033 -0.0172 -0.0048
 1275ERGO    C117199   3.896   9.427   7.051 -0.0413 -0.0276 -0.0808
 1275ERGO    C217200   3.752   9.268   7.342 -0.1537  0.0417 -0.1398
 1276ERGO   ROH17201   9.859   4.716   6.421 -0.0555 -0.3245 -0.0396
 1276ERGO    R117202   9.968   4.594   6.652 -0.0839 -0.2606  0.0085
 1276ERGO    R217203   9.974   4.720   6.897  0.0699 -0.1097 -0.0677
 1276ERGO    R317204   9.848   4.494   6.980 -0.0748  0.0317  0.1030
 1276ERGO    R417205   9.983   4.597   7.220  0.1329  0.0315 -0.0156
 1276ERGO    R517206  10.001   4.396   7.137 -0.0763 -0.0216  0.0690
 1276ERGO    C117207   9.871   4.314   7.486  0.0337  0.2464  0.1750
 1276ERGO    C217208   9.968   4.119   7.877 -0.0290 -0.1481  0.1935
 1277ERGO   ROH17209  12.220   5.762   5.670  0.1185 -0.1142 -0.0372
 1277ERGO    R117210  12.336   5.727   5.925  0.2264 -0.0812 -0.0817
 1277ERGO    R217211  12.500   5.916   6.042 -0.0456  0.1105 -0.0109
 1277ERGO    R317212  12.323   5.896   6.248  0.0254 -0.2838  0.0210
 1277ERGO    R417213  12.567   6.006   6.369 -0.1854  0.3036 -0.0329
 1277ERGO    R517214  12.457   5.829   6.435  0.2286  0.0398  0.0043
 1277ERGO    C117215  12.440   6.039   6.752 -0.2002  0.0458 -0.0157
 1277ERGO    C217216  12.450   6.148   7.048  0.1069 -0.1137 -0.2423
 1278ERGO   ROH17217   5.521  12.498   9.771 -0.1381 -0.4564  0.0009
 1278ERGO    R117218   5.509  12.385   9.512 -0.1235 -0.2870 -0.0753
 1278ERGO    R217219   5.351  12.489   9.310 -0.0588 -0.1123 -0.0406
 1278ERGO    R317220   5.585  12.492   9.172 -0.0317 -0.0885  0.0083
 1278ERGO    R417221   5.378  12.497   8.966  0.0224 -0.0580 -0.0334
 1278ERGO    R517222   5.543  12.356   8.980  0.0160 -0.0550 -0.0214
 1278ERGO    C117223   5.613  12.505   8.636  0.0950 -0.0042  0.0167
 1278ERGO    C217224   5.481  12.552   8.344 -0.1617  0.2134 -0.0156
 1279ERGO   ROH17225  17.088  13.467   5.874 -0.1095 -0.1176 -0.0941
 1279ERGO    R117226  17.033  13.437   6.150  0.0975 -0.0680 -0.0466
 1279ERGO    R217227  16.842  13.262   6.246 -0.0433  0.1687  0.1063
 1279ERGO    R317228  17.049  13.168   6.395 -0.0269 -0.1091 -0.0817
 1279ERGO    R417229  16.815  13.016   6.487 -0.1551  0.1883  0.1151
 1279ERGO    R517230  16.953  13.130   6.612  0.1099  0.0065  0.0034
 1279ERGO    C117231  16.993  12.785   6.768 -0.2050 -0.0610 -0.0563
 1279ERGO    C217232  17.019  12.634   7.025  0.1772  0.0542  0.2152
 1280ERGO   ROH17233   2.697  15.993   6.152  0.0241 -0.0985  0.0067
 1280ERGO    R117234   2.847  15.984   6.392  0.0026  0.0176  0.0256
 1280ERGO    R217235   2.834  15.772   6.567 -0.0611  0.1289  0.1610
 1280ERGO    R317236   3.104  15.770   6.535 -0.0595  0.0466  0.1802
 1280ERGO    R417237   3.060  15.660   6.804 -0.1079  0.0661  0.1759
 1280ERGO    R517238   3.190  15.828   6.752 -0.0549  0.0239  0.1823
 1280ERGO    C117239   3.445  15.594   6.912 -0.1336 -0.0478  0.2026
 1280ERGO    C217240   3.557  15.520   7.216  0.1128  0.1862  0.1156
 1281ERGO   ROH17241  12.916  14.846   5.826  0.0061  0.0562  0.1032
 1281ERGO    R117242  12.884  14.832   6.107  0.2800  0.0391  0.1359
 1281ERGO    R217243  12.706  14.658   6.229  0.0296  0.3762  0.2680
 1281ERGO    R317244  12.928  14.580   6.366  0.0233 -0.1439  0.0048
 1281ERGO    R417245  12.714  14.577   6.565  0.2343  0.2962  0.2452
 1281ERGO    R517246  12.904  14.680   6.581  0.4921 -0.1261  0.0553
 1281ERGO    C117247  12.927  14.456   6.889  0.3475 -0.2386 -0.0152
 1281ERGO    C217248  13.206  14.553   7.216  0.1333 -0.0923  0.3630
 1282ERGO   ROH17249  12.655  12.790   5.745  0.1822 -0.2550 -0.0016
 1282ERGO    R117250  12.741  12.857   6.006  0.2363 -0.1384 -0.0484
 1282ERGO    R217251  12.922  13.059   6.056  0.0473  0.0577 -0.1538
 1282ERGO    R317252  12.728  13.148   6.223  0.0320 -0.1296 -0.0691
 1282ERGO    R417253  12.959  13.323   6.275 -0.0615  0.0134 -0.0820
 1282ERGO    R517254  12.846  13.209   6.423  0.0553 -0.1151 -0.0832
 1282ERGO    C117255  12.797  13.561   6.561 -0.1392 -0.1883  0.0393
 1282ERGO    C217256  12.774  13.873   6.714  0.3060  0.0747  0.3240
 1283ERGO   ROH17257  10.154   5.072   6.572 -0.0514 -0.0080  0.2278
 1283ERGO    R117258  10.258   5.168   6.817  0.0352  0.0951  0.1517
 1283ERGO    R217259  10.491   5.073   6.927  0.0010  0.0404  0.1805
 1283ERGO    R317260  10.561   5.335   6.928  0.1414  0.0049 -0.0003
 1283ERGO    R417261  10.738   5.210   7.127 -0.1169  0.0935  0.2899
 1283ERGO    R517262  10.608   5.383   7.158 -0.0554  0.1952  0.0026
 1283ERGO    C117263  10.947   5.537   7.244 -0.0537  0.0912  0.1840
 1283ERGO    C217264  11.295   5.436   7.141  0.0605  0.0118 -0.2190
 1284ERGO   ROH17265   4.063  15.884   9.432 -0.0213 -0.1006  0.0517
 1284ERGO    R117266   4.232  15.888   9.204 -0.0610 -0.0600  0.0215
 1284ERGO    R217267   4.188  15.727   8.983 -0.0695 -0.0626  0.0185
 1284ERGO    R317268   4.196  15.964   8.850 -0.1409 -0.0535  0.0325
 1284ERGO    R417269   4.269  15.765   8.649  0.2066  0.0197  0.0933
 1284ERGO    R517270   4.382  15.943   8.702  0.0110  0.1075  0.2017
 1284ERGO    C117271   4.324  16.009   8.330  0.3004  0.0763  0.1500
 1284ERGO    C217272   4.457  16.086   8.000 -0.0080 -0.1114 -0.0229
 1285ERGO   ROH17273  12.285   0.481   9.905 -0.0406  0.0115 -0.1060
 1285ERGO    R117274  12.151   0.390   9.673 -0.1436  0.0609 -0.0652
 1285ERGO    R217275  12.105   0.552   9.454 -0.1147  0.0633 -0.0598
 1285ERGO    R317276  12.230   0.351   9.320 -0.2547 -0.0096 -0.0854
 1285ERGO    R417277  12.108   0.518   9.110 -0.0751  0.1692 -0.0710
 1285ERGO    R517278  12.083   0.303   9.137 -0.2675  0.1729 -0.1342
 1285ERGO    C117279  12.227   0.310   8.784 -0.1835  0.1623 -0.1013
 1285ERGO    C217280  12.209   0.379   8.488 -0.2920  0.0359  0.0490
 1286ERGO   ROH17281   1.121   7.584   6.300  0.3767 -0.2825 -0.2495
 1286ERGO    R117282   0.938   7.505   6.501  0.2523 -0.0510 -0.2710
 1286ERGO    R217283   0.892   7.240   6.565  0.1432  0.0249 -0.0639
 1286ERGO    R317284   0.954   7.324   6.816  0.0338  0.2189 -0.0979
 1286ERGO    R417285   0.761   7.107   6.856  0.4021 -0.1213 -0.0085
 1286ERGO    R517286   0.747   7.309   6.936  0.0601 -0.1041 -0.0717
 1286ERGO    C117287   0.742   7.108   7.261  0.4501 -0.0243 -0.0080
 1286ERGO    C217288   0.599   6.894   7.551  0.0680  0.0082 -0.0617
 1287ERGO   ROH17289  10.755   0.652   6.373  0.0906 -0.0786  0.1021
 1287ERGO    R117290  10.788   0.910   6.484  0.2405 -0.0998  0.1120
 1287ERGO    R217291  10.598   1.028   6.646  0.1289  0.1619 -0.1907
 1287ERGO    R317292  10.806   1.054   6.818 -0.0923 -0.0801  0.1233
 1287ERGO    R417293  10.605   1.243   6.916 -0.0292  0.1292 -0.1604
 1287ERGO    R517294  10.813   1.288   6.869  0.0920 -0.0937  0.1508
 1287ERGO    C117295  10.805   1.393   7.235 -0.3288 -0.1171  0.1519
 1287ERGO    C217296  10.584   1.534   7.438  0.0883  0.3461 -0.2382
 1288ERGO   ROH17297   4.909   3.267   7.631 -0.1940  0.0086 -0.1508
 1288ERGO    R117298   4.949   3.533   7.719 -0.2752  0.0100 -0.1208
 1288ERGO    R217299   5.048   3.731   7.555 -0.0987 -0.0047 -0.0260
 1288ERGO    R317300   4.822   3.863   7.631 -0.1719  0.0140 -0.2634
 1288ERGO    R417301   4.978   4.062   7.483  0.1463  0.0841  0.1301
 1288ERGO    R517302   4.897   4.084   7.684 -0.1590 -0.0536  0.0350
 1288ERGO    C117303   4.725   4.378   7.513  0.2202  0.1535 -0.0020
 1288ERGO    C217304   4.628   4.740   7.282 -0.0272  0.2690 -0.2310
 1289ERGO   ROH17305   0.850   6.618   5.905 -0.2270  0.0816  0.1328
 1289ERGO    R117306   0.815   6.474   6.146 -0.0742  0.1598  0.2027
 1289ERGO    R217307   0.876   6.206   6.171 -0.3345  0.0938  0.1629
 1289ERGO    R317308   1.028   6.293   6.379  0.0324 -0.0337 -0.0409
 1289ERGO    R417309   1.007   6.003   6.418 -0.4739  0.0211  0.1775
 1289ERGO    R517310   0.957   6.157   6.564 -0.0489  0.2232  0.1226
 1289ERGO    C117311   1.225   5.966   6.758 -0.2106 -0.1410 -0.0053
 1289ERGO    C217312   1.360   5.931   7.119  0.1381  0.0405  0.2611
 1290ERGO   ROH17313  12.883  10.400   5.981 -0.2143 -0.1693 -0.0657
 1290ERGO    R117314  12.880  10.395   6.264 -0.1699 -0.1744 -0.0649
 1290ERGO    R217315  13.095  10.308   6.414 -0.1320 -0.1433 -0.0985
 1290ERGO    R317316  13.069  10.551   6.534 -0.1524 -0.1487 -0.0926
 1290ERGO    R417317  13.233  10.393   6.719 -0.0341 -0.0965 -0.1558
 1290ERGO    R517318  13.049  10.500   6.767 -0.0440 -0.1484 -0.0840
 1290ERGO    C117319  13.290  10.671   7.009  0.0038 -0.0744 -0.1836
 1290ERGO    C217320  13.505  10.667   7.274  0.1559  0.1878  0.0690
 1291ERGO   ROH17321   8.699   4.217   6.829  0.1402  0.1504 -0.0950
 1291ERGO    R117322   8.773   4.229   7.102  0.0884  0.0483 -0.0768
 1291ERGO    R217323   9.025   4.307   7.185  0.0350  0.1244  0.0029
 1291ERGO    R317324   8.884   4.485   7.334 -0.0708 -0.0155  0.0739
 1291ERGO    R417325   9.111   4.411   7.503  0.1397  0.2600 -0.0679
 1291ERGO    R517326   8.901   4.402   7.558  0.1789  0.0252  0.0767
 1291ERGO    C117327   9.029   4.638   7.829  0.1014  0.2076 -0.0424
 1291ERGO    C217328   9.139   4.620   8.168 -0.1505 -0.4085 -0.0724
 1292ERGO   ROH17329  16.239  17.970   6.083 -0.0156 -0.2950 -0.0228
 1292ERGO    R117330  16.080  18.018   6.312  0.0384 -0.2033 -0.0043
 1292ERGO    R217331  16.152  17.933   6.565  0.0878 -0.1183  0.0083
 1292ERGO    R317332  16.117  18.195   6.628  0.1187 -0.0941 -0.0734
 1292ERGO    R417333  15.994  18.049   6.849 -0.0712 -0.0163 -0.1199
 1292ERGO    R517334  15.901  18.204   6.729  0.0508 -0.0144 -0.2188
 1292ERGO    C117335  15.869  18.363   7.074 -0.1347  0.0659 -0.2712
 1292ERGO    C217336  15.867  18.672   7.218 -0.4046 -0.0104 -0.1382
 1293ERGO   ROH17337   2.299  10.075   6.254 -0.2471  0.0986 -0.0064
 1293ERGO    R117338   2.144  10.185   6.464 -0.2140  0.0452  0.0458
 1293ERGO    R217339   2.137  10.074   6.717 -0.0820  0.0482  0.0509
 1293ERGO    R317340   2.208  10.324   6.794 -0.1493  0.0773  0.0202
 1293ERGO    R417341   2.133  10.187   7.043  0.0352  0.0392  0.0560
 1293ERGO    R517342   2.054  10.377   6.971 -0.0834  0.0078  0.0997
 1293ERGO    C117343   2.198  10.489   7.306  0.0402  0.0614  0.0301
 1293ERGO    C217344   2.537  10.703   7.439  0.1945  0.2713 -0.1012
 1294ERGO   ROH17345  13.538   4.930   5.683  0.1661  0.0220 -0.2367
 1294ERGO    R117346  13.565   4.834   5.948  0.1503 -0.0429 -0.2598
 1294ERGO    R217347  13.771   4.914   6.114  0.0005  0.1032 -0.1524
 1294ERGO    R317348  13.567   4.979   6.282 -0.1318 -0.1578 -0.2034
 1294ERGO    R417349  13.810   5.009   6.444 -0.1885  0.2348 -0.1651
 1294ERGO    R517350  13.634   4.890   6.494 -0.0308 -0.0191 -0.1703
 1294ERGO    C117351  13.642   5.126   6.794 -0.4227  0.0664 -0.2202
 1294ERGO    C217352  13.810   5.275   7.054  0.3750 -0.0045 -0.0125
 1295ERGO   ROH17353   4.166   7.744   6.064 -0.2778 -0.0113  0.0744
 1295ERGO    R117354   4.262   7.564   6.260 -0.2727 -0.0093  0.0740
 1295ERGO    R217355   4.498   7.605   6.397 -0.1803 -0.0956 -0.0561
 1295ERGO    R317356   4.339   7.576   6.616 -0.0861  0.0463  0.0327
 1295ERGO    R417357   4.613   7.568   6.721 -0.0364 -0.0150 -0.0973
 1295ERGO    R517358   4.457   7.420   6.754 -0.0767  0.0549  0.0345
 1295ERGO    C117359   4.531   7.520   7.115  0.1358  0.1650 -0.0380
 1295ERGO    C217360   4.666   7.571   7.316 -0.0369 -0.0141 -0.2986
 1296ERGO   ROH17361  14.720   2.379   9.476  0.0049 -0.2339  0.1864
 1296ERGO    R117362  14.768   2.389   9.197  0.0506 -0.1496  0.1964
 1296ERGO    R217363  14.759   2.164   9.036 -0.0300 -0.0871  0.1063
 1296ERGO    R317364  14.582   2.314   8.894  0.0585  0.0513  0.1415
 1296ERGO    R417365  14.721   2.152   8.693  0.0503  0.1206  0.0892
 1296ERGO    R517366  14.699   2.369   8.692  0.1245  0.1248  0.2029
 1296ERGO    C117367  14.533   2.285   8.359  0.1801  0.3715  0.1124
 1296ERGO    C217368  14.529   2.363   8.035 -0.2144 -0.0455 -0.1745
 1297ERGO   ROH17369   7.749   8.905   6.630 -0.0272 -0.2723 -0.0218
 1297ERGO    R117370   7.498   8.925   6.759 -0.0248 -0.0989 -0.0417
 1297ERGO    R217371   7.406   8.733   6.937 -0.1542 -0.0167 -0.0208
 1297ERGO    R317372   7.377   8.947   7.102 -0.0359  0.0256 -0.0531
 1297ERGO    R417373   7.191   8.747   7.207 -0.0376  0.0881  0.0685
 1297ERGO    R517374   7.143   8.952   7.152 -0.0148  0.0883  0.0451
 1297ERGO    C117375   7.039   8.955   7.519  0.1413  0.1887  0.0902
 1297ERGO    C217376   6.974   9.180   7.894 -0.1818 -0.2312  0.0230
 1298ERGO   ROH17377  17.734   3.033   5.649  0.0368 -0.1656 -0.0503
 1298ERGO    R117378  17.742   3.073   5.929  0.0543 -0.0494 -0.0663
 1298ERGO    R217379  17.569   3.244   6.060  0.0326 -0.0268 -0.1198
 1298ERGO    R317380  17.515   3.024   6.210  0.0878  0.0226 -0.0273
 1298ERGO    R417381  17.487   3.250   6.395 -0.1130  0.1022 -0.1571
 1298ERGO    R517382  17.612   3.073   6.424 -0.0304  0.1848 -0.0112
 1298ERGO    C117383  17.388   3.046   6.731 -0.1463  0.2236 -0.0919
 1298ERGO    C217384  17.221   2.822   6.945 -0.1418  0.3161 -0.1811
 1299ERGO   ROH17385  16.875  18.770   5.805  0.1705  0.0174  0.0060
 1299ERGO    R117386  16.917  18.691   6.073  0.0686 -0.0324  0.0059
 1299ERGO    R217387  17.165  18.612   6.167  0.0499  0.0628  0.1088
 1299ERGO    R317388  17.119  18.804   6.353 -0.1313 -0.0136  0.1481
 1299ERGO    R417389  17.379  18.691   6.427 -0.0001  0.2131  0.1070
 1299ERGO    R517390  17.206  18.713   6.557 -0.0247  0.0194  0.1274
 1299ERGO    C117391  17.460  18.919   6.752 -0.1997  0.2290  0.1428
 1299ERGO    C217392  17.674  19.079   7.001  0.2382  0.2617  0.0707
 1300ERGO   ROH17393   5.911   3.876   6.501 -0.1940 -0.1405  0.2772
 1300ERGO    R117394   6.033   3.899   6.755 -0.0721  0.0963  0.2007
 1300ERGO    R217395   5.973   4.104   6.930 -0.3749 -0.0197  0.2447
 1300ERGO    R317396   5.923   3.900   7.102  0.1432 -0.1372  0.2714
 1300ERGO    R417397   6.038   4.111   7.270 -0.0624  0.0393  0.1864
 1300ERGO    R517398   6.106   3.904   7.256  0.2850  0.1577  0.0982
 1300ERGO    C117399   6.028   3.922   7.629  0.6059 -0.0365  0.1777
 1300ERGO    C217400   5.896   4.047   8.014  0.3851 -0.3382  0.1855
 1301ERGO   ROH17401   6.128   0.942   6.040 -0.3393  0.1111  0.0969
 1301ERGO    R117402   6.227   0.979   6.303 -0.2121  0.1908  0.0366
 1301ERGO    R217403   6.088   1.121   6.495 -0.2817 -0.0513  0.1528
 1301ERGO    R317404   6.120   0.893   6.640  0.1413 -0.0379  0.0990
 1301ERGO    R417405   6.063   1.100   6.839 -0.5763 -0.2082  0.1263
 1301ERGO    R517406   6.233   0.964   6.839 -0.2170  0.1968  0.2398
 1301ERGO    C117407   6.077   0.874   7.175 -0.3508 -0.2870  0.0605
 1301ERGO    C217408   6.066   0.832   7.433  0.0188  0.0199  0.0150
 1302ERGO   ROH17409   5.548  18.311   5.838 -0.0992 -0.0129 -0.0179
 1302ERGO    R117410   5.462  18.401   6.092 -0.0215 -0.0060  0.0059
 1302ERGO    R217411   5.240  18.297   6.219  0.0237 -0.0072  0.0790
 1302ERGO    R317412   5.415  18.257   6.422  0.0879  0.0063  0.0276
 1302ERGO    R417413   5.153  18.278   6.553  0.1058 -0.1399  0.0940
 1302ERGO    R517414   5.332  18.394   6.600  0.0699 -0.0781  0.0865
 1302ERGO    C117415   5.268  18.229   6.938  0.2138 -0.2041  0.0544
 1302ERGO    C217416   5.275  18.033   7.249 -0.2482  0.2073 -0.2047
 1303ERGO   ROH17417  14.635   1.924   5.828 -0.0834  0.0310 -0.0729
 1303ERGO    R117418  14.739   1.916   6.091 -0.2529 -0.0006 -0.0055
 1303ERGO    R217419  14.979   2.035   6.159 -0.0937 -0.3569  0.0715
 1303ERGO    R317420  14.827   2.160   6.348 -0.0076 -0.0024 -0.0850
 1303ERGO    R417421  15.103   2.188   6.444  0.0002 -0.2874 -0.0058
 1303ERGO    R517422  14.934   2.106   6.555 -0.1551  0.0217 -0.0001
 1303ERGO    C117423  15.032   2.394   6.786  0.1357  0.0858 -0.1978
 1303ERGO    C217424  15.153   2.609   7.154  0.0698 -0.3331 -0.1694
 1304ERGO   ROH17425  12.377  16.277   9.368  0.0594 -0.0279 -0.0553
 1304ERGO    R117426  12.273  16.323   9.109  0.0151  0.0132 -0.0304
 1304ERGO    R217427  12.313  16.559   8.971  0.1183 -0.0215 -0.0607
 1304ERGO    R317428  12.407  16.393   8.778 -0.0336 -0.0937 -0.0737
 1304ERGO    R417429  12.351  16.645   8.639  0.0175 -0.0891 -0.0899
 1304ERGO    R517430  12.277  16.448   8.584 -0.0913 -0.0669 -0.0284
 1304ERGO    C117431  12.462  16.540   8.264 -0.1836 -0.1960 -0.1192
 1304ERGO    C217432  12.611  16.386   7.988 -0.0043  0.1617 -0.3156
 1305ERGO   ROH17433  13.715  16.904   6.086 -0.0678  0.0310  0.0862
 1305ERGO    R117434  13.648  16.882   6.360 -0.2532  0.1854  0.0556
 1305ERGO    R217435  13.838  16.866   6.560 -0.3711 -0.2754  0.1467
 1305ERGO    R317436  13.701  17.077   6.663  0.0767  0.0627  0.0792
 1305ERGO    R417437  13.800  16.931   6.897 -0.3365 -0.1449  0.1260
 1305ERGO    R517438  13.594  16.988   6.858 -0.1979  0.3316  0.0545
 1305ERGO    C117439  13.650  17.166   7.190  0.1041  0.2485  0.0506
 1305ERGO    C217440  13.827  17.130   7.455  0.0755 -0.2967  0.0153
 1306ERGO   ROH17441  13.889  18.590   5.773 -0.1944  0.2195  0.0237
 1306ERGO    R117442  13.689  18.524   5.962 -0.1692  0.1642  0.0317
 1306ERGO    R217443  13.744  18.389   6.196 -0.1369  0.0964 -0.0122
 1306ERGO    R317444  13.618  18.601   6.310 -0.1220  0.0646  0.0630
 1306ERGO    R417445  13.631  18.400   6.523 -0.1596 -0.0170 -0.0161
 1306ERGO    R517446  13.453  18.502   6.452 -0.1419  0.0290  0.0126
 1306ERGO    C117447  13.447  18.605   6.820 -0.1588 -0.1126  0.0522
 1306ERGO    C217448  13.394  18.758   7.209  0.4227  0.1185 -0.0695
 1307ERGO   ROH17449   0.565   9.300   6.169 -0.1406  0.1136 -0.0929
 1307ERGO    R117450   0.539   9.111   6.378 -0.0931  0.0888 -0.1127
 1307ERGO    R217451   0.751   8.955   6.464 -0.0368  0.2013 -0.0728
 1307ERGO    R317452   0.685   9.059   6.707 -0.1523  0.1442 -0.0756
 1307ERGO    R417453   0.817   8.803   6.767  0.3134  0.3719 -0.0554
 1307ERGO    R517454   0.620   8.868   6.837  0.2094  0.0491 -0.0163
 1307ERGO    C117455   0.794   8.811   7.172  0.4089  0.4178 -0.0478
 1307ERGO    C217456   1.034   8.769   7.397  0.1883 -0.1792  0.0623
 1308ERGO   ROH17457   6.426   8.393   6.659 -0.0505  0.0744 -0.0787
 1308ERGO    R117458   6.519   8.552   6.874 -0.0066 -0.0125 -0.0338
 1308ERGO    R217459   6.394   8.556   7.121  0.0433 -0.1094 -0.0107
 1308ERGO    R317460   6.642   8.494   7.211  0.0602 -0.1457 -0.0791
 1308ERGO    R417461   6.507   8.613   7.442  0.1585 -0.0519 -0.0601
 1308ERGO    R517462   6.699   8.674   7.359  0.1493 -0.1167 -0.1420
 1308ERGO    C117463   6.806   8.587   7.715  0.2416 -0.0526 -0.1530
 1308ERGO    C217464   6.753   8.627   7.989  0.0847  0.3325 -0.3955
 1309ERGO   ROH17465   3.841  15.353   6.094  0.2508  0.2037  0.1052
 1309ERGO    R117466   3.848  15.101   6.223  0.1910  0.1873  0.0773
 1309ERGO    R217467   3.986  14.885   6.120  0.1647  0.1740  0.0684
 1309ERGO    R317468   4.104  14.885   6.366  0.1363  0.1258  0.0819
 1309ERGO    R417469   4.062  14.601   6.303  0.1059  0.1405  0.0407
 1309ERGO    R517470   3.996  14.705   6.483  0.0994  0.1253  0.0463
 1309ERGO    C117471   4.216  14.435   6.639  0.0451  0.0757  0.0372
 1309ERGO    C217472   4.223  14.190   6.871  0.1514  0.3204  0.0724
 1310ERGO   ROH17473   0.195   1.579   9.071  0.1849  0.0967  0.1584
 1310ERGO    R117474   0.200   1.758   8.852  0.0139  0.0784  0.1385
 1310ERGO    R217475   0.430   1.807   8.705 -0.0826  0.1285  0.0090
 1310ERGO    R317476   0.271   1.738   8.496 -0.1780  0.0682  0.0992
 1310ERGO    R417477   0.514   1.844   8.372 -0.2382  0.0605 -0.0393
 1310ERGO    R517478   0.310   1.909   8.332 -0.2653  0.0374  0.0417
 1310ERGO    C117479   0.414   1.801   7.981 -0.4183 -0.0357  0.0170
 1310ERGO    C217480   0.346   1.638   7.605 -0.1583 -0.0025 -0.2352
 1311ERGO   ROH17481  13.312   7.818   6.088 -0.0362  0.1030 -0.1704
 1311ERGO    R117482  13.332   7.705   6.347 -0.0484  0.1198 -0.1617
 1311ERGO    R217483  13.572   7.689   6.484 -0.0314  0.0168 -0.1992
 1311ERGO    R317484  13.431   7.818   6.678  0.0632  0.1067 -0.1904
 1311ERGO    R417485  13.672   7.720   6.814 -0.0110 -0.0853 -0.1962
 1311ERGO    R517486  13.466   7.686   6.874 -0.0377  0.0647 -0.2012
 1311ERGO    C117487  13.599   7.859   7.187  0.0899 -0.0603 -0.1861
 1311ERGO    C217488  13.479   8.079   7.458 -0.0587  0.0190 -0.2789
 1312ERGO   ROH17489  18.141  18.301   5.952 -0.1882 -0.1137 -0.2055
 1312ERGO    R117490  18.228  18.226   6.211 -0.1990 -0.1874 -0.2233
 1312ERGO    R217491  18.203  18.393   6.430  0.0020 -0.1582 -0.2223
 1312ERGO    R317492  18.075  18.179   6.538 -0.1713 -0.0394 -0.1882
 1312ERGO    R417493  18.128  18.356   6.765  0.1346 -0.1267 -0.1881
 1312ERGO    R517494  18.182  18.146   6.749 -0.0966 -0.1841 -0.2477
 1312ERGO    C117495  17.964  18.134   7.062  0.0491  0.0033 -0.1362
 1312ERGO    C217496  17.882  18.186   7.352  0.3381  0.1321  0.1561
 1313ERGO   ROH17497  18.537   2.987   5.858  0.2548 -0.2029 -0.1095
 1313ERGO    R117498  18.564   2.880   6.119  0.2564 -0.0818 -0.0613
 1313ERGO    R217499  18.749   2.975   6.301  0.0269  0.2268  0.0051
 1313ERGO    R317500  18.530   3.003   6.459 -0.0961 -0.0165 -0.1133
 1313ERGO    R417501  18.755   3.078   6.630 -0.2624  0.3646 -0.0269
 1313ERGO    R517502  18.603   2.929   6.675 -0.0864  0.1600 -0.0467
 1313ERGO    C117503  18.554   3.164   6.972 -0.5463  0.2165 -0.1567
 1313ERGO    C217504  18.605   3.173   7.282  0.3321  0.0730 -0.0298
 1314ERGO   ROH17505  18.701   9.704   5.727  0.0509 -0.1146  0.0844
 1314ERGO    R117506  18.758   9.941   5.871 -0.2035 -0.0215  0.0370
 1314ERGO    R217507  18.635  10.003   6.110 -0.0981 -0.2252  0.1466
 1314ERGO    R317508  18.891  10.026   6.198 -0.0500  0.1842 -0.0764
 1314ERGO    R417509  18.726  10.104   6.428  0.0160 -0.1647  0.0950
 1314ERGO    R517510  18.888  10.220   6.339 -0.2548  0.1414 -0.0194
 1314ERGO    C117511  19.019  10.185   6.696  0.1280  0.2549 -0.1443
 1314ERGO    C217512  18.923  10.267   7.109  0.2339 -0.1456  0.1289
 1315ERGO   ROH17513  13.161   0.701   5.919  0.2890 -0.0411  0.1010
 1315ERGO    R117514  13.198   0.783   6.188  0.0820  0.0292  0.1104
 1315ERGO    R217515  12.987   0.854   6.352 -0.0724 -0.1862  0.0141
 1315ERGO    R317516  13.095   0.666   6.517  0.0673 -0.0532  0.0762
 1315ERGO    R417517  12.959   0.854   6.697 -0.1086 -0.1210  0.0109
 1315ERGO    R517518  13.167   0.790   6.709 -0.0570  0.0566  0.0516
 1315ERGO    C117519  13.043   0.677   7.052  0.0013  0.0418  0.0673
 1315ERGO    C217520  13.023   0.566   7.237  0.0310  0.1701 -0.1088
 1316ERGO   ROH17521  17.414   7.925   5.804 -0.0668 -0.0248  0.2965
 1316ERGO    R117522  17.280   7.881   6.050  0.0115  0.0093  0.3455
 1316ERGO    R217523  17.358   7.685   6.228  0.0547  0.0202  0.3373
 1316ERGO    R317524  17.366   7.893   6.404  0.1303  0.0351  0.3167
 1316ERGO    R417525  17.244   7.672   6.554  0.0141  0.1013  0.3266
 1316ERGO    R517526  17.162   7.873   6.528  0.1062  0.1376  0.2972
 1316ERGO    C117527  17.186   7.860   6.909  0.0614  0.1624  0.3009
 1316ERGO    C217528  17.287   7.570   7.101  0.2749 -0.3068 -0.1348
 1317ERGO   ROH17529  12.354  11.213   5.676  0.2330 -0.0482  0.0453
 1317ERGO    R117530  12.447  11.267   5.938  0.1348 -0.1249  0.0966
 1317ERGO    R217531  12.538  11.515   6.016  0.0772 -0.1385  0.2131
 1317ERGO    R317532  12.353  11.486   6.213  0.0110 -0.2290  0.1381
 1317ERGO    R417533  12.567  11.645   6.335 -0.1178 -0.1235  0.2262
 1317ERGO    R517534  12.483  11.460   6.412 -0.0580 -0.1646  0.1913
 1317ERGO    C117535  12.411  11.693   6.705 -0.2936 -0.1998  0.1635
 1317ERGO    C217536  12.490  11.802   6.983  0.2213  0.2233 -0.0127
 1318ERGO   ROH17537  11.962  15.082   5.586 -0.1796  0.0364  0.1531
 1318ERGO    R117538  11.979  15.113   5.867 -0.0401 -0.0293  0.1530
 1318ERGO    R217539  11.762  15.186   6.021  0.0717  0.0806  0.2604
 1318ERGO    R317540  11.825  14.960   6.159 -0.0149  0.0124  0.1880
 1318ERGO    R417541  11.605  15.081   6.311 -0.0406 -0.0094  0.1674
 1318ERGO    R517542  11.800  15.022   6.389 -0.0770 -0.0778  0.2055
 1318ERGO    C117543  11.572  14.808   6.608 -0.1873 -0.1261  0.0455
 1318ERGO    C217544  11.453  14.690   6.897 -0.0954 -0.0133 -0.1529
 1319ERGO   ROH17545   6.314  17.909   9.999 -0.0351 -0.2288  0.1220
 1319ERGO    R117546   6.332  17.792   9.742 -0.0534 -0.1113  0.0659
 1319ERGO    R217547   6.131  17.814   9.553 -0.0889 -0.0654  0.1063
 1319ERGO    R317548   6.333  17.908   9.397 -0.1308  0.0439  0.1180
 1319ERGO    R417549   6.097  17.910   9.223 -0.1265 -0.0430  0.1168
 1319ERGO    R517550   6.289  17.816   9.181 -0.0850  0.0495  0.1079
 1319ERGO    C117551   6.266  18.055   8.884 -0.1877  0.0721  0.1339
 1319ERGO    C217552   6.263  18.048   8.598  0.0463 -0.1213 -0.0763
 1320ERGO   ROH17553  15.311   6.038   5.872  0.0631  0.1436 -0.1017
 1320ERGO    R117554  15.343   6.138   6.134 -0.0439  0.0280 -0.0424
 1320ERGO    R217555  15.130   6.209   6.294 -0.1117 -0.0296 -0.1000
 1320ERGO    R317556  15.246   6.037   6.470 -0.1950 -0.1156 -0.1294
 1320ERGO    R417557  15.076   6.211   6.635 -0.0068  0.0147 -0.0838
 1320ERGO    R517558  15.289   6.171   6.664 -0.0329 -0.1500 -0.1447
 1320ERGO    C117559  15.154   6.051   7.000 -0.0239 -0.0402 -0.1021
 1320ERGO    C217560  14.861   5.919   7.263 -0.2529 -0.0217  0.0236
 1321ERGO   ROH17561  15.071   8.931   5.863  0.1389 -0.7217 -0.1460
 1321ERGO    R117562  15.057   8.754   6.083  0.0277 -0.5348  0.0012
 1321ERGO    R217563  15.191   8.802   6.321  0.0863 -0.4384 -0.0455
 1321ERGO    R317564  14.944   8.770   6.429  0.0688 -0.1657 -0.0000
 1321ERGO    R417565  15.125   8.642   6.620 -0.0358 -0.2337  0.0389
 1321ERGO    R517566  14.950   8.552   6.528 -0.1225 -0.1199  0.1062
 1321ERGO    C117567  14.855   8.519   6.896 -0.1233  0.1419  0.1307
 1321ERGO    C217568  14.856   8.560   7.290  0.0980 -0.4358  0.1357
 1322ERGO   ROH17569  13.354  16.586   6.120  0.0670  0.1362 -0.0744
 1322ERGO    R117570  13.313  16.594   6.400 -0.0292  0.3927 -0.0921
 1322ERGO    R217571  13.367  16.378   6.565 -0.5010  0.3819  0.0705
 1322ERGO    R317572  13.518  16.560   6.699 -0.2005  0.1878  0.0033
 1322ERGO    R417573  13.444  16.360   6.901 -0.1900  0.1858 -0.0072
 1322ERGO    R517574  13.414  16.576   6.914  0.0246  0.2057  0.1092
 1322ERGO    C117575  13.631  16.521   7.223  0.2731 -0.1108 -0.1155
 1322ERGO    C217576  13.618  16.506   7.613  0.0206 -0.1717  0.0778
 1323ERGO   ROH17577   9.629   1.464   6.461 -0.2595  0.0536  0.0915
 1323ERGO    R117578   9.780   1.613   6.648 -0.2586  0.0114  0.1245
 1323ERGO    R217579   9.663   1.748   6.859 -0.2643  0.0190  0.1171
 1323ERGO    R317580   9.839   1.604   7.007 -0.3140 -0.0261  0.1326
 1323ERGO    R417581   9.855   1.875   7.117 -0.1260  0.0075  0.0206
 1323ERGO    R517582  10.022   1.754   7.046 -0.2150 -0.1193  0.0289
 1323ERGO    C117583  10.133   1.813   7.406 -0.0921 -0.0415 -0.0210
 1323ERGO    C217584  10.338   1.915   7.649 -0.2356 -0.0223 -0.0149
 1324W        W17585  11.468   9.644   1.836  0.4376 -0.1280 -0.2082
 1325W        W17586   2.635   3.169   9.832  0.0530 -0.0454 -0.2036
 1326W        W17587  16.608  12.851  14.480  0.0068  0.1721  0.6508
 1327W        W17588   7.295  11.361  11.260  0.0131 -0.1845  0.0461
 1328W        W17589   7.974   6.432  12.637 -0.2361 -0.0464  0.1070
 1329W        W17590  18.368  12.840   1.808 -0.1834 -0.0949 -0.0524
 1330W        W17591  10.316  17.145  14.118  0.1948  0.0274 -0.2065
 1331W        W17592   8.930   5.759  12.956  0.1407 -0.2741  0.1256
 1332W        W17593   6.788   4.261  14.199 -0.0939 -0.1950  0.0549
 1333W        W17594   6.905   0.020  13.303 -0.3570 -0.0014 -0.1995
 1334W        W17595   9.340   4.237  14.238 -0.0444 -0.1543 -0.0260
 1335W        W17596  14.156  13.240   1.006  0.3338  0.0956 -0.1995
 1336W        W17597  13.282  12.653   2.376  0.1419 -0.0564  0.0887
 1337W        W17598  11.576   0.817  13.398  0.2632  0.0595  0.0573
 1338W        W17599   6.562  14.206  14.344  0.1170 -0.0585 -0.1118
 1339W        W17600  18.482   3.137  10.894 -0.0753 -0.0070  0.0238
 1340W        W17601   3.573  11.780  15.126 -0.2333  0.0289 -0.2132
 1341W        W17602   1.751   9.806   3.806  0.2414  0.2573 -0.0233
 1342W        W17603  14.714  15.633  12.762 -0.0521  0.3277 -0.3305
 1343W        W17604  12.846  16.966  12.769 -0.1966  0.0397  0.1315
 1344W        W17605  10.538  11.946   4.525 -0.2600  0.0743 -0.0434
 1345W        W17606  16.127   6.613   4.558  0.1397  0.1940  0.2655
 1346W        W17607   5.459  13.202  10.694  0.0895  0.0961  0.0331
 1347W        W17608   1.980  11.942   0.064 -0.0854  0.1911  0.0368
 1348W        W17609   0.673  13.140   0.151  0.0772  0.2233  0.5985
 1349W        W17610   9.259  10.821  11.252  0.0430  0.2353  0.2971
 1350W        W17611  16.838   2.181   0.367  0.0279 -0.0019  0.1972
 1351W        W17612   5.873   5.688   5.858  0.0283  0.0582  0.1141
 1352W        W17613   4.412  15.416   2.248 -0.1794  0.0351 -0.3998
 1353W        W17614   9.963  14.113  14.677  0.2607 -0.2871  0.0850
 1354W        W17615  15.548  12.288   0.767  0.1733 -0.3959 -0.2644
 1355W        W17616   2.978   6.754  14.011  0.1211  0.3640  0.0650
 1356W        W17617  14.188   9.672  12.886 -0.0248 -0.0188  0.0090
 1357W        W17618  18.620  16.792   4.840  0.2043  0.1786 -0.0786
 1358W        W17619   4.477  11.713   5.460  0.0330  0.1081 -0.2000
 1359W        W17620   2.399  10.862   0.497 -0.1133 -0.0459 -0.6317
 1360W        W17621  16.234  18.643  13.483  0.2013  0.0088  0.1994
 1361W        W17622  14.105  12.527  12.959  0.1513 -0.0744 -0.0357
 1362W        W17623   3.855   3.132  13.644 -0.2083 -0.1474  0.1423
 1363W        W17624  10.500   9.472   3.903 -0.1059 -0.0246 -0.0085
 1364W        W17625  17.563  13.614   4.955  0.0297  0.1259  0.1039
 1365W        W17626  16.011  15.256  11.376 -0.0485  0.1663 -0.1732
 1366W        W17627  13.861   3.837   1.926  0.2184  0.2118  0.3791
 1367W        W17628  12.759   7.803   4.247  0.2248  0.1498  0.0476
 1368W        W17629  11.151  18.583  12.862 -0.3671  0.0217  0.4995
 1369W        W17630  12.276  14.221  14.201 -0.0661  0.5082 -0.0578
 1370W        W17631  11.008  12.526   1.408  0.1369  0.0243 -0.1166
 1371W        W17632  13.015   1.110   4.007  0.1756 -0.2957  0.1459
 1372W        W17633   1.472   9.314  13.307 -0.2096  0.0838  0.1343
 1373W        W17634   4.532   7.748  13.220  0.0340 -0.0851 -0.2253
 1374W        W17635  17.023   0.981  15.581  0.0739 -0.0443 -0.0876
 1375W        W17636  16.320   6.845  15.355  0.4461  0.2529 -0.0593
 1376W        W17637   3.473   1.098  15.451  0.1516  0.1356  0.0170
 1377W        W17638   9.670   8.276   1.671  0.1537 -0.1902  0.1159
 1378W        W17639  17.337  17.754  11.573 -0.1410 -0.0518  0.0454
 1379W        W17640  15.676  10.620   0.071 -0.0444  0.0063 -0.1804
 1380W        W17641  16.065  13.328   4.276 -0.1959  0.0514 -0.2288
 1381W        W17642   5.759   3.549   0.880  0.1539  0.0587 -0.0942
 1382W        W17643   7.507  16.383  13.184  0.2822  0.2245  0.2160
 1383W        W17644   2.132  11.519  10.566  0.1493 -0.3495  0.1322
 1384W        W17645   4.087   6.489  11.820  0.0592  0.1017  0.0089
 1385W        W17646  13.578   8.209   1.802  0.3307 -0.1222 -0.5404
 1386W        W17647   9.094  17.753  10.967 -0.1144  0.1344  0.1741
 1387W        W17648   4.432  10.809   2.206 -0.2612  0.0166  0.3172
 1388W        W17649  12.191   6.858  11.225  0.0421  0.0791 -0.2243
 1389W        W17650   1.889   4.118  12.598  0.0213 -0.1510  0.2869
 1390W        W17651   7.152   6.194  13.335 -0.0506 -0.2024  0.0120
 1391W        W17652  10.737   5.866   0.657 -0.0956  0.2912  0.3018
 1392W        W17653   6.281  11.244   3.140 -0.2585 -0.0873  0.2607
 1393W        W17654   4.989  14.821  14.765 -0.2118  0.2898 -0.0456
 1394W        W17655   7.626  15.841   3.955  0.0474 -0.0979  0.2726
 1395W        W17656   9.519  15.485  15.015  0.0899 -0.3272  0.0615
 1396W        W17657  16.384  13.593  15.195 -0.3871  0.0244  0.3861
 1397W        W17658  10.464   3.538   4.756 -0.0363  0.3984 -0.0529
 1398W        W17659  18.688  13.691   2.524  0.2907 -0.2003 -0.1261
 1399W        W17660  11.896  11.627  14.440 -0.1266  0.0643 -0.1111
 1400W        W17661  12.770   7.317   0.798 -0.2193 -0.5505  0.0842
 1401W        W17662   2.384  14.506   4.367 -0.0475 -0.0306  0.1589
 1402W        W17663  16.189   8.897   2.840  0.0656 -0.0708 -0.3015
 1403W        W17664  16.581   6.762  11.761 -0.0373  0.0192  0.1359
 1404W        W17665   1.745   1.324   2.444 -0.3095 -0.1415 -0.0325
 1405W        W17666   9.025   1.850  15.173 -0.3721 -0.2774  0.0475
 1406W        W17667   6.162   6.873  15.440  0.1438 -0.0006  0.1699
 1407W        W17668  17.283  17.550  12.929 -0.0506  0.5066 -0.0452
 1408W        W17669   1.773  13.193   0.971  0.0564 -0.0699 -0.0387
 1409W        W17670  17.498  11.343   4.551  0.2460 -0.0094 -0.1748
 1410W        W17671   4.443   2.526  14.663 -0.3340  0.2322 -0.3220
 1411W        W17672   9.722   5.075   4.433  0.1720  0.5533 -0.3207
 1412W        W17673  11.400   5.674   3.865 -0.3230 -0.1494  0.1532
 1413W        W17674   1.162  17.429   3.067  0.1398 -0.2080 -0.0578
 1414W        W17675  15.082  15.088   5.475 -0.1325  0.0548  0.2683
 1415W        W17676   6.238  13.465   5.339 -0.0519  0.1418 -0.0375
 1416W        W17677   2.648   7.218  13.960 -0.0421  0.0333  0.1383
 1417W        W17678   3.450   4.345   1.057  0.1232  0.0367  0.1919
 1418W        W17679   8.830   3.067   3.493  0.1480  0.0690 -0.0408
 1419W        W17680  17.470   3.196  12.757 -0.1717 -0.1159 -0.1280
 1420W        W17681   6.956  15.223  15.576 -0.4629  0.1747  0.2538
 1421W        W17682  13.771   3.479  11.358 -0.0119 -0.0786 -0.0088
 1422W        W17683   5.633   1.149   2.295 -0.1000  0.2732  0.2204
 1423W        W17684   4.556   2.423   4.044  0.0935 -0.4448  0.0510
 1424W        W17685  18.329   5.107  11.567 -0.0568  0.2411 -0.2548
 1425W        W17686   3.199   8.337   1.236  0.0530  0.2698 -0.2059
 1426W        W17687   0.981   7.522   4.670 -0.0271  0.3558  0.0148
 1427W        W17688   3.367   1.837   3.608 -0.1590 -0.1586 -0.1826
 1428W        W17689   7.339   4.602   1.590 -0.0969  0.2529  0.2153
 1429W        W17690  12.321   8.456  10.723 -0.2202 -0.0174 -0.0744
 1430W        W17691  17.564  14.465  10.914 -0.3015  0.0507  0.0747
 1431W        W17692  12.786   4.044   5.667  0.0955 -0.1369 -0.0772
 1432W        W17693  14.075   0.409   0.776 -0.0919  0.0784 -0.0727
 1433W        W17694   0.163   8.805  12.866 -0.2193  0.0327 -0.2059
 1434W        W17695   4.220  12.801   9.719 -0.1022 -0.1229 -0.2043
 1435W        W17696   5.008   7.780  12.994 -0.0858 -0.0174 -0.0816
 1436W        W17697   6.687  15.705  14.662 -0.0706  0.1739 -0.0389
 1437W        W17698   3.491  10.871  15.243 -0.1643 -0.0488  0.0386
 1438W        W17699   4.428  13.147  12.835 -0.1614  0.0003  0.2694
 1439W        W17700  10.752   9.349   1.511  0.1010  0.0458 -0.0443
 1440W        W17701   9.341  17.888   2.630 -0.1433  0.0229 -0.0988
 1441W        W17702   4.461  12.031  11.397 -0.0339  0.0700 -0.1298
 1442W        W17703  18.252   9.963   4.968  0.0071 -0.1041  0.0936
 1443W        W17704  16.984  17.284   4.117 -0.1920  0.1640  0.0160
 1444W        W17705   9.996   5.011   4.896 -0.2495  0.1585  0.1475
 1445W        W17706   4.516   5.172  12.013 -0.2117  0.3724  0.1985
 1446W        W17707   5.680  14.282  14.703 -0.2013 -0.1154 -0.3886
 1447W        W17708  16.809   2.447   3.068  0.0338  0.0933  0.0063
 1448W        W17709   8.545   4.510  13.697  0.0475 -0.0637 -0.1028
 1449W        W17710   9.145  11.772   9.504 -0.0576 -0.0308  0.2572
 1450W        W17711   9.680  18.429   1.253 -0.1109 -0.2594  0.2489
 1451W        W17712   8.344   6.318  15.153  0.2528  0.3478  0.2877
 1452W        W17713  17.165   3.496  12.421 -0.1143  0.2274  0.0275
 1453W        W17714  18.398  10.915   2.961  0.2667 -0.0870  0.0586
 1454W        W17715   5.720  15.699  14.217 -0.0409 -0.1832 -0.0448
 1455W        W17716   7.877  11.068  10.190 -0.0030 -0.3704 -0.1572
 1456W        W17717   8.156   5.203   0.821  0.3159  0.1683 -0.2431
 1457W        W17718  18.094   5.512   2.291 -0.0147 -0.0344 -0.1488
 1458W        W17719   3.273  18.549   4.791 -0.0111 -0.0850  0.0471
 1459W        W17720   3.973   8.162   5.343 -0.0760  0.0706  0.2621
 1460W        W17721   5.797  11.314   4.807  0.0003 -0.3192 -0.4481
 1461W        W17722  10.720  18.594  15.505 -0.1449  0.0167 -0.2646
 1462W        W17723  17.412   8.703   5.469 -0.1548 -0.2343  0.4039
 1463W        W17724   0.988  12.295  13.689 -0.1819 -0.0120  0.0069
 1464W        W17725   9.043   1.098   2.378  0.3019 -0.0098 -0.0629
 1465W        W17726  15.548   0.558   4.304  0.1057 -0.1783  0.0342
 1466W        W17727   3.808  16.498   4.061  0.0502  0.0687 -0.1567
 1467W        W17728  11.712   0.132  14.007 -0.0013  0.3222  0.3971
 1468W        W17729  11.178   3.826  13.075 -0.0095 -0.3268 -0.2721
 1469W        W17730  18.596   1.524  15.110  0.0481  0.2829 -0.2448
 1470W        W17731   5.787   2.718  15.277  0.3987 -0.1509  0.0417
 1471W        W17732  12.764   4.979   2.944  0.2005 -0.3454 -0.0132
 1472W        W17733   2.902  13.969   1.590  0.0567  0.0054 -0.0294
 1473W        W17734   4.973  11.548   1.116  0.0730  0.0698  0.1658
 1474W        W17735  13.935   4.499   3.171 -0.0128 -0.0665  0.2329
 1475W        W17736   3.418  10.015  11.358 -0.2137 -0.1640  0.0111
 1476W        W17737   7.824  10.351  15.413  0.0415 -0.1253 -0.3243
 1477W        W17738  10.393  13.011  12.503 -0.1674 -0.1787  0.1388
 1478W        W17739   1.681   2.329  11.187 -0.0122 -0.0365 -0.4137
 1479W        W17740   7.884   7.069  11.936  0.0335  0.1186  0.1925
 1480W        W17741  15.490   3.773   1.539  0.0464  0.2699 -0.4577
 1481W        W17742  16.220   1.244   0.396 -0.2001 -0.3135  0.0082
 1482W        W17743   9.205  13.496   3.191 -0.0588  0.2870  0.0843
 1483W        W17744   2.483  16.922  11.600 -0.0137 -0.2932  0.0610
 1484W        W17745  13.323   1.161   4.943 -0.1061 -0.1728 -0.0268
 1485W        W17746  15.963   7.167   1.497 -0.4170  0.1205  0.0967
 1486W        W17747   5.783   0.573  14.855 -0.2278 -0.0368 -0.1908
 1487W        W17748   5.136   5.757  14.523 -0.0387 -0.1791 -0.0223
 1488W        W17749  15.849   6.852  11.130  0.1512  0.2505  0.0061
 1489W        W17750   9.447   7.850  13.322 -0.0129 -0.1093 -0.1435
 1490W        W17751   2.964   7.603   4.641 -0.3160  0.1518 -0.0439
 1491W        W17752  15.491   8.442   3.554 -0.0050  0.0165 -0.0449
 1492W        W17753  10.921  17.990   2.869  0.1460 -0.1221  0.0409
 1493W        W17754  11.194   5.721   4.722 -0.0612  0.0333  0.4440
 1494W        W17755  15.585   0.221   4.697 -0.6777  0.0041  0.2163
 1495W        W17756   5.519   4.758   5.650 -0.2416  0.0903 -0.0754
 1496W        W17757  17.047   6.757  13.283  0.2063  0.1079 -0.0495
 1497W        W17758  13.365  17.995   1.915  0.0331  0.2035  0.1027
 1498W        W17759  10.035  15.743   0.929  0.0569 -0.3108  0.0852
 1499W        W17760  15.039   6.627   1.843  0.1015 -0.3894  0.0636
 1500W        W17761   5.603  17.974   1.753 -0.0382  0.1956 -0.2127
 1501W        W17762  11.907  11.020   5.054  0.1119 -0.1229  0.2368
 1502W        W17763   3.729   2.623   0.144  0.0587 -0.0495 -0.1059
 1503W        W17764   5.984   8.724   0.702 -0.0677  0.0183 -0.0066
 1504W        W17765   1.027  15.807   0.263  0.2481  0.0325  0.2678
 1505W        W17766   5.557   2.358  15.089  0.0602 -0.0487  0.0232
 1506W        W17767   9.576  16.893   0.426 -0.1237 -0.2657 -0.0593
 1507W        W17768   8.577   0.330  12.585  0.2467  0.0490  0.0053
 1508W        W17769  17.678   6.952  14.901  0.1478  0.0735  0.1065
 1509W        W17770  15.458  16.683  14.043  0.1595 -0.1038  0.1433
 1510W        W17771  11.131  11.489  10.960 -0.1185  0.0326  0.0815
 1511W        W17772   0.420  14.644   1.442 -0.0261  0.3848 -0.0457
 1512W        W17773   8.109   3.146  12.810 -0.2942  0.1051 -0.0043
 1513W        W17774   7.957  16.596  14.325  0.2273 -0.1193  0.1556
 1514W        W17775  13.548   9.519  11.542  0.1160 -0.0768  0.1655
 1515W        W17776   1.869  12.792  11.753  0.0212  0.0911  0.0288
 1516W        W17777  13.659  16.404   1.650 -0.0864 -0.0529  0.1099
 1517W        W17778  16.023  12.534  15.294 -0.2013 -0.3277 -0.3662
 1518W        W17779  10.913   1.045  14.724 -0.3438 -0.1484  0.1058
 1519W        W17780  15.192  16.525   0.870 -0.1494  0.1285 -0.0115
 1520W        W17781  11.804  13.323   4.957  0.0166  0.1526  0.1795
 1521W        W17782   7.052   3.393   0.689 -0.1495 -0.1105 -0.1363
 1522W        W17783   2.579   2.049   2.621  0.3362 -0.2746 -0.2552
 1523W        W17784   5.020  10.892   3.496  0.1364 -0.0766  0.0139
 1524W        W17785  16.534   2.054   5.464  0.0432 -0.1649  0.0271
 1525W        W17786   7.627   6.187   0.347 -0.0149 -0.1534 -0.0064
 1526W        W17787  11.886  17.476   2.039 -0.0585 -0.0239  0.3268
 1527W        W17788   7.306  10.271  11.530 -0.3134  0.1960  0.0014
 1528W        W17789   9.808   8.543  12.819  0.4206 -0.2372 -0.0521
 1529W        W17790  15.992   2.006  12.039 -0.0667 -0.2700 -0.0696
 1530W        W17791   1.988  11.162  12.660  0.0991  0.0444  0.2664
 1531W        W17792   5.762   0.941  12.968 -0.1765  0.2276  0.1283
 1532W        W17793  14.807   6.160  13.340 -0.3768 -0.3275  0.1092
 1533W        W17794  12.014   3.020  12.100  0.0932  0.1232  0.1476
 1534W        W17795   5.286  14.499  12.612 -0.1040 -0.0224 -0.0014
 1535W        W17796  13.657   2.108  12.119 -0.4143 -0.2679 -0.1666
 1536W        W17797  11.911   0.631   3.122  0.2314 -0.3731 -0.0809
 1537W        W17798   6.050  13.735  11.143  0.2209  0.2767  0.0570
 1538W        W17799   0.247   5.332  12.668 -0.1612 -0.3347  0.1665
 1539W        W17800  16.821  15.094   1.711  0.3782 -0.0900  0.1668
 1540W        W17801  12.489  17.044   2.453  0.1279 -0.2531 -0.0757
 1541W        W17802   5.635  12.966  13.035  0.0275 -0.0426 -0.0664
 1542W        W17803  11.889  17.676   0.803  0.3167 -0.0702 -0.2485
 1543W        W17804  13.018   3.400   0.035  0.0408 -0.1038  0.0579
 1544W        W17805  10.683  13.555   0.283  0.2681 -0.0622  0.2577
 1545W        W17806   6.846   2.699  14.885 -0.0322  0.0612 -0.2874
 1546W        W17807  14.333   8.128   0.500 -0.0689  0.2384 -0.1162
 1547W        W17808   3.586  10.256   3.389 -0.0695 -0.0215  0.0373
 1548W        W17809  11.465   8.597  13.263 -0.0121  0.1259  0.1741
 1549W        W17810   6.828  13.418   1.055 -0.3815  0.2568  0.0476
 1550W        W17811   5.917   0.505   3.077  0.0250 -0.0365 -0.1646
 1551W        W17812   6.992   8.419  12.074  0.1522  0.2708 -0.3370
 1552W        W17813  18.455  14.161   1.127  0.3229 -0.1115  0.0657
 1553W        W17814  13.906   7.486   4.966 -0.0114  0.0964 -0.0572
 1554W        W17815   2.145  14.684   3.443 -0.0565 -0.3501  0.1842
 1555W        W17816  11.132  11.185  14.158 -0.0220 -0.2394  0.0988
 1556W        W17817   4.731   5.820   3.610  0.0375  0.3405  0.1732
 1557W        W17818  11.271   7.214   1.160  0.1386  0.1091 -0.0584
 1558W        W17819   5.457   6.904   2.784 -0.0648  0.0469 -0.1635
 1559W        W17820  14.834  10.899   4.295  0.1832 -0.1209  0.0419
 1560W        W17821  11.739  10.230   2.266 -0.0244 -0.0435 -0.0497
 1561W        W17822   0.177   6.152   1.684  0.0296  0.2200 -0.1305
 1562W        W17823  17.040   7.546   0.623 -0.2159  0.2024  0.0072
 1563W        W17824   4.141  12.810   1.763 -0.1569 -0.0397 -0.1532
 1564W        W17825  15.942   7.625   0.769 -0.0900  0.1687  0.1133
 1565W        W17826  15.289   5.928   2.550  0.0479 -0.1532 -0.1294
 1566W        W17827   2.617   7.408   4.212  0.2877  0.1455  0.1212
 1567W        W17828   6.481  14.750   4.908 -0.0135 -0.1714 -0.0080
 1568W        W17829   8.840   9.911  12.185  0.0530  0.4707  0.0932
 1569W        W17830   1.105   8.311   2.646 -0.1297 -0.1481 -0.0140
 1570W        W17831   8.274   3.588  11.935 -0.2260 -0.0745 -0.0562
 1571W        W17832   3.239  14.828   4.025 -0.0301  0.2530 -0.1149
 1572W        W17833   2.211  17.177  13.918  0.3086  0.0756  0.0944
 1573W        W17834   9.826  10.597  14.560  0.2100 -0.1489  0.1900
 1574W        W17835   4.658  14.424  12.729  0.4869  0.0429 -0.2289
 1575W        W17836   7.843   8.322   0.045 -0.1498 -0.0038 -0.1278
 1576W        W17837   7.032   1.876   4.965  0.0057  0.1090 -0.3615
 1577W        W17838   0.485   8.172   2.089  0.1943  0.0436  0.0805
 1578W        W17839  18.310  16.668   1.646  0.0775  0.1166 -0.2875
 1579W        W17840  15.147  16.854  14.561 -0.0376 -0.2594 -0.1232
 1580W        W17841   2.447   7.445   3.704  0.0421  0.1128  0.0543
 1581W        W17842   7.135  16.863   3.339  0.0994 -0.3316  0.0140
 1582W        W17843  17.852  15.578  15.156 -0.3253 -0.1358 -0.0740
 1583W        W17844   0.786   6.427  10.872  0.4185  0.2659  0.0065
 1584W        W17845  14.561  10.392   1.484  0.0623 -0.0195 -0.1518
 1585W        W17846   1.358   9.854   5.890  0.2149  0.3811 -0.1287
 1586W        W17847  13.133   3.095   2.849  0.1056  0.0423 -0.2802
 1587W        W17848  17.737   5.550  10.418  0.0369  0.0120 -0.0808
 1588W        W17849   2.958  17.692  11.828  0.0991  0.0045 -0.3728
 1589W        W17850   7.450  18.569  13.490  0.2680  0.0124 -0.1580
 1590W        W17851   4.756  12.235  12.932 -0.0671  0.0782  0.2543
 1591W        W17852  14.419   9.177  14.960 -0.1919 -0.1978  0.0421
 1592W        W17853  13.533  14.821   0.846 -0.0735 -0.0853  0.2582
 1593W        W17854   2.030   1.429   3.515  0.4263  0.2472 -0.4947
 1594W        W17855  18.533   1.363   5.898  0.1115  0.0224 -0.0096
 1595W        W17856   9.530  12.228  14.038 -0.1557  0.2996 -0.2773
 1596W        W17857  12.074  18.452   0.310  0.2650  0.0640  0.0837
 1597W        W17858   1.974   7.295   3.569 -0.0450 -0.0996 -0.0796
 1598W        W17859   9.143   1.102   5.303 -0.0283 -0.1633 -0.4044
 1599W        W17860   7.515   3.431  12.465  0.0769 -0.0349 -0.0285
 1600W        W17861   7.215  14.616   3.277  0.0574 -0.0716  0.1399
 1601W        W17862  14.481  16.744  11.340 -0.1555 -0.0165 -0.0914
 1602W        W17863  10.819   4.872  12.372 -0.1605  0.0653 -0.0985
 1603W        W17864   5.334   8.211   0.856  0.1025  0.0607  0.2815
 1604W        W17865   0.950  17.730  14.081 -0.1139 -0.0726  0.4982
 1605W        W17866  15.071  12.490  11.468 -0.2084 -0.0418  0.3082
 1606W        W17867   4.999   0.992  11.161 -0.0621 -0.2952  0.1479
 1607W        W17868  14.684   6.992  12.082  0.1238 -0.0174 -0.0362
 1608W        W17869  12.510  11.410   2.562  0.1975 -0.2060 -0.2053
 1609W        W17870   4.779   4.803   1.055  0.1499 -0.2937 -0.1066
 1610W        W17871   4.850   2.789  12.325 -0.0290 -0.1047  0.0077
 1611W        W17872   7.222   2.936   0.092 -0.0608  0.2732 -0.2659
 1612W        W17873  10.121   7.441  11.440  0.1046  0.3054 -0.4096
 1613W        W17874   5.678  16.902   0.602 -0.0690 -0.3114  0.1318
 1614W        W17875  18.647   3.591  10.990 -0.0743 -0.3330  0.0197
 1615W        W17876  13.408   3.142   3.879  0.3518  0.1123 -0.2376
 1616W        W17877   0.758  16.238   0.846  0.1474  0.2194 -0.0160
 1617W        W17878   8.804  13.730   2.272  0.1627  0.2024 -0.1362
 1618W        W17879  11.118   1.492  13.542  0.0380 -0.3062  0.0376
 1619W        W17880  11.732  18.683   2.048  0.2258  0.0850  0.2639
 1620W        W17881   7.789  16.108   3.544 -0.0093 -0.0634  0.2052
 1621W        W17882   9.877  18.829   2.224  0.0525 -0.3240  0.0816
 1622W        W17883   2.892  17.700   3.146 -0.0264  0.1031 -0.1913
 1623W        W17884   9.525  14.425   3.793  0.3199  0.1674  0.0640
 1624W        W17885   6.385  15.602  13.292 -0.1203 -0.1858  0.1593
 1625W        W17886   5.857  13.940  14.358  0.1553  0.0024 -0.2929
 1626W        W17887   7.886   9.836  15.277  0.1781 -0.1625  0.0914
 1627W        W17888   4.731   7.876   3.258 -0.0298  0.0138 -0.1691
 1628W        W17889  12.596   2.385   1.200 -0.0160 -0.0794 -0.2952
 1629W        W17890   4.641  15.388  10.495 -0.2137 -0.5660  0.1080
 1630W        W17891  12.730   5.211  14.764  0.1945  0.0270  0.3988
 1631W        W17892   3.447   9.879  13.836 -0.0164 -0.0111  0.0931
 1632W        W17893  17.354   0.042  13.041 -0.1317  0.2122 -0.1093
 1633W        W17894   4.255   6.650   0.860  0.2293  0.0950  0.2844
 1634W        W17895   6.455  18.088   1.469 -0.2402 -0.3924  0.0630
 1635W        W17896   5.578   3.983  10.343  0.1668 -0.1301 -0.1426
 1636W        W17897  16.604   6.382   9.631 -0.0174 -0.0542 -0.3373
 1637W        W17898   1.694  15.673  15.184 -0.1856 -0.0311  0.0720
 1638W        W17899  16.272   1.145   3.845 -0.2368  0.1987  0.3523
 1639W        W17900   9.688  14.491   2.478  0.2539  0.2153 -0.1454
 1640W        W17901   7.330   6.196   1.918 -0.0437 -0.1736  0.0302
 1641W        W17902  12.971   3.592  10.881  0.2642 -0.0439 -0.0362
 1642W        W17903   0.528  12.554  11.886  0.3083  0.0862  0.0768
 1643W        W17904  16.866   9.048  15.349 -0.5530 -0.5859  0.0541
 1644W        W17905   8.980  18.340   3.596  0.1266  0.0124  0.0241
 1645W        W17906   3.533  12.683  14.650  0.2444 -0.0782 -0.1455
 1646W        W17907   3.877   6.299   0.404 -0.1741  0.2293  0.2452
 1647W        W17908   6.277   7.043   2.732  0.1459  0.0647  0.1875
 1648W        W17909  10.759   9.380   2.956 -0.1034 -0.1870 -0.2844
 1649W        W17910   1.285   0.802  12.859  0.0002  0.3470  0.2162
 1650W        W17911  10.940  14.333  15.292  0.1161 -0.0728 -0.0762
 1651W        W17912   3.363   7.429   2.706  0.0386 -0.0861  0.1667
 1652W        W17913   5.722  12.839  10.971 -0.2018 -0.1616  0.1903
 1653W        W17914   2.739  13.964  14.891  0.1778  0.2809  0.0315
 1654W        W17915   9.435   8.970   3.795  0.0015  0.2833  0.3318
 1655W        W17916  10.798  17.202   4.663 -0.0187 -0.1104  0.2477
 1656W        W17917   3.524   3.233  15.342 -0.1324 -0.0825  0.1977
 1657W        W17918   3.712  13.733  11.233  0.2284  0.2886  0.0322
 1658W        W17919  12.665   1.359   0.506 -0.2370  0.0887 -0.2264
 1659W        W17920  16.448   0.338   0.430 -0.3589  0.0474  0.1422
 1660W        W17921   8.279  17.194   4.868 -0.1758  0.0793  0.1216
 1661W        W17922   3.477  11.187  13.894 -0.1471  0.1581 -0.1460
 1662W        W17923  13.158   6.386  15.444 -0.1567  0.0605  0.3552
 1663W        W17924  13.370   2.603  11.585  0.3339 -0.1948 -0.1306
 1664W        W17925  18.648  18.096   1.816  0.2026 -0.0546  0.2244
 1665W        W17926   7.228   2.788   4.827  0.0467 -0.1397 -0.0917
 1666W        W17927   5.287  11.978  11.835  0.0062  0.1104  0.0938
 1667W        W17928  17.570  13.502   3.600  0.0545 -0.1849 -0.2496
 1668W        W17929  16.282  12.424  14.334 -0.2354 -0.2402 -0.1348
 1669W        W17930   3.089  10.000  15.062  0.3036 -0.1942  0.2367
 1670W        W17931   5.592  16.931   0.097 -0.3037 -0.0348  0.2368
 1671W        W17932   0.071  18.652  13.097 -0.1173 -0.3912  0.3480
 1672W        W17933  11.540  10.242  13.667 -0.2864  0.0547  0.0260
 1673W        W17934   9.198  13.251   2.235  0.1074 -0.0120  0.1083
 1674W        W17935  15.448   2.777   1.616 -0.1949  0.0304 -0.2725
 1675W        W17936  16.902  10.194   0.873  0.0874 -0.1282 -0.0317
 1676W        W17937  13.755   5.278   4.212 -0.1171  0.0523  0.2957
 1677W        W17938  11.095   3.525  12.041 -0.0056  0.1191  0.4228
 1678W        W17939  13.516  17.298  14.065 -0.1161 -0.1266  0.4415
 1679W        W17940  17.647  12.633  12.615  0.0161 -0.2464 -0.0365
 1680W        W17941   9.367   3.590   2.399 -0.5305  0.2641  0.1426
 1681W        W17942  11.451  16.539   1.188 -0.1931 -0.0333  0.1171
 1682W        W17943  14.618   3.054  15.220  0.1534 -0.6720 -0.5595
 1683W        W17944  14.257   8.079  10.789 -0.0338 -0.1965 -0.0764
 1684W        W17945  12.025   0.679  11.619  0.2402  0.3190  0.1333
 1685W        W17946  15.041   2.879  11.611  0.0952  0.2781  0.0288
 1686W        W17947  16.652  11.682  13.187 -0.1669  0.2085 -0.2142
 1687W        W17948   3.457   5.762   2.144 -0.2652  0.0922  0.0360
 1688W        W17949   6.374  17.779   5.203  0.3398 -0.0701  0.1410
 1689W        W17950   6.688  13.171  10.923 -0.0668  0.0972 -0.0266
 1690W        W17951   6.382   0.234   5.237  0.1308 -0.3812  0.1440
 1691W        W17952  14.024  12.580  14.123  0.2921 -0.0510  0.0452
 1692W        W17953   9.479   2.292   3.164 -0.3147  0.5228 -0.0503
 1693W        W17954   6.739  12.058  12.868 -0.1632 -0.3401  0.0039
 1694W        W17955   5.799   3.660  13.973  0.0972 -0.0393  0.1325
 1695W        W17956   9.346  17.640   4.059  0.2258 -0.1399 -0.1925
 1696W        W17957  11.650   7.358  11.705  0.1856 -0.0594 -0.4051
 1697W        W17958   0.266   2.771  11.596  0.0364 -0.1110 -0.2173
 1698W        W17959   1.861  13.587   5.376 -0.2747  0.1783 -0.0968
 1699W        W17960   4.517   1.232   3.500  0.1053 -0.1031 -0.0579
 1700W        W17961  11.456  15.447   2.502  0.1765  0.2978  0.0502
 1701W        W17962   5.123  15.576  10.154 -0.0126  0.1561  0.1941
 1702W        W17963   0.674   2.532   0.612 -0.2170 -0.2277  0.2094
 1703W        W17964   7.335  17.079   2.234 -0.1328  0.4267  0.4337
 1704W        W17965  15.763  18.082   2.917 -0.0934 -0.1187  0.0147
 1705W        W17966   3.921   6.571  12.942  0.1153  0.2684 -0.4568
 1706W        W17967  16.294  12.363   0.942  0.1540 -0.0002  0.1864
 1707W        W17968   5.130   8.934   0.126 -0.0386  0.1063  0.1995
 1708W        W17969  16.714   4.085  13.540  0.1076  0.0506  0.1238
 1709W        W17970  10.733  10.000  14.456 -0.3337  0.0017 -0.1643
 1710W        W17971   6.750   1.132  11.486 -0.2899  0.1563 -0.0882
 1711W        W17972   9.727  16.665  11.805  0.0552 -0.1792  0.0936
 1712W        W17973   9.056   9.306   0.366  0.1304 -0.1853  0.0696
 1713W        W17974  16.358   1.054   9.818  0.0204 -0.1074  0.4167
 1714W        W17975  13.250   8.958  10.749  0.2438  0.0261  0.3121
 1715W        W17976  16.875   6.703   3.853  0.3402  0.1924  0.0078
 1716W        W17977  14.014   8.771  14.551 -0.1241  0.0814 -0.0125
 1717W        W17978  13.591  15.625   3.168 -0.1960  0.3101  0.1361
 1718W        W17979   0.273  17.009  11.399 -0.0165  0.2327 -0.1749
 1719W        W17980   0.530   9.702  15.491 -0.0528  0.0711 -0.2662
 1720W        W17981   7.863   7.806   4.454  0.0552  0.1857 -0.1136
 1721W        W17982  14.193   6.550   4.273 -0.2180 -0.2666  0.0148
 1722W        W17983   8.495   1.475   2.935 -0.5855  0.0470 -0.0794
 1723W        W17984   4.993  16.101   5.652  0.3788 -0.0533  0.0027
 1724W        W17985   5.834  11.552  14.544 -0.1391  0.0878  0.1944
 1725W        W17986   4.735  15.582  13.213  0.0797  0.0438 -0.2859
 1726W        W17987  13.623  10.607   1.605 -0.0689 -0.1098 -0.1006
 1727W        W17988   0.159  14.669  13.130  0.3566 -0.0145  0.1922
 1728W        W17989  15.133   4.415   3.761  0.0892 -0.0382 -0.1396
 1729W        W17990  10.295  10.059   5.083  0.0639  0.2283  0.2644
 1730W        W17991   0.221   6.708   5.132 -0.2694 -0.2659  0.1742
 1731W        W17992   9.169  16.407   1.343  0.0228  0.1560 -0.0156
 1732W        W17993   4.741  15.358  12.341 -0.0315  0.0052 -0.1095
 1733W        W17994   0.845   6.608   4.004  0.1976 -0.0261 -0.3951
 1734W        W17995   8.564  10.933  12.519 -0.0276  0.2032  0.2102
 1735W        W17996   4.668   7.157   3.316 -0.0502  0.0709 -0.0025
 1736W        W17997   8.359  14.496   4.463  0.1232  0.4594 -0.1149
 1737W        W17998  12.419  13.026  10.970  0.3726 -0.0285  0.0908
 1738W        W17999  14.748  10.145  13.333 -0.1625 -0.0132  0.3459
 1739W        W18000  16.144   0.742  12.573 -0.0657 -0.2449  0.4078
 1740W        W18001  16.449  18.792  15.075  0.3039  0.1344  0.1627
 1741W        W18002  16.336  15.255   1.787 -0.1146 -0.0385 -0.1839
 1742W        W18003  18.550   3.732   3.004 -0.0543  0.2522 -0.0428
 1743W        W18004  16.688  11.980  13.791  0.2292 -0.0616 -0.0885
 1744W        W18005   7.630   9.269   2.657 -0.0432  0.0969 -0.0949
 1745W        W18006   9.260  11.869  13.694  0.3485 -0.0157 -0.0337
 1746W        W18007  17.195   8.375   3.752 -0.0298 -0.0877  0.1740
 1747W        W18008  17.080   6.932   4.257  0.1204  0.1482 -0.1133
 1748W        W18009  13.205   2.577  13.735  0.1756  0.1624  0.1146
 1749W        W18010   7.969   1.259   0.483 -0.1389 -0.2356 -0.1587
 1750W        W18011   8.236   3.217  14.011 -0.3531 -0.1120 -0.1595
 1751W        W18012   0.053   4.722  15.521  0.0869  0.0513 -0.0148
 1752W        W18013  16.114  12.361   2.740 -0.0630 -0.2457  0.0339
 1753W        W18014  16.684  12.180  14.275 -0.4238 -0.3337 -0.1294
 1754W        W18015   6.608  14.103  12.686  0.0257 -0.2939 -0.1639
 1755W        W18016   4.670   0.944  12.587  0.0958  0.0185 -0.1886
 1756W        W18017   2.304   3.073   1.165  0.0564 -0.0200 -0.0472
 1757W        W18018   4.416   7.015   4.998  0.1996  0.0518  0.0910
 1758W        W18019  13.959   8.640   2.573 -0.2160  0.1815  0.0559
 1759W        W18020  14.257  16.473   0.956  0.0123  0.0543 -0.3037
 1760W        W18021  10.577  17.814   2.544  0.0054 -0.1085 -0.0161
 1761W        W18022  11.730   3.778   0.250  0.0991 -0.1231  0.0686
 1762W        W18023  10.805   1.652  12.615  0.0148 -0.0025 -0.1837
 1763W        W18024  17.310   0.983   4.257  0.0607 -0.1779  0.2628
 1764W        W18025  11.924   8.054   3.856  0.0435 -0.2116  0.1951
 1765W        W18026   6.527   8.777  11.224  0.2674 -0.0509  0.1188
 1766W        W18027   1.599   2.983   5.517  0.0290 -0.0754 -0.5060
 1767W        W18028  18.359   5.574  12.142 -0.0428 -0.2765  0.1371
 1768W        W18029  13.832   9.901   0.980 -0.0659  0.0317 -0.0752
 1769W        W18030   0.757   0.532   1.107  0.1653  0.2587 -0.0886
 1770W        W18031   8.326  12.585   4.448 -0.0895 -0.3925 -0.0607
 1771W        W18032  14.414  15.077   2.301 -0.0900  0.1668  0.0672
 1772W        W18033  11.880   8.466  13.575 -0.3028  0.2820 -0.2490
 1773W        W18034  18.036  13.142  15.279 -0.1825 -0.2318 -0.1327
 1774W        W18035  13.834   4.239  12.970  0.1899  0.1126 -0.4237
 1775W        W18036   5.164  12.041   3.259  0.1690 -0.3089  0.1919
 1776W        W18037   4.798   3.139   1.665 -0.2094  0.1821  0.0536
 1777W        W18038  15.706   6.797  11.645  0.2556 -0.0681  0.1398
 1778W        W18039   6.349   4.197   3.035 -0.0587 -0.1016  0.0720
 1779W        W18040   5.191  17.769   3.566 -0.1365 -0.0362 -0.1138
 1780W        W18041   1.973   1.001   1.865 -0.0914 -0.2129  0.1159
 1781W        W18042   6.461  10.704   1.026 -0.1651  0.2122 -0.0775
 1782W        W18043  15.239   9.242   5.410  0.0661 -0.2390  0.1867
 1783W        W18044   7.134   4.075  13.883  0.2273 -0.1354 -0.2884
 1784W        W18045  17.625   6.480   5.073  0.0648  0.0646 -0.1163
 1785W        W18046  18.184   7.443  14.181 -0.0341  0.1197 -0.3298
 1786W        W18047   6.781  15.462   5.153  0.3478  0.1011  0.0864
 1787W        W18048   6.989   3.336   1.403 -0.4739  0.2626 -0.1578
 1788W        W18049  11.686  15.254  15.507 -0.0878 -0.1657 -0.1827
 1789W        W18050   1.779   0.862  10.656  0.1010  0.0111 -0.2754
 1790W        W18051  15.014   3.692   3.290 -0.0210 -0.1671 -0.1764
 1791W        W18052  16.338  12.490  12.682  0.0421  0.1130  0.0088
 1792W        W18053  11.050  12.650   4.837  0.2656 -0.0141 -0.2542
 1793W        W18054   7.532   0.551   4.954 -0.0832  0.0066  0.1296
 1794W        W18055   4.653  14.896  12.483 -0.1456 -0.2077 -0.2107
 1795W        W18056   0.175  10.889   4.954  0.3655 -0.1129 -0.1966
 1796W        W18057  13.026   2.437  11.136 -0.2275 -0.0178 -0.0053
 1797W        W18058   0.854   1.468  10.528 -0.1570 -0.1573  0.2001
 1798W        W18059   6.177   9.556   4.638  0.4070 -0.0186  0.0420
 1799W        W18060   2.335  10.407  10.270 -0.3176  0.2186  0.1143
 1800W        W18061   3.136  17.995  14.732 -0.1194  0.1432 -0.1375
 1801W        W18062  18.459   1.534  13.406  0.0628 -0.2054  0.2884
 1802W        W18063   4.865   2.048  12.958  0.1467  0.0627  0.3370
 1803W        W18064   6.193  15.213   4.544 -0.1281 -0.4342  0.1483
 1804W        W18065  12.215   8.188  13.074  0.0965  0.0716 -0.0638
 1805W        W18066   3.001   4.361   0.726  0.1589 -0.0942  0.1205
 1806W        W18067   0.015  11.311  14.884 -0.1220 -0.2993 -0.0011
 1807W        W18068   8.373  18.672  12.548 -0.3669 -0.2224 -0.0095
 1808W        W18069  16.883  16.759   0.560 -0.0747 -0.0760 -0.1638
 1809W        W18070   6.664  16.282   2.655  0.1511  0.1853  0.1675
 1810W        W18071  16.971   6.903  12.603  0.0817 -0.0078 -0.1726
 1811W        W18072  14.741  14.711   2.433 -0.3194 -0.2203 -0.1850
 1812W        W18073   1.578   7.670  14.978 -0.1880 -0.1146 -0.1451
 1813W        W18074   7.545  11.781   2.375  0.0489 -0.0432 -0.1115
 1814W        W18075  13.963   2.404  12.364 -0.1578 -0.1154 -0.1807
 1815W        W18076   5.293   1.260  13.968  0.1299  0.2516  0.4524
 1816W        W18077   8.890  17.104   2.426 -0.0142  0.4659 -0.2817
 1817W        W18078   5.726  13.213  12.430  0.0370 -0.1532  0.0983
 1818W        W18079  14.606  11.344   5.742 -0.0233 -0.3751 -0.2103
 1819W        W18080   4.211   3.301  14.601 -0.0455  0.0869  0.0425
 1820W        W18081  13.296   7.839  12.875  0.0717 -0.2448 -0.0107
 1821W        W18082  10.107   1.452   2.419 -0.0704  0.4333  0.0330
 1822W        W18083  18.430  11.285  15.303 -0.4102  0.0891 -0.0016
 1823W        W18084  14.864   2.872   3.582  0.0538 -0.2714  0.0577
 1824W        W18085  11.618   5.763   2.690  0.0549  0.3531 -0.0583
 1825W        W18086  16.302  18.198   3.867  0.4368  0.1077 -0.1588
 1826W        W18087  14.354   6.486  12.891 -0.1808  0.2158 -0.0769
 1827W        W18088  13.510   2.771   5.078 -0.1073 -0.1289 -0.1429
 1828W        W18089  11.878   3.403  14.106  0.0261 -0.2082  0.0185
 1829W        W18090  14.125   0.201   1.550 -0.2673  0.0991 -0.0077
 1830W        W18091  10.093  15.241  13.011 -0.1492 -0.0384 -0.0053
 1831W        W18092   5.443   9.013  11.282 -0.1117  0.0162  0.2854
 1832W        W18093   4.470  15.118   4.697  0.0277  0.0428 -0.0119
 1833W        W18094  18.749  10.014  14.747 -0.2019  0.1939 -0.2164
 1834W        W18095   8.825  17.370  11.294 -0.0771  0.4690 -0.0830
 1835W        W18096  17.332   9.008   0.083 -0.0110  0.0974 -0.0952
 1836W        W18097  13.685   9.954  12.983  0.0472  0.0826 -0.1215
 1837W        W18098  18.655   4.585  11.528  0.1219 -0.0773  0.0292
 1838W        W18099   0.267  12.652  12.389 -0.0203  0.0672 -0.0124
 1839W        W18100   7.712   4.731  12.190 -0.1235  0.2738  0.0331
 1840W        W18101  11.860  10.522   2.751  0.0106 -0.0170  0.2770
 1841W        W18102   0.022   4.419   1.234  0.0999  0.1387  0.0463
 1842W        W18103   1.872  14.145   3.473  0.1759 -0.2046 -0.3631
 1843W        W18104  17.896   8.789  10.396  0.1774  0.2617 -0.2532
 1844W        W18105   0.283   6.260   4.345 -0.2254 -0.0438  0.2808
 1845W        W18106   9.990  12.897  12.171 -0.0498 -0.2025  0.0576
 1846W        W18107   7.985  16.840  14.862 -0.0702 -0.4295  0.0386
 1847W        W18108   0.198  17.114  13.536 -0.0255  0.1977  0.0226
 1848W        W18109  13.474   9.848  12.507  0.1015 -0.0489  0.4204
 1849W        W18110   9.116   5.009  13.673  0.2654  0.1299 -0.0583
 1850W        W18111   8.831   2.586   3.743  0.1241 -0.2694  0.0750
 1851W        W18112   9.659   0.454  11.160  0.0698  0.0954 -0.0293
 1852W        W18113  18.202  10.188   0.333  0.1204  0.0313 -0.1829
 1853W        W18114   8.548  11.948  13.224 -0.3281 -0.1275 -0.2782
 1854W        W18115  11.716  11.119  13.775  0.0511 -0.0745 -0.1330
 1855W        W18116  12.101   6.214   2.039  0.0256  0.1283  0.0968
 1856W        W18117  11.799  16.332   5.145 -0.1640 -0.2743 -0.3102
 1857W        W18118  13.293   8.638  12.249 -0.1736 -0.0988 -0.0449
 1858W        W18119   4.321  11.647  14.301 -0.1190 -0.0010  0.1400
 1859W        W18120   9.061  15.400   3.014  0.2319  0.0472 -0.0899
 1860W        W18121  14.250   9.098  10.933 -0.2256  0.1345 -0.0162
 1861W        W18122  16.930  17.224  12.862 -0.0108  0.2466  0.1899
 1862W        W18123  17.649   5.973   3.447 -0.1286 -0.0146  0.1071
 1863W        W18124   9.752  14.998   5.095  0.1601 -0.0800  0.3229
 1864W        W18125   7.619   0.186   4.031  0.1115 -0.0183  0.1467
 1865W        W18126   2.988  13.132  12.686 -0.2009  0.0003 -0.0527
 1866W        W18127  10.050  18.491   2.555 -0.1853  0.3674  0.3966
 1867W        W18128  16.838   5.995   2.584  0.0723  0.0384 -0.1073
 1868W        W18129   0.708   6.183  13.146  0.2196 -0.2515  0.0083
 1869W        W18130   7.109   1.250  10.548  0.0878 -0.3540 -0.2915
 1870W        W18131  10.092   2.191  13.628 -0.1611  0.0618 -0.0559
 1871W        W18132   0.887   6.989   1.421 -0.0326  0.1995 -0.0293
 1872W        W18133   2.284   1.129   4.775 -0.0093 -0.1133  0.0316
 1873W        W18134   1.737   7.866   2.852  0.0428  0.2787 -0.2032
 1874W        W18135   5.257   7.238  13.677  0.0266 -0.1398 -0.1343
 1875W        W18136   5.214  10.284  14.497  0.2303 -0.0075 -0.2442
 1876W        W18137   4.992  10.257   0.601 -0.1027 -0.2759  0.1390
 1877W        W18138   9.061  15.859   3.250 -0.0912  0.2718  0.1686
 1878W        W18139   2.966   0.592  12.537 -0.0305  0.0430 -0.2716
 1879W        W18140   5.626  10.571   3.361 -0.2068  0.1784 -0.3109
 1880W        W18141   1.322   3.513   2.135 -0.3057  0.0826  0.0274
 1881W        W18142  17.265   7.057  12.986  0.3022  0.1595  0.2965
 1882W        W18143   8.448   4.436  15.434  0.2416  0.2043 -0.1852
 1883W        W18144  13.157   0.803   3.208  0.0301 -0.0013  0.3112
 1884W        W18145  12.009  13.855  12.111 -0.1951 -0.0847 -0.0942
 1885W        W18146   4.208  14.647   3.227 -0.0793  0.0045  0.4095
 1886W        W18147   6.398  10.235   0.279 -0.1467 -0.1065 -0.1695
 1887W        W18148   9.167  14.729  14.494  0.3042 -0.2257  0.1555
 1888W        W18149  13.129   8.899   0.706 -0.2334 -0.4856 -0.0856
 1889W        W18150  13.814   4.877  13.739  0.1707 -0.1042 -0.0378
 1890W        W18151  11.859  17.272  10.731 -0.1805 -0.1035  0.2949
 1891W        W18152  10.016  18.278   0.077 -0.0376 -0.0293 -0.0095
 1892W        W18153  10.153   8.494   2.985 -0.2958  0.0648  0.1787
 1893W        W18154   0.484   1.659  11.073  0.1598  0.2720 -0.2506
 1894W        W18155  15.892   2.254  10.667  0.3100  0.2207  0.1583
 1895W        W18156   2.677  11.319   4.115 -0.2893  0.2058 -0.1610
 1896W        W18157  14.229  18.771   1.068 -0.2602 -0.0564  0.2206
 1897W        W18158   9.458  16.868  14.993  0.0120 -0.0515 -0.1757
 1898W        W18159  17.306  14.276   0.605 -0.0995  0.0337  0.3275
 1899W        W18160  10.939   1.514   2.745  0.1176 -0.0761  0.0522
 1900W        W18161  17.822   3.918  15.568  0.0312 -0.2766  0.0678
 1901W        W18162   3.309   1.599  10.988  0.1069 -0.3307  0.0175
 1902W        W18163   1.439  17.221   2.683  0.1737 -0.4785 -0.2706
 1903W        W18164   8.029   0.298  14.035  0.1477 -0.1363 -0.0277
 1904W        W18165   5.478   4.965   5.158  0.2452  0.1148 -0.2525
 1905W        W18166   1.303  10.276  15.579 -0.0679  0.1137 -0.0376
 1906W        W18167  10.909  12.373   0.887  0.3326 -0.4877 -0.0483
 1907W        W18168   9.119  10.812   2.115 -0.0809  0.0384  0.1292
 1908W        W18169   2.479  16.503  10.562 -0.0489 -0.0081 -0.0308
 1909W        W18170  18.423  16.728  11.631  0.0640 -0.0550  0.2255
 1910W        W18171  17.861  11.431   3.793 -0.2346  0.1005  0.4861
 1911W        W18172   8.075   6.140   1.910  0.1960  0.1431  0.1122
 1912W        W18173  10.649   2.647   2.958 -0.2285  0.1224 -0.1636
 1913W        W18174  12.456  18.769   0.337  0.2866 -0.1661 -0.0263
 1914W        W18175   1.949  12.819   1.256 -0.2303 -0.2551 -0.3088
 1915W        W18176   4.763   9.079  13.213 -0.2664  0.1698  0.2395
 1916W        W18177  16.679  14.670   4.622 -0.0493  0.2133 -0.0734
 1917W        W18178  17.519  16.434   3.660  0.1432 -0.1678  0.1585
 1918W        W18179   5.184  14.382  14.975 -0.2089 -0.1783  0.1363
 1919W        W18180   5.678  17.752   3.610 -0.2092  0.2443  0.3199
 1920W        W18181  16.723   0.319  13.808  0.0671  0.1712  0.3156
 1921W        W18182   4.627   5.596  11.708 -0.0536  0.2232 -0.1545
 1922W        W18183   9.685  10.077  12.746  0.0119  0.0026 -0.0307
 1923W        W18184  12.552   6.392   4.282 -0.3545  0.0921  0.0662
 1924W        W18185  12.585  11.356   4.505  0.1452  0.0806  0.0370
 1925W        W18186   2.211  17.612   0.973  0.0120  0.1538 -0.0322
 1926W        W18187  10.059   6.758  12.654 -0.0608  0.1657  0.2401
 1927W        W18188  17.635  16.876  12.219  0.1482 -0.1338 -0.1747
 1928W        W18189  15.812   0.218  13.821  0.1529 -0.1022  0.3319
 1929W        W18190  18.059   9.249  14.379  0.0347  0.2020  0.2131
 1930W        W18191  10.078  16.653   1.789 -0.0530  0.0336  0.1333
 1931W        W18192   2.444  17.586  14.740 -0.3168  0.3745  0.1089
 1932W        W18193  16.007  12.967  11.891 -0.1026 -0.1231  0.5053
 1933W        W18194   3.765  18.742  10.299  0.1175 -0.2584 -0.0816
 1934W        W18195  17.766   1.814   5.022 -0.0192  0.1201  0.0477
 1935W        W18196   2.865  16.947  14.342  0.0484 -0.1998 -0.3688
 1936W        W18197   0.232   9.972   4.940 -0.0478  0.2397  0.2969
 1937W        W18198   1.747   1.187  12.618 -0.1764  0.1659 -0.1809
 1938W        W18199   6.498  13.057   5.282 -0.0016  0.0840  0.1246
 1939W        W18200  16.373   5.931  11.389  0.1267  0.0407  0.2714
 1940W        W18201   5.534   9.118   5.518  0.0684  0.0441 -0.0171
 1941W        W18202  18.734  16.185   3.159  0.1523  0.1170  0.1501
 1942W        W18203   6.862  17.464   0.594  0.2256 -0.3219 -0.1416
 1943W        W18204   9.920   2.838  15.017 -0.1365  0.0566 -0.2412
 1944W        W18205  11.076  16.884   3.064  0.0521  0.1465 -0.2757
 1945W        W18206   1.631   5.842  15.416 -0.1243 -0.0874  0.1457
 1946W        W18207  13.860   2.789  13.787 -0.4118 -0.1247  0.1608
 1947W        W18208  11.647  15.400   2.017  0.3829 -0.0331 -0.2625
 1948W        W18209  15.071   4.957   2.056  0.1492  0.1871  0.1109
 1949W        W18210  17.940  14.968   3.709 -0.0855  0.1492 -0.0875
 1950W        W18211   6.351  12.854   2.205 -0.0451  0.4373 -0.0761
 1951W        W18212  14.125   5.169   0.636  0.1737 -0.1407 -0.1442
 1952W        W18213   1.896   3.855   3.709 -0.2033  0.0999  0.0478
 1953W        W18214   0.517   7.693   3.299  0.1548 -0.2966 -0.3406
 1954W        W18215   4.821  11.560   5.100 -0.1118  0.1049  0.0631
 1955W        W18216   1.273  13.502  11.345 -0.0770  0.1547 -0.0436
 1956W        W18217   4.790   9.325  11.792  0.1135 -0.1128  0.2891
 1957W        W18218  15.379   8.999   0.898  0.1669 -0.0729  0.0166
 1958W        W18219  11.764  14.224   4.802  0.0322 -0.0132  0.0107
 1959W        W18220   8.132   6.728   1.313  0.0174  0.0162  0.0235
 1960W        W18221   2.793   8.889   0.843 -0.2246  0.2711 -0.0081
 1961W        W18222   0.801   1.727  13.825  0.0039  0.1336  0.1593
 1962W        W18223  16.671   5.523   4.889 -0.0843  0.1389 -0.1560
 1963W        W18224  18.482   8.117  15.604 -0.0528 -0.1401 -0.0403
 1964W        W18225   9.611   9.383   3.514 -0.0794  0.2251  0.1077
 1965W        W18226  12.607  17.401  11.264  0.2541 -0.0282  0.0837
 1966W        W18227  10.664  12.434   1.755  0.0853 -0.3185 -0.3019
 1967W        W18228  11.549  16.367  10.006  0.1729  0.2709  0.4383
 1968W        W18229   0.075   9.220  14.243 -0.2515  0.1421  0.0529
 1969W        W18230  18.347   0.685  12.450  0.0912 -0.0731 -0.1092
 1970W        W18231  14.867   8.792  12.035  0.3551  0.2630 -0.1399
 1971W        W18232  12.430  17.934  13.321 -0.0145  0.1427  0.1848
 1972W        W18233  14.951  16.273   3.760  0.2679 -0.0226 -0.1198
 1973W        W18234   8.416  17.673   5.606 -0.0294  0.0957  0.0786
 1974W        W18235   4.678  18.284   4.556  0.4926  0.0738  0.0537
 1975W        W18236   6.502  10.364  14.073  0.1315 -0.1712  0.1784
 1976W        W18237  13.566  12.315  11.744 -0.4749  0.3198  0.1342
 1977W        W18238   4.386   4.346  13.100  0.0055  0.1608  0.1776
 1978W        W18239  10.442  11.606   2.408 -0.1680  0.1217  0.3388
 1979W        W18240   5.997   1.047   3.313  0.3915 -0.2382 -0.0481
 1980W        W18241  13.117   6.538   1.936  0.1041 -0.3313  0.0388
 1981W        W18242   3.897   7.319  12.347  0.0488 -0.1609 -0.1802
 1982W        W18243  15.585   7.696  12.972 -0.1718 -0.1837  0.1226
 1983W        W18244   9.704   9.498   0.948  0.0818 -0.0645 -0.1814
 1984W        W18245  13.681  10.605  11.267  0.2235 -0.2577 -0.1968
 1985W        W18246  17.095   0.479  10.529 -0.2008 -0.3313 -0.0892
 1986W        W18247  11.679   3.091   5.700  0.2204 -0.4298 -0.0352
 1987W        W18248  13.538  12.590  10.369  0.2003 -0.2150  0.0273
 1988W        W18249   4.479   6.153  13.375  0.4179  0.2183 -0.2709
 1989W        W18250  18.701   3.421   1.343 -0.3724  0.1770  0.0946
 1990W        W18251  12.595  16.713  12.432 -0.1236 -0.1375  0.1375
 1991W        W18252   6.612  12.851   0.825 -0.1044 -0.3516 -0.2718
 1992W        W18253  16.547  17.284   0.259  0.0900  0.0300  0.1551
 1993W        W18254  15.382  11.282  12.209  0.1689 -0.1907  0.0221
 1994W        W18255   3.496  10.737   2.589 -0.0591 -0.0082 -0.1046
 1995W        W18256  16.819   2.837   4.408  0.0892 -0.2379  0.2538
 1996W        W18257   7.120   8.491   0.392  0.1463 -0.2951  0.0752
 1997W        W18258   4.877   3.075   0.625 -0.0195 -0.0880  0.1210
 1998W        W18259   5.386   3.240   0.264  0.0106  0.1668 -0.2420
 1999W        W18260   3.157   0.014  15.055  0.1029 -0.1008 -0.0841
 2000W        W18261  10.445  12.440   4.185  0.0864  0.1494  0.2662
 2001W        W18262  12.678  13.431   4.069  0.3764 -0.0090  0.1930
 2002W        W18263  15.478   6.800  12.275 -0.0543 -0.1285  0.2496
 2003W        W18264  15.350  17.958   4.083 -0.3485 -0.2430 -0.2716
 2004W        W18265   2.349  15.668   0.689 -0.0728  0.0460  0.0900
 2005W        W18266  17.674   6.379   4.465  0.0120  0.2828 -0.1681
 2006W        W18267   9.805  14.990  12.617  0.1352  0.0329  0.1575
 2007W        W18268   5.025   6.754   3.707 -0.0119  0.0841  0.0359
 2008W        W18269   4.540  10.455   2.775 -0.1675  0.1240 -0.0051
 2009W        W18270   3.808  14.082  13.045 -0.3874 -0.2604 -0.0144
 2010W        W18271  17.523   5.241  11.894 -0.0224 -0.1051 -0.2286
 2011W        W18272  15.067  18.728  14.507 -0.1355  0.0041 -0.0378
 2012W        W18273   5.753   1.879   4.465 -0.0148 -0.2703  0.2523
 2013W        W18274  18.281  14.969  13.399 -0.0383  0.0508 -0.1384
 2014W        W18275   3.696   2.953   2.603  0.2027  0.2253 -0.2942
 2015W        W18276   2.761  11.797  10.848 -0.2141  0.1378 -0.0402
 2016W        W18277   5.382   9.819  14.955 -0.0353 -0.1261 -0.1968
 2017W        W18278   8.612   9.235   0.105  0.5105  0.2860  0.2872
 2018W        W18279   2.965  10.527  10.292 -0.2460 -0.0464 -0.1000
 2019W        W18280  18.234   8.234   3.845  0.0178 -0.1391  0.0024
 2020W        W18281   5.894  15.302  13.856 -0.3253 -0.0168 -0.1709
 2021W        W18282   7.445   8.362  13.797 -0.0193 -0.1990 -0.2325
 2022W        W18283   7.749  16.919   3.320  0.1944  0.3636 -0.4450
 2023W        W18284   9.638   2.105  15.308  0.0495  0.0051 -0.1566
 2024W        W18285   8.928   3.044  11.827  0.2184 -0.2468  0.2045
 2025W        W18286  11.702   7.892   4.893  0.2470  0.1771 -0.0586
 2026W        W18287   3.896   8.731   2.016  0.0594 -0.0343 -0.3304
 2027W        W18288  18.614   4.687  15.053  0.1622 -0.3382  0.0283
 2028W        W18289   4.020  10.714   4.471 -0.0359 -0.1680  0.2483
 2029W        W18290   0.229  15.751  13.393  0.2907  0.2208  0.0145
 2030W        W18291  10.764  18.096  14.341  0.2088  0.1293 -0.0538
 2031W        W18292   5.906  17.303   3.481 -0.0355 -0.1861 -0.1844
 2032W        W18293   3.885  17.656  12.166 -0.0863 -0.2641  0.0187
 2033W        W18294  13.790  15.667   4.340  0.0763  0.0320 -0.1694
 2034W        W18295   6.265  12.282  14.114  0.0172 -0.2411 -0.0350
 2035W        W18296  17.052  11.546  12.188  0.0139 -0.2804  0.2096
 2036W        W18297   0.721  18.604   3.601  0.0000  0.0194 -0.1645
 2037W        W18298   7.209   8.128  14.755  0.1931 -0.1996 -0.0687
 2038W        W18299   5.162  14.735  15.358  0.0791  0.0076 -0.0817
 2039W        W18300   6.659  18.450   3.913 -0.2618  0.1489  0.1359
 2040W        W18301  12.500  13.250  13.696  0.2622 -0.0110 -0.1029
 2041W        W18302  16.549   1.908   3.067  0.1361  0.1825 -0.3195
 2042W        W18303  15.831  14.304  14.863 -0.0077  0.0806  0.1051
 2043W        W18304  11.944  14.999   0.712  0.2510  0.1351  0.5903
 2044W        W18305   0.152  15.010  14.704 -0.1573  0.2166  0.2477
 2045W        W18306   3.512   7.787   4.801 -0.0318  0.0460  0.0029
 2046W        W18307   6.867  13.945   1.307  0.0241 -0.0296 -0.2472
 2047W        W18308  11.547  15.051   4.272  0.0060 -0.3599 -0.1176
 2048W        W18309  14.596   0.997  14.907  0.2974 -0.0472  0.0543
 2049W        W18310  13.318  15.802  13.786 -0.1046  0.3052  0.2318
 2050W        W18311  12.706  11.149   9.995 -0.2668  0.1417 -0.0378
 2051W        W18312  15.791   2.161   4.208 -0.2834 -0.1871  0.1347
 2052W        W18313  11.644  13.652   0.760  0.3244  0.0977  0.0559
 2053W        W18314  17.077   3.081  13.085 -0.1486 -0.1570 -0.1584
 2054W        W18315  14.437  17.680   5.063  0.2211 -0.1577 -0.1676
 2055W        W18316  13.632  17.847   4.494  0.3700  0.2601  0.0412
 2056W        W18317   3.039  12.252  13.285  0.1420  0.0987  0.0142
 2057W        W18318   6.257   0.485  14.562  0.1911 -0.0552  0.1639
 2058W        W18319   5.304   1.758  13.837  0.0179 -0.1200  0.1670
 2059W        W18320  13.640  18.148   0.330  0.3239  0.0019  0.2941
 2060W        W18321   8.812  16.577  12.477 -0.3893 -0.2893  0.0200
 2061W        W18322   5.771   6.404  14.795  0.0672 -0.1075  0.0696
 2062W        W18323  12.352  12.528  11.018 -0.4400 -0.2461 -0.1478
 2063W        W18324   7.751   5.367   1.765 -0.1675 -0.2818 -0.0417
 2064W        W18325  10.060  17.360  11.459  0.3021  0.0245 -0.2770
 2065W        W18326  17.002  12.840   1.515  0.3220 -0.2626 -0.2621
 2066W        W18327  17.169   5.196   3.499  0.6114 -0.2442  0.3028
 2067W        W18328  17.748  16.256   4.092  0.0105  0.0090 -0.0003
 2068W        W18329  15.415   9.746  12.566 -0.2023 -0.0013 -0.2771
 2069W        W18330   8.090   9.718  14.377 -0.1545  0.0517  0.2669
 2070W        W18331   1.266  17.368  12.045 -0.0647  0.0336  0.1757
 2071W        W18332   0.352   3.536  15.089 -0.1200 -0.1538  0.1457
 2072W        W18333  13.897  11.038   1.401  0.1099 -0.0169  0.2852
 2073W        W18334  15.769   6.249   1.820  0.4080 -0.0126  0.0583
 2074W        W18335   5.212   5.506  12.346 -0.1153 -0.1962  0.1323
 2075W        W18336  18.069  15.819  12.661  0.2527  0.2491  0.2483
 2076W        W18337   7.516  15.124   1.501 -0.3108  0.2189  0.3292
 2077W        W18338  18.606  13.948   0.283 -0.3928 -0.1278 -0.4379
 2078W        W18339   5.066  18.059   5.829  0.2195  0.2110  0.0753
 2079W        W18340   1.720   6.417  13.972  0.1162 -0.0366 -0.2450
 2080W        W18341   1.431   3.471   4.485 -0.1282  0.0245  0.1486
 2081W        W18342   9.458   1.899   1.786  0.1939 -0.1963 -0.2290
 2082W        W18343   9.596   2.021   2.742 -0.0220 -0.0854 -0.0725
 2083W        W18344   8.865   6.005   1.037  0.5372 -0.1624  0.5821
 2084W        W18345  13.464  12.378  12.225 -0.0626  0.0781  0.0911
 2085W        W18346  11.085   2.459   3.029 -0.0915  0.1826  0.3323
 2086W        W18347   8.060   6.425  14.803 -0.2809  0.0251  0.0004
 2087W        W18348  16.886   9.011   4.257 -0.1582 -0.1320  0.0715
 2088W        W18349  18.053   1.458  11.138  0.3115 -0.2519  0.1499
 2089W        W18350   1.367  11.908   4.262  0.2526 -0.0080  0.1093
 2090W        W18351  17.788  10.594  11.212  0.0036  0.0470 -0.0109
 2091W        W18352  10.896   8.341   0.754 -0.2457  0.0378 -0.0939
 2092W        W18353   8.944  12.921  12.903 -0.0866  0.0671  0.2099
 2093W        W18354  11.412  11.751  15.066 -0.2273  0.0929 -0.1259
 2094W        W18355  14.664   1.682  11.610  0.0620  0.2423 -0.3612
 2095W        W18356   8.635  13.742   0.180  0.4435  0.0234  0.1499
 2096W        W18357   5.195   6.392   4.069 -0.2463 -0.0330 -0.2328
 2097W        W18358   7.461   5.196   3.435 -0.2294 -0.0241 -0.2802
 2098W        W18359   5.384   3.495  14.429  0.0901  0.1867  0.1344
 2099W        W18360  13.355   1.907  13.863  0.0411  0.0281 -0.0776
 2100W        W18361  13.322   3.397  14.061 -0.1367  0.2181  0.0467
 2101W        W18362  17.013  18.079  13.995  0.1456 -0.1102  0.1389
 2102W        W18363   6.367  12.138  10.691 -0.1143 -0.0784  0.0918
 2103W        W18364   2.851  17.510  14.403  0.0864 -0.0193 -0.1279
 2104W        W18365  18.000  12.498   0.578 -0.1880 -0.0519 -0.0274
 2105W        W18366   7.613  16.445   5.267 -0.5400 -0.2897  0.1709
 2106W        W18367   4.861  14.447  12.268 -0.0054  0.0730  0.0683
 2107W        W18368  15.251  11.041  14.245 -0.2604 -0.3765 -0.0302
 2108W        W18369   4.342   2.149   1.768  0.0697  0.1938  0.0967
 2109W        W18370   8.686  17.237   5.313 -0.2259 -0.1710 -0.2924
 2110W        W18371   8.941  10.783   1.284 -0.0011  0.1235  0.0248
 2111W        W18372   6.389   8.283  11.217  0.2287 -0.1831  0.2872
 2112W        W18373   1.940  11.613  12.805 -0.0676 -0.2681 -0.0389
 2113W        W18374   9.233   5.642   4.735 -0.0002  0.0937  0.0342
 2114W        W18375  13.149  18.107  12.130 -0.4073  0.0744 -0.0794
 2115W        W18376   1.573   8.025   3.339  0.0795 -0.1089 -0.1696
 2116W        W18377   1.421  16.574   9.769 -0.2309  0.3690  0.0772
 2117W        W18378   6.954   9.144  12.371  0.0443 -0.2386  0.0885
 2118W        W18379   2.832  11.177   2.955 -0.1297 -0.1606  0.3143
 2119W        W18380   2.049   0.261   2.663 -0.0156  0.3427 -0.1372
 2120W        W18381  18.486   0.568   0.412 -0.1990  0.0708  0.1298
 2121W        W18382  16.000   3.124  15.266  0.1211  0.0393 -0.2532
 2122W        W18383   0.732   9.514  14.982 -0.1412  0.1361  0.1812
 2123W        W18384  16.000  12.861  14.461  0.2578 -0.2057 -0.0684
 2124W        W18385  12.010  17.787  13.899  0.1296 -0.0000 -0.4488
 2125W        W18386  12.650   3.164   3.913 -0.1090 -0.0802  0.0747
 2126W        W18387  17.100  13.713  11.593  0.0918 -0.2043 -0.1436
 2127W        W18388   4.299  11.453  13.367 -0.0876  0.0476 -0.0156
 2128W        W18389   9.216   8.709   4.211 -0.1911 -0.2551  0.2299
 2129W        W18390  15.428  13.027  13.817  0.0899 -0.1046 -0.3550
 2130W        W18391   3.758  16.437   2.712 -0.0590 -0.0759 -0.2981
 2131W        W18392   9.804  10.920   4.761  0.2400 -0.0290 -0.1492
 2132W        W18393   9.378   6.584   4.221  0.0275 -0.0582 -0.2937
 2133W        W18394   5.206   7.015   4.764  0.1942  0.1108 -0.0362
 2134W        W18395  12.388   6.087   2.991 -0.1498  0.1534  0.1277
 2135W        W18396   2.665  14.881   0.539 -0.1906  0.0729 -0.1404
 2136W        W18397   0.224  15.692   3.469  0.2324 -0.3370  0.1809
 2137W        W18398  12.136  10.371   3.316 -0.0534  0.0236  0.0358
 2138W        W18399   3.431  11.420  11.125 -0.2703 -0.1191  0.0763
 2139W        W18400   7.473   7.230   5.002  0.1548  0.1102  0.1954
 2140W        W18401   2.150   5.194   3.178 -0.0050  0.1275  0.0104
 2141W        W18402  13.872   0.775  10.950  0.1316  0.0519  0.3690
 2142W        W18403  18.437   5.240   9.703 -0.1270  0.0394  0.0868
 2143W        W18404   6.511  16.954  12.662  0.1349  0.1944  0.0669
 2144W        W18405   9.176   2.618  12.039  0.0004 -0.0239  0.1616
 2145W        W18406  11.336   3.500   2.355 -0.0077 -0.1503 -0.1609
 2146W        W18407   7.812   7.883   0.253  0.1885  0.1565  0.0604
 2147W        W18408  18.168   8.413   3.404  0.0370  0.0758 -0.0353
 2148W        W18409   5.946   0.687  13.756  0.4899 -0.0300  0.1898
 2149W        W18410   1.057  14.533   2.705 -0.0754 -0.3181 -0.0481
 2150W        W18411   6.677  14.202  14.826  0.0322  0.0931 -0.0515
 2151W        W18412   0.661   3.095   4.312 -0.1224 -0.0313  0.0608
 2152W        W18413  15.404   1.103  14.933 -0.1670  0.1075  0.3810
 2153W        W18414  16.374  14.914  10.515 -0.5444  0.3911 -0.0474
 2154W        W18415   8.643   3.311  12.101  0.1300  0.0283 -0.2811
 2155W        W18416  11.590   0.318   4.854 -0.0435  0.0200  0.3015
 2156W        W18417   7.736  15.624   3.080  0.1668  0.1185  0.0284
 2157W        W18418   5.407   5.394   3.985 -0.1432  0.1416 -0.1106
 2158W        W18419  14.730  15.825   3.699 -0.0993  0.1162 -0.4419
 2159W        W18420   2.712  17.342  12.168 -0.1324 -0.1685 -0.1120
 2160W        W18421  12.427  11.576   3.672 -0.3702 -0.0133  0.0430
 2161W        W18422  13.967  13.388   2.607 -0.0363  0.1327 -0.1433
 2162W        W18423   4.031   7.723   3.818  0.1017 -0.3242  0.0285
 2163W        W18424   4.195  17.704  14.159 -0.3340  0.0965  0.2284
 2164W        W18425   1.173   3.959  11.526 -0.1593 -0.2542 -0.3069
 2165W        W18426  14.113   0.536   3.961  0.1009  0.2106  0.2512
 2166W        W18427  14.582  15.048   0.805  0.0203 -0.0264  0.4943
 2167W        W18428  10.593   8.384   3.724  0.0224 -0.2832 -0.2827
 2168W        W18429  10.317  12.248   5.583 -0.3394 -0.2863 -0.1730
 2169W        W18430  16.922   2.433   3.570  0.3989 -0.2797  0.1691
 2170W        W18431   1.670  16.636   3.523  0.2098 -0.0213 -0.1931
 2171W        W18432  12.637   7.810  12.091  0.0940  0.0784 -0.0407
 2172W        W18433  15.894   4.739  10.635  0.0888 -0.0173  0.3602
 2173W        W18434   3.060   4.667  14.415 -0.0709  0.0579  0.2992
 2174W        W18435   0.783  11.089   4.108 -0.0934  0.2007  0.2259
 2175W        W18436  16.063  11.143  12.090 -0.3955 -0.0730 -0.3994
 2176W        W18437  13.368  13.534   2.580  0.2490  0.1227  0.2371
 2177W        W18438   5.724  12.730   3.785 -0.1147 -0.2526  0.2963
 2178W        W18439   1.616  11.490   4.240  0.0550  0.2302  0.5229
 2179W        W18440  14.109   3.305  13.017  0.1048  0.2762 -0.0454
 2180W        W18441   2.661  11.078  11.414  0.0762 -0.4676 -0.0273
 2181W        W18442  16.352  11.866   1.027 -0.2231 -0.1156 -0.1655
 2182W        W18443   5.673   6.253  14.247 -0.1572 -0.0415 -0.0825
 2183W        W18444   5.079   9.250  14.867  0.2062 -0.0214 -0.2386
 2184W        W18445   4.454   9.134   5.996 -0.1631 -0.0337  0.0857
 2185W        W18446  12.601  12.362   4.544  0.1058  0.0883  0.2655
 2186W        W18447  12.589   4.719   2.348 -0.0482 -0.2888 -0.2509
 2187W        W18448   2.278   4.875   1.842  0.1058 -0.0576 -0.0927
 2188W        W18449  15.340  18.156   3.584 -0.1808  0.1927 -0.0116
 2189W        W18450  18.273   2.645  12.451  0.3175 -0.0800  0.1387
 2190W        W18451  12.887   4.070   3.454  0.0864 -0.1693 -0.2795
 2191W        W18452  10.253  10.701  11.248 -0.2733 -0.3728  0.3109
 2192W        W18453   3.334   0.159   2.814 -0.0595  0.0596 -0.4337
 2193W        W18454  12.756  13.329   4.594 -0.1506  0.0378  0.1685
 2194W        W18455   4.376  16.599  14.970  0.1705 -0.3254  0.2715
 2195W        W18456  10.901  13.441  15.478 -0.2543 -0.0991 -0.0015
 2196W        W18457   3.255  11.416  15.176  0.3017 -0.2774  0.0014
 2197W        W18458  16.427  17.348  12.894  0.4664  0.2868  0.0944
 2198W        W18459  14.276  15.116  14.844 -0.3611 -0.0872 -0.1230
 2199W        W18460  10.790  18.143  13.496  0.0458 -0.1386  0.2976
 2200W        W18461   7.568  13.310   4.092 -0.1758 -0.3259 -0.1064
 2201W        W18462   8.212   1.182   4.945  0.2168  0.2005  0.1194
 2202W        W18463  15.715  12.650  14.840 -0.3137  0.1191  0.1007
 2203W        W18464  18.675   2.298  14.492 -0.0216 -0.0805 -0.1320
 2204W        W18465   1.824  14.475  11.706 -0.3263  0.1030  0.2782
 2205W        W18466  17.187  11.663   0.231  0.1153  0.3332 -0.0855
 2206W        W18467  15.278   3.231  14.500 -0.1437  0.0862 -0.0560
 2207W        W18468   2.376  14.569   2.934 -0.4701  0.2645 -0.3082
 2208W        W18469  16.945  11.858  12.593 -0.2262 -0.0408 -0.1726
 2209W        W18470   6.468  18.667   0.855  0.2229 -0.4695 -0.0849
 2210W        W18471  18.212   4.979   2.049  0.1699 -0.0575  0.0335
 2211W        W18472  15.134  16.443   1.951 -0.0521  0.0100 -0.2157
 2212W        W18473   1.778  10.535   4.514 -0.0613  0.1562  0.0505
 2213W        W18474  13.716  16.279   0.321  0.0583 -0.1764  0.1390
 2214W        W18475  17.550   9.515  13.395 -0.0761 -0.0443 -0.0740
 2215W        W18476   4.937  17.875   4.687 -0.1082  0.1759 -0.0111
 2216W        W18477   6.846   6.003   4.647 -0.0776  0.0418  0.2687
 2217W        W18478  10.037   1.155   5.237  0.0761 -0.3158 -0.0492
 2218W        W18479  13.413   3.701   5.043 -0.2515 -0.0623 -0.0848
 2219W        W18480  11.829   9.008  13.993  0.2970  0.2324 -0.1476
 2220W        W18481   5.505   5.286   1.632  0.1733  0.2739 -0.0043
 2221W        W18482  12.495   6.646  11.553 -0.0216  0.0045 -0.1505
 2222W        W18483  15.486  18.488   2.068  0.1032 -0.4163 -0.2210
 2223W        W18484   7.807  12.443  13.821 -0.3318  0.1066 -0.2725
 2224W        W18485   1.387  11.085   2.823  0.0853  0.1981  0.0454
 2225W        W18486   2.900  12.095   0.166  0.2272 -0.2904 -0.0679
 2226W        W18487  16.086  12.226  13.382 -0.3825  0.1184 -0.3333
 2227W        W18488   0.055  15.573  11.539 -0.0639 -0.1457  0.2299
 2228W        W18489   6.056  10.686   4.060  0.0665  0.0008 -0.1645
 2229W        W18490   0.578  16.392  11.309  0.1278 -0.0889  0.0370
 2230W        W18491  10.917   1.007   5.514  0.0348 -0.4123 -0.0107
 2231W        W18492  16.712   3.577   3.618  0.1876  0.1803  0.1157
 2232W        W18493  17.597   7.644  13.002  0.2105  0.0188  0.0210
 2233W        W18494   3.626  11.711   0.777  0.2367  0.0125 -0.1662
 2234W        W18495  15.299  17.497  11.433  0.3994  0.0762  0.0734
 2235W        W18496   0.276  10.143  15.627  0.0951  0.0262  0.2930
 2236W        W18497  18.525   1.590   2.110 -0.0089  0.2491  0.2684
 2237W        W18498  15.803   0.009   5.553 -0.1122  0.2191  0.1089
 2238W        W18499  14.229  17.350  11.348  0.3446 -0.1801 -0.1289
 2239W        W18500  11.695   2.971   5.096 -0.1329  0.0068 -0.1485
 2240W        W18501  13.923   1.203  13.669  0.1650 -0.0343 -0.0402
 2241W        W18502  11.968  14.932  15.048  0.0881 -0.2590  0.1621
 2242W        W18503   4.074   9.410  13.619 -0.1043  0.1255 -0.0367
 2243W        W18504   4.453  11.029   4.184  0.1269 -0.0974  0.0672
 2244W        W18505   8.845   8.607  13.082  0.1579 -0.0841  0.1268
 2245W        W18506  16.114  10.200   4.158 -0.2609 -0.0351 -0.1811
 2246W        W18507  18.657   9.529  11.527  0.0200 -0.1172  0.3762
 2247W        W18508   3.960  13.425   0.040 -0.2977  0.1973 -0.1046
 2248W        W18509   1.639  16.448  13.465 -0.1388 -0.0697  0.2291
 2249W        W18510  17.392   9.748   2.457 -0.2599 -0.0353 -0.2405
 2250W        W18511   1.372   5.926   0.187  0.1073 -0.1978  0.1573
 2251W        W18512   8.164  17.211  11.959 -0.0344  0.3734  0.0407
 2252W        W18513   4.361  16.028   1.547 -0.1646  0.0334  0.2285
 2253W        W18514   0.866   2.629  10.647 -0.1075 -0.1081  0.0537
 2254W        W18515   8.317   1.317   6.694 -0.3668 -0.0894  0.3406
 2255W        W18516   9.989  12.996   2.356 -0.0640 -0.0985 -0.0110
 2256W        W18517   0.558   4.006  15.056  0.0184  0.1686 -0.4066
 2257W        W18518  13.797  10.161   4.955 -0.0081 -0.0707  0.1545
 2258W        W18519   0.813  10.418   3.022 -0.0557 -0.3892 -0.1458
 2259W        W18520   6.779  15.462   4.360  0.1529  0.3129  0.2022
 2260W        W18521  10.877  17.718   2.083 -0.1063 -0.2096 -0.1091
 2261W        W18522   1.268   5.284   1.683  0.1773  0.0575  0.0447
 2262W        W18523   1.845   5.869   1.215 -0.1290  0.2521 -0.0285
 2263W        W18524  16.954   3.293   2.007  0.1950 -0.0511 -0.1399
 2264W        W18525  12.094  10.547   0.661 -0.4319 -0.0097  0.0530
 2265W        W18526   1.039  10.291  12.678  0.0576 -0.0775  0.0126
 2266W        W18527  13.575  15.394  11.697  0.0212 -0.1240  0.1412
 2267W        W18528   6.270   1.604  12.677  0.0975  0.0527 -0.0751
 2268W        W18529   2.573   3.735   2.028 -0.2557 -0.0330  0.0980
 2269W        W18530  13.719   6.281  14.327 -0.0453  0.3622  0.0895
 2270W        W18531   4.018  12.340  11.209  0.2428  0.0499  0.0616
 2271W        W18532   0.828  15.762  15.454  0.1566 -0.1739 -0.1429
 2272W        W18533   9.748  14.121  12.723 -0.2554 -0.2851  0.1332
 2273W        W18534   0.127  11.732   2.899 -0.1285  0.2127 -0.3077
 2274W        W18535   0.071  11.211   2.944  0.0073  0.2553  0.2087
 2275W        W18536   1.142   2.480   3.375  0.1634 -0.2857  0.0086
 2276W        W18537  10.548  17.343  11.495  0.4402 -0.0832  0.4200
 2277W        W18538   5.926  15.097   4.118 -0.2803 -0.1261  0.1841
 2278W        W18539   1.195   8.182   0.873  0.0962 -0.1877  0.0865
 2279W        W18540  13.304  13.629  15.468 -0.2766 -0.0109 -0.1256
 2280W        W18541   6.270  10.442  15.014 -0.4528 -0.2665  0.1226
 2281W        W18542   7.149   3.224  12.708  0.2075 -0.2376 -0.0069
 2282W        W18543   7.378   9.466  14.658 -0.3077  0.2115 -0.0955
 2283W        W18544  17.168   9.816   3.479 -0.1003  0.2732  0.0239
 2284W        W18545   7.241  17.877  12.648 -0.1841 -0.1492 -0.0929
 2285W        W18546  12.979   8.505   2.605  0.0109 -0.0882  0.2906
 2286W        W18547  15.813   6.961  15.626 -0.1429  0.2701 -0.2953
 2287W        W18548  11.289   0.625   3.657  0.1019  0.1500 -0.0861
 2288W        W18549  11.383   1.936  13.113 -0.3223  0.0953  0.1682
 2289W        W18550  12.140  13.287  11.893 -0.2743  0.2994  0.1006
 2290W        W18551  12.485  16.363  12.816  0.0974  0.1015  0.0236
 2291W        W18552  17.866   5.436   3.751 -0.1645 -0.0980 -0.1060
 2292W        W18553  15.536  11.864  11.015 -0.3195 -0.3788 -0.0723
 2293W        W18554   4.932  12.494   1.966 -0.1320  0.3774 -0.0767
 2294W        W18555  18.468   4.783   1.154 -0.0424 -0.1956 -0.1420
 2295W        W18556   1.315  17.673   3.563  0.3945  0.2224  0.0384
 2296W        W18557   8.165  13.741  13.701  0.2432 -0.2381 -0.0929
 2297W        W18558  15.281   3.735   2.440 -0.1489 -0.0976  0.1863
 2298W        W18559  16.865   5.032  11.262 -0.1971  0.3264 -0.2179
 2299W        W18560   9.483  16.100   4.141  0.0211 -0.1364  0.0017
 2300W        W18561   9.634  12.267   1.954 -0.1099 -0.0426  0.0697
 2301W        W18562  12.060  17.812  10.692 -0.4116 -0.0490 -0.2580
 2302W        W18563   3.925  11.307  11.185 -0.4572 -0.0542  0.0070
 2303W        W18564  11.247  11.504  13.137 -0.0601  0.2376 -0.0156
 2304W        W18565   9.278   7.198  13.524  0.1547 -0.1765 -0.0496
 2305W        W18566  17.326   7.800  14.921 -0.2351  0.0205 -0.1991
 2306W        W18567   1.689  10.036   2.445  0.2167  0.2216 -0.0724
 2307W        W18568  16.367   9.660  11.396  0.1949  0.1762  0.1547
 2308W        W18569   9.353   2.134   0.980 -0.0151  0.0683  0.1121
 2309W        W18570  11.924   9.829   1.636 -0.1229 -0.1353  0.1133
 2310W        W18571  17.535   8.115   4.180  0.1499  0.0470  0.0296
 2311W        W18572   3.492   1.147  10.984 -0.3877 -0.1079 -0.0889
 2312W        W18573  17.776  11.672  11.968  0.3086 -0.0418 -0.0483
 2313W        W18574   8.542  12.721  12.611 -0.1613  0.2182 -0.4440
 2314W        W18575  16.682   3.601  13.787  0.0958 -0.2305 -0.1204
 2315W        W18576  14.127   7.821  14.709  0.3425  0.2156 -0.0128
 2316W        W18577  13.620   1.985  14.813 -0.0834  0.0136 -0.0906
 2317W        W18578   3.754   5.544  13.581 -0.1717  0.1611 -0.1125
 2318W        W18579   2.767  11.168   0.654 -0.1364  0.1084 -0.3709
 2319W        W18580  16.586   1.652   5.794 -0.1569 -0.0518  0.0302
 2320W        W18581  12.492   4.190   3.740 -0.0954 -0.1974 -0.0928
 2321W        W18582   0.048  11.600  15.279  0.2490 -0.0215 -0.2051
 2322W        W18583   8.741   9.011   3.471 -0.0800 -0.1445 -0.0481
 2323W        W18584  17.040  17.600  13.968 -0.0613 -0.2087  0.1075
 2324W        W18585   2.369  11.348   3.703 -0.0913  0.1753 -0.0049
 2325W        W18586   8.404  18.725  13.823  0.1644 -0.0756  0.1772
 2326W        W18587  13.365   7.521   4.200 -0.1517  0.3623 -0.1126
 2327W        W18588  13.746   1.429   0.723 -0.2074  0.1152  0.0558
 2328W        W18589   7.794   3.385  11.687  0.0467 -0.0926 -0.1398
 2329W        W18590  14.320   3.081  12.116  0.1142 -0.0879  0.2548
 2330W        W18591   6.704  10.670  10.925  0.2564 -0.0124 -0.0851
 2331W        W18592   8.244   6.836   3.509 -0.3040  0.1350  0.0494
 2332W        W18593  10.199   8.863  14.899  0.0076  0.5161 -0.1360
 2333W        W18594   0.893   6.356  12.622  0.0228  0.1636 -0.1678
 2334W        W18595  10.722   9.219   5.058  0.2116  0.1018  0.1693
 2335W        W18596  13.244  13.059  11.183 -0.2179  0.2115  0.4405
 2336W        W18597  14.319   5.516  14.089  0.2710  0.1754 -0.0920
 2337W        W18598   4.644   3.050  13.248 -0.0548 -0.1085  0.2024
 2338W        W18599  16.993   2.857  11.818  0.1047 -0.3656  0.0133
 2339W        W18600  10.145   7.061  14.915 -0.2670 -0.1200 -0.1094
 2340W        W18601   4.361  17.138  10.940  0.0792  0.1580 -0.0215
 2341W        W18602  18.451   8.310   3.003  0.0009 -0.3282  0.4948
 2342W        W18603  16.576   2.042  10.798  0.0536 -0.1390 -0.1393
 2343W        W18604  11.619   8.229   2.598 -0.2205 -0.2092  0.0562
 2344W        W18605  13.021   1.119  13.543 -0.4609 -0.1996 -0.1724
 2345W        W18606  14.830   7.438   0.853 -0.0658 -0.1932  0.1671
 2346W        W18607  18.804  18.569  15.577  0.2215 -0.0494  0.3266
 2347W        W18608  13.253   8.180  15.164 -0.0485 -0.2336 -0.0090
 2348W        W18609  10.496  16.560  12.665  0.1422 -0.0010 -0.4192
 2349W        W18610   8.008  13.166   1.420 -0.6127 -0.0059 -0.1579
 2350W        W18611  11.907  15.884  11.307 -0.1944 -0.0210 -0.0054
 2351W        W18612   5.628   4.283  13.241  0.2002  0.0138 -0.1615
 2352W        W18613  17.403  17.850  14.303 -0.0906  0.1608  0.0232
 2353W        W18614  12.125   3.073   4.855  0.0281  0.1384 -0.5320
 2354W        W18615   9.659  15.956  13.925  0.2761 -0.0659 -0.2465
 2355W        W18616  15.015   5.804  11.040 -0.2026 -0.0279  0.1598
 2356W        W18617  17.261  16.501   1.661 -0.0901 -0.1697  0.0479
 2357W        W18618  18.604  15.448  11.990 -0.4099  0.1476 -0.0808
 2358W        W18619  18.271  18.427   1.169 -0.0951  0.0302 -0.5914
 2359W        W18620  11.081  15.299  13.281  0.2540 -0.3049  0.0437
 2360W        W18621  12.801   9.227  14.959 -0.2720  0.2809  0.5040
 2361W        W18622  16.246   5.315   0.272 -0.0886  0.2142 -0.1499
 2362W        W18623  17.601   1.191  13.170  0.1439  0.2774 -0.0336
 2363W        W18624  10.021  14.960   3.622 -0.2116  0.0751  0.0535
 2364W        W18625  14.985   7.784  14.817 -0.0619  0.0054 -0.0265
 2365W        W18626   1.190   8.300   3.756  0.1548 -0.0431 -0.4590
 2366W        W18627  18.488   9.105   4.433  0.1407 -0.0399  0.1444
 2367W        W18628  16.135  11.898   2.974 -0.1169  0.0679  0.3083
 2368W        W18629   9.169  11.699   4.715  0.1287 -0.0861  0.1187
 2369W        W18630   1.226   1.587   2.482  0.0231 -0.0167 -0.0781
 2370W        W18631   2.293   9.614  14.465 -0.0233  0.0775  0.1044
 2371W        W18632  13.118   7.277  12.289 -0.1616 -0.1038  0.1053
 2372W        W18633  10.281  15.555   1.985 -0.3532 -0.0967 -0.0261
 2373W        W18634  12.962  17.029  13.295  0.0831  0.3909 -0.1224
 2374W        W18635  12.421   0.222  15.593 -0.0865  0.4314 -0.0060
 2375W        W18636  17.932   3.479   3.902 -0.1525  0.2470  0.0997
 2376W        W18637   9.113  18.246  14.330  0.2617 -0.2913 -0.2249
 2377W        W18638  14.048   5.361   2.117  0.3445  0.4931 -0.0220
 2378W        W18639   5.435  13.902  13.568  0.1626 -0.1771  0.1093
 2379W        W18640   8.222  17.031   2.002  0.4169 -0.4810 -0.0556
 2380W        W18641  18.005  18.231  13.355  0.0352  0.1932  0.2687
 2381W        W18642   0.500   3.989  13.058  0.0308 -0.0916  0.0988
 2382W        W18643   3.625   5.655   4.647 -0.4038  0.2995 -0.2211
 2383W        W18644   0.605  18.007  13.816  0.0171 -0.0703 -0.0510
 2384W        W18645   0.703  12.610  12.806  0.1033  0.3613 -0.1769
 2385W        W18646   2.612  13.277  12.033  0.0454  0.0170 -0.0609
 2386W        W18647   5.651  17.958  15.286 -0.1418  0.2385 -0.3148
 2387W        W18648   3.514   5.917   4.223 -0.0324  0.1595 -0.0605
 2388W        W18649   2.232  16.178  14.232  0.0766 -0.1732  0.0807
 2389W        W18650  11.942  10.445  11.975  0.2572 -0.0177 -0.3191
 2390W        W18651  15.452   0.933  11.333  0.2408 -0.1259 -0.1339
 2391W        W18652   8.714  10.475  14.275  0.1300  0.0386  0.2552
 2392W        W18653   5.109   9.737  11.675 -0.0420  0.0203  0.0109
 2393W        W18654   3.179  10.771  10.830 -0.2829  0.1387  0.0575
 2394W        W18655  10.993   6.652   4.015  0.1315  0.1688  0.1528
 2395W        W18656  18.185  12.841  12.739 -0.0319  0.0007 -0.1671
 2396W        W18657  12.443  18.771   1.370  0.2227  0.2311 -0.2443
 2397W        W18658  18.228   1.234   1.939 -0.0889  0.0591 -0.1243
 2398W        W18659  10.150   7.735   3.528  0.1973 -0.0700  0.1707
 2399W        W18660   1.824  16.828   4.876  0.1947  0.3758 -0.0350
 2400W        W18661   8.347   9.763  15.508  0.2826 -0.3266  0.1647
 2401W        W18662  16.336  11.534   3.355  0.1568 -0.0304 -0.0126
 2402W        W18663   5.658   7.632  11.417 -0.0936 -0.2451 -0.0231
 2403W        W18664   2.124   3.359  11.084 -0.0818  0.0838 -0.1675
 2404W        W18665  18.177   9.087  12.728  0.2812  0.2648 -0.1297
 2405W        W18666   3.996   3.434  15.099 -0.0357  0.0223  0.1309
 2406W        W18667   7.677   0.589   4.333  0.1657  0.2736  0.1360
 2407W        W18668   9.891  10.513   4.421  0.3697  0.0437  0.0127
 2408W        W18669   9.720   7.358  15.646 -0.4534 -0.0125  0.1969
 2409W        W18670  16.239   5.438   4.654 -0.2716 -0.2080 -0.0529
 2410W        W18671  13.035  14.572  13.515  0.1784  0.1765 -0.0779
 2411W        W18672  12.903   8.967   5.231  0.2847  0.0865 -0.0080
 2412W        W18673  13.111   5.454   1.883  0.0604  0.4313 -0.1080
 2413W        W18674   3.129   1.894   2.601  0.0626 -0.1648  0.0193
 2414W        W18675   8.187  11.658  11.251  0.0622  0.3309  0.0232
 2415W        W18676  17.643  13.501  12.334 -0.0101 -0.0250  0.1816
 2416W        W18677   6.946  12.464   0.981 -0.3188  0.1101 -0.1547
 2417W        W18678  13.698  12.471   1.194  0.0876 -0.1743 -0.1055
 2418W        W18679  16.603   0.004   3.870 -0.1978  0.3332 -0.2151
 2419W        W18680   6.723  13.881   2.886 -0.0421  0.3857 -0.0327
 2420W        W18681  14.721   6.233  14.362 -0.2762  0.0401 -0.1635
 2421W        W18682  11.825  16.252   4.586  0.2071 -0.1391 -0.0147
 2422W        W18683   8.078  18.029   2.007  0.1125  0.0810 -0.0248
 2423W        W18684   8.850  15.873   2.178  0.0662 -0.2058  0.1643
 2424W        W18685   6.339   5.673  14.381 -0.1286 -0.3368 -0.0113
 2425W        W18686   7.423   2.453   0.899  0.2944  0.0656 -0.0460
 2426W        W18687  15.031   0.389   2.022  0.1887  0.0522  0.0850
 2427W        W18688  15.678  13.830   0.090 -0.3311 -0.1645 -0.0974
 2428W        W18689   6.803  10.555  14.860 -0.1757  0.1529  0.0113
 2429W        W18690   6.374  12.669  13.720 -0.3320 -0.0366  0.1046
 2430W        W18691   3.314   1.873   3.109  0.1481  0.1801 -0.0798
 2431W        W18692  16.716   7.239  13.074 -0.2354  0.1427 -0.2612
 2432W        W18693  17.345  12.291   2.456 -0.0816 -0.2152  0.3528
 2433W        W18694  13.581   2.452  13.022 -0.0003  0.0086  0.3184
 2434W        W18695  12.919   9.270  11.285 -0.0778  0.2682 -0.2020
 2435W        W18696  12.070   3.226  11.666  0.0815 -0.3784  0.2300
 2436W        W18697  18.542  16.354   2.515  0.0346  0.2652 -0.1475
 2437W        W18698   9.538  16.406   5.067 -0.3256  0.0521 -0.0721
 2438W        W18699  11.974   1.465  11.134  0.2886 -0.0353 -0.2209
 2439W        W18700   5.816  14.331   1.260 -0.2385 -0.2339  0.2095
 2440W        W18701  17.428  18.148  13.005 -0.0341  0.2862 -0.3156
 2441W        W18702  15.757  15.994  10.067 -0.2927  0.0126 -0.2526
 2442W        W18703   3.220  18.234  14.031  0.3058  0.0196  0.0794
 2443W        W18704   6.609   0.131   1.627  0.0779  0.0944 -0.1981
 2444W        W18705  18.540   7.200  14.530 -0.0443 -0.3285  0.0700
 2445W        W18706   6.251  17.763   3.693  0.3667 -0.0414  0.2150
 2446W        W18707   9.428   2.744  14.658  0.0234  0.2331 -0.1253
 2447W        W18708   1.913   9.528  13.649 -0.1740 -0.0474  0.0337
 2448W        W18709   3.757   9.706   2.376 -0.0126  0.1204  0.0054
 2449W        W18710   6.040  11.463  11.863  0.0972  0.0052 -0.0439
 2450W        W18711   3.036  15.196  13.282  0.2227  0.1761 -0.0707
 2451W        W18712   4.919   8.805  12.188  0.0510  0.0518 -0.2510
 2452W        W18713  17.682   9.985   5.163  0.2348  0.0705  0.1750
 2453W        W18714  10.491  13.874  12.677  0.0890 -0.2222  0.3943
 2454W        W18715  13.902  14.297  15.257  0.0384 -0.0719 -0.1639
 2455W        W18716  11.210   0.508   4.604  0.1500 -0.1266  0.0178
 2456W        W18717   4.711   4.292  12.131  0.1109  0.2434  0.2214
 2457W        W18718  18.678  11.985  12.198 -0.0673  0.0978 -0.0754
 2458W        W18719   1.893  10.539  12.024  0.1175 -0.1034  0.0819
 2459W        W18720   1.617   1.002   3.621 -0.3630  0.0047  0.4051
 2460W        W18721   1.082   4.756   2.696 -0.0976 -0.3394  0.1796
 2461W        W18722  16.213  10.954  11.217 -0.3638 -0.0442  0.1494
 2462W        W18723   7.276   8.315  11.619 -0.0194 -0.1520 -0.1384
 2463W        W18724  12.310  18.592  15.564 -0.0144  0.2968  0.0692
 2464W        W18725  12.103  17.491  11.121  0.2221 -0.0013  0.0952
 2465W        W18726   6.081  13.353   1.104 -0.0860 -0.2468 -0.0805
 2466W        W18727  11.220   7.637   4.838  0.0481  0.4452 -0.3776
 2467W        W18728  15.308  11.933   0.974 -0.0643  0.0211 -0.2517
 2468W        W18729   5.951  16.008   3.077  0.0406 -0.1484  0.2237
 2469W        W18730  17.070   2.408   2.064  0.2037  0.1015  0.3441
 2470W        W18731   3.169   9.612  12.073  0.0686 -0.1311 -0.1570
 2471W        W18732   8.279  12.589  10.537 -0.2382  0.2999  0.0563
 2472W        W18733  11.307   5.492   5.156  0.0572 -0.1945  0.2522
 2473W        W18734  15.509   5.205  14.744  0.2236 -0.0322 -0.2216
 2474W        W18735  18.720  11.969  14.509  0.0928 -0.0776  0.0749
 2475W        W18736   8.000   5.879  12.316  0.3125 -0.1888 -0.0018
 2476W        W18737  16.939   3.512  14.640  0.0775  0.1774  0.2432
 2477W        W18738  13.348  17.656   5.734  0.0942  0.0948  0.2148
 2478W        W18739   9.365  14.366   4.743  0.1415 -0.3186  0.2592
 2479W        W18740   8.384   3.523   0.733 -0.0527 -0.0879 -0.0864
 2480W        W18741   3.901   0.761  11.035 -0.3517 -0.1549  0.1797
 2481W        W18742   5.519  13.065   1.211  0.3381 -0.0908 -0.1290
 2482W        W18743   2.698  16.749  10.955  0.2388 -0.1386  0.2710
 2483W        W18744   1.172   2.189   3.876  0.0970 -0.0462  0.1070
 2484W        W18745  13.814  14.949   0.428 -0.0827 -0.2504  0.1706
 2485W        W18746   8.238  17.338   4.311 -0.1656  0.4803  0.0945
 2486W        W18747   2.057   9.836  13.171 -0.0818 -0.0545 -0.0379
 2487W        W18748  14.872   1.468  13.060 -0.3072  0.3742  0.2633
 2488W        W18749   1.139  13.864  15.126 -0.1647  0.2176  0.2056
 2489W        W18750   7.785  12.200   2.652 -0.1011 -0.0157  0.0345
 2490W        W18751   1.348   6.018   4.219 -0.1791 -0.3042  0.2213
 2491W        W18752   6.246  11.992   5.650  0.1032  0.0086  0.2442
 2492W        W18753   7.219   7.524  12.204  0.0942 -0.0168  0.2195
 2493W        W18754  13.764  17.838   2.730  0.0296  0.2356  0.0352
 2494W        W18755   8.874  11.437   0.235  0.1280 -0.0756  0.2364
 2495W        W18756   0.486   1.200  10.852  0.1886  0.3732  0.0286
 2496W        W18757   2.905  17.798   2.280 -0.0426 -0.0228 -0.1844
 2497W        W18758   3.145  16.768   3.229  0.4910 -0.1257 -0.1722
 2498W        W18759   9.769  18.016   3.909  0.0879  0.2677  0.0383
 2499W        W18760   4.213   4.049   0.558  0.0545 -0.0863 -0.1157
 2500W        W18761  11.730   7.399   3.094  0.1497  0.0314 -0.1110
 2501W        W18762  16.028  15.360   2.261  0.1341  0.0944 -0.2212
 2502W        W18763  16.602   2.282   2.157 -0.1834 -0.3133  0.0632
 2503W        W18764   4.891   1.869   5.021 -0.4786  0.2245  0.0621
 2504W        W18765  18.192  11.349   1.792  0.1148  0.2679 -0.1144
 2505W        W18766  15.883   4.757   1.248 -0.1393 -0.2575  0.3049
 2506W        W18767   7.841  11.210  14.253 -0.2177  0.1798  0.0085
 2507W        W18768   8.856   7.685  14.970 -0.2415  0.3499 -0.0145
 2508W        W18769   7.835  17.185   0.059  0.3333 -0.1379  0.0647
 2509W        W18770  16.043  17.538  14.342 -0.0901 -0.0595 -0.0211
 2510W        W18771  12.709   4.523  15.481 -0.1183 -0.2493 -0.1605
 2511W        W18772   3.963   4.268   4.458  0.1341 -0.1541 -0.2105
 2512W        W18773  10.913  12.883  10.789  0.0250 -0.0683  0.2552
 2513W        W18774  14.290   4.645   1.751  0.2270 -0.2403  0.0976
 2514W        W18775  16.538   2.418  15.163  0.0780  0.1847  0.2276
 2515W        W18776   1.610   8.677  12.469 -0.1537 -0.0055 -0.0479
 2516W        W18777   2.185  16.619  12.381  0.0070  0.2187 -0.1459
 2517W        W18778  10.285  14.866  13.303 -0.1269 -0.2996  0.1420
 2518W        W18779   4.351   9.880  13.878  0.0953  0.0608 -0.3757
 2519W        W18780  11.871  16.759   0.093  0.1324 -0.0862  0.2400
 2520W        W18781  14.290   8.680   1.990  0.0831 -0.1676 -0.0514
 2521W        W18782  15.247   0.906   0.600  0.0340  0.2124  0.1480
 2522W        W18783   6.465  14.684   2.850  0.0140  0.1707  0.2871
 2523W        W18784  10.453   3.702  15.428 -0.0817  0.0208  0.1340
 2524W        W18785  12.600   5.104   3.538 -0.1832 -0.0742 -0.2682
 2525W        W18786   7.854   9.365  14.649  0.1815  0.2887 -0.2957
 2526W        W18787   4.966  15.584  11.363 -0.1076 -0.0957  0.1488
 2527W        W18788  11.389   1.466   0.211 -0.1277 -0.0460  0.0746
 2528W        W18789   6.795   8.585  15.368 -0.2805  0.0442 -0.4643
 2529W        W18790  12.145   4.960  12.455  0.1557  0.0354  0.1452
 2530W        W18791   9.209  15.995  14.217 -0.2299 -0.1129  0.1737
 2531W        W18792  15.515  11.843   4.897  0.0542  0.0547 -0.3778
 2532W        W18793   7.537  18.432  11.637 -0.2600 -0.0282  0.3085
 2533W        W18794   6.277   4.158   4.851  0.0215 -0.2847 -0.0854
 2534W        W18795  12.872   5.888  12.745  0.1909  0.0668 -0.0030
 2535W        W18796  11.726  15.367   0.385  0.2355 -0.0344 -0.0320
 2536W        W18797  11.222   2.572  15.112 -0.0909  0.0341 -0.2541
 2537W        W18798   1.970  13.786  10.557 -0.0320  0.0440 -0.0241
 2538W        W18799  12.230   5.883  12.414  0.0700  0.0639  0.0382
 2539W        W18800   0.327   7.329   2.898  0.0641 -0.2095 -0.0741
 2540W        W18801   5.785  17.562   1.166  0.0050 -0.1661 -0.1872
 2541W        W18802  18.385  12.631  11.280 -0.1490 -0.3036  0.2633
 2542W        W18803  15.163  10.825  12.018  0.0031  0.3676  0.1370
 2543W        W18804   7.694   2.159   1.586  0.1096 -0.1018  0.0825
 2544W        W18805   4.130   5.646  12.718 -0.1210 -0.1765 -0.4024
 2545W        W18806   5.757  10.420   4.386  0.0228  0.0654 -0.1712
 2546W        W18807  16.710   9.183  11.491  0.0971  0.0511  0.0158
 2547W        W18808   3.985   4.996   0.229 -0.1172 -0.1829 -0.3837
 2548W        W18809   5.492   6.826   3.995  0.2356 -0.1265  0.2240
 2549W        W18810  10.416   2.623   1.534 -0.2048  0.1238  0.2059
 2550W        W18811  10.297   7.641  14.841  0.4550  0.1185 -0.2880
 2551W        W18812  13.053   2.690  13.224  0.0036 -0.0252  0.0030
 2552W        W18813  17.459   5.870   4.221 -0.0076 -0.1368  0.0129
 2553W        W18814  18.366  13.229   3.409 -0.0686 -0.2659 -0.0524
 2554W        W18815   6.282  14.906  14.464  0.0435  0.3671 -0.1008
 2555W        W18816  14.416   5.322  12.188 -0.0245  0.1581  0.0001
 2556W        W18817   1.087  14.504  11.189 -0.0814 -0.0075 -0.0175
 2557W        W18818  11.073  13.633   2.792  0.1560 -0.1520 -0.3697
 2558W        W18819   0.532   8.590   1.119  0.1848 -0.0530 -0.2675
 2559W        W18820   0.459   9.967   1.936  0.3919 -0.1248 -0.1171
 2560W        W18821  18.519  12.884  14.163  0.2714  0.0232 -0.2531
 2561W        W18822   3.640  11.425  15.500 -0.0611 -0.0955  0.0014
 2562W        W18823   1.882  13.105   3.561 -0.1432  0.1702 -0.3218
 2563W        W18824   1.936  17.304  13.501 -0.0958 -0.2265 -0.2993
 2564W        W18825   1.417  14.264  12.528 -0.1193  0.1126 -0.0501
 2565W        W18826   7.509   1.989   2.252  0.3713 -0.0667 -0.1657
 2566W        W18827  18.014   3.795   2.798  0.1754  0.3180 -0.1235
 2567W        W18828  17.643  14.349  12.955  0.0643  0.1664  0.0836
 2568W        W18829  14.247  12.385   1.867 -0.1944 -0.2341  0.0057
 2569W        W18830  16.280  11.776  10.562 -0.0795 -0.1632  0.0101
 2570W        W18831   2.358  13.961  15.380  0.2522 -0.0012  0.1819
 2571W        W18832   3.221  12.718  12.511  0.1435 -0.1633  0.2307
 2572W        W18833  10.516  15.349   4.716 -0.0157 -0.2716  0.0950
 2573W        W18834  14.977   1.673   4.911 -0.0855 -0.0008  0.0465
 2574W        W18835  15.983   1.418  13.713  0.1686  0.0414 -0.0666
 2575W        W18836  12.176  16.007  10.789 -0.0720  0.1085 -0.0183
 2576W        W18837   3.061  10.569   4.334  0.0424 -0.2863  0.0447
 2577W        W18838  14.368   9.487  11.806 -0.0626 -0.0070  0.1574
 2578W        W18839   3.108  10.609   1.339 -0.0975  0.3037  0.1352
 2579W        W18840   2.021   7.220  13.139  0.0023  0.3719 -0.3747
 2580W        W18841  16.982  12.281  15.362  0.2184 -0.1009  0.1144
 2581W        W18842  15.035   9.512  11.086  0.2126  0.2898  0.1472
 2582W        W18843   1.333   8.818  13.635 -0.1362 -0.2793 -0.2191
 2583W        W18844   1.340  11.344  12.051 -0.0214  0.0673  0.0939
 2584W        W18845  16.987  10.450   1.376 -0.0028  0.0390  0.2701
 2585W        W18846  16.481  10.271   2.903  0.1380 -0.1827  0.2391
 2586W        W18847  15.315  16.403  11.344 -0.1440 -0.2163  0.2198
 2587W        W18848   8.480  15.471  10.242 -0.1085 -0.2674  0.0018
 2588W        W18849   0.604   6.089   3.826 -0.0743  0.2541  0.2077
 2589W        W18850  12.677   9.324   2.770 -0.0764 -0.0470  0.2006
 2590W        W18851  18.181  12.855   9.669 -0.1377  0.3249  0.2298
 2591W        W18852  12.974  11.482  11.876  0.0729  0.1561 -0.2190
 2592W        W18853  16.102   0.364  13.438  0.3129 -0.1129 -0.2591
 2593W        W18854  12.446   3.230  12.031 -0.1531 -0.3287 -0.4071
 2594W        W18855   2.854  11.882  13.924 -0.3467 -0.1392 -0.2163
 2595W        W18856   7.486   8.363  13.215  0.1682  0.0993  0.0643
 2596W        W18857  13.095  16.568   1.756  0.0852  0.1868  0.0839
 2597W        W18858  18.142  11.815  11.701  0.0280  0.1602  0.2961
 2598W        W18859   4.842  10.988   2.944  0.2774 -0.4159  0.1975
 2599W        W18860  17.309  11.144  10.973  0.1332  0.3980 -0.0095
 2600W        W18861  16.711   9.600   1.621  0.1558  0.0544  0.0101
 2601W        W18862  13.229  16.364   0.316 -0.2734 -0.0582  0.2036
 2602W        W18863   9.230   6.671  11.422 -0.3339  0.0037 -0.1062
 2603W        W18864   3.085  15.617   1.040  0.2401  0.0160  0.2215
 2604W        W18865   3.219  13.637   4.940  0.0140 -0.0549  0.2974
 2605W        W18866  18.643   2.191  13.591 -0.2532  0.1597  0.1464
 2606W        W18867  15.005   4.257  15.161 -0.2220 -0.0887 -0.0077
 2607W        W18868  10.665   3.423   2.155  0.3160  0.2561 -0.1656
 2608W        W18869   9.552   5.223  11.689  0.2418 -0.0295  0.2069
 2609W        W18870  16.876   1.320   0.948 -0.1009  0.0458  0.0257
 2610W        W18871   4.900  11.591  13.246 -0.2110 -0.0431 -0.2048
 2611W        W18872   0.781  12.786   5.553  0.0184 -0.1260 -0.0380
 2612W        W18873   6.761  11.220  15.469 -0.1618  0.1762 -0.0406
 2613W        W18874  13.822   5.342   3.686  0.1359  0.1324  0.0807
 2614W        W18875  15.080  14.996   4.175  0.1864 -0.0978 -0.0992
 2615W        W18876   4.247   4.451  10.389  0.0893  0.1705  0.2289
 2616W        W18877  12.608  16.199   4.564  0.1735  0.0269  0.0191
 2617W        W18878   9.855  12.996  11.369 -0.3903 -0.0788  0.2171
 2618W        W18879   8.310  17.288  11.457 -0.2981 -0.1570 -0.2021
 2619W        W18880  16.319   5.551  11.052 -0.2714 -0.0254 -0.1887
 2620W        W18881  10.162   0.967   0.809  0.4209 -0.0376 -0.1399
 2621W        W18882  17.693   5.542   2.858  0.1637 -0.0807 -0.2253
 2622W        W18883   9.627  16.429   0.273 -0.0280 -0.0735  0.2737
 2623W        W18884   3.521   9.420  15.610 -0.3435 -0.1051  0.2639
 2624W        W18885  17.649   4.011   3.960  0.2023 -0.1351 -0.1124
 2625W        W18886   7.354   1.018  13.420  0.0264 -0.3210  0.4024
 2626W        W18887  12.247  13.450  15.421 -0.0033 -0.0174  0.4297
 2627W        W18888   6.782  12.568  12.870 -0.0069  0.0840 -0.1173
 2628W        W18889  14.540  16.319   9.344  0.0629  0.1576 -0.1022
 2629W        W18890   5.042  13.748   5.025  0.2270 -0.3115 -0.1368
 2630W        W18891   1.853  18.755  12.006  0.2277  0.2374  0.0625
 2631W        W18892   1.141  11.583  10.609 -0.4057 -0.0802  0.1430
 2632W        W18893   5.625   6.276   4.313 -0.2052  0.2604 -0.2235
 2633W        W18894   3.020   8.331  11.780 -0.3013 -0.0643 -0.0117
 2634W        W18895  18.769  10.386   2.667 -0.0546  0.1782 -0.1833
 2635W        W18896   9.429   5.694  13.823  0.1691 -0.3640 -0.0610
 2636W        W18897   0.543   3.005  15.357 -0.1223  0.1340  0.2982
 2637W        W18898  15.161  14.250  10.793  0.1404  0.1865  0.0462
 2638W        W18899  14.156   9.271  14.498  0.2877 -0.2114 -0.1631
 2639W        W18900  15.394   8.171  14.283 -0.2297 -0.2588  0.1259
 2640W        W18901   7.607  12.293  15.131  0.0772  0.2892  0.4024
 2641W        W18902   0.066   9.105   4.042  0.1526  0.0328 -0.6401
 2642W        W18903  12.611  15.708  10.785 -0.2055 -0.1803 -0.4319
 2643W        W18904   9.166   5.208  14.097 -0.1436 -0.2121 -0.2702
 2644W        W18905  13.663  15.797   0.508  0.3910 -0.0589  0.0035
 2645W        W18906   0.952   4.141   1.098  0.0174  0.1503 -0.2036
 2646W        W18907   4.787   3.558  12.995 -0.1592 -0.0783  0.1934
 2647W        W18908   8.317   7.672   1.128 -0.0171  0.0542  0.0882
 2648W        W18909  12.148   7.380   2.731  0.1106  0.0265 -0.2828
 2649W        W18910   0.025  12.812   2.154 -0.0677  0.1361 -0.3359
 2650W        W18911   5.007  12.532   3.294  0.1320  0.3530 -0.0464
 2651W        W18912  13.319   4.194  15.199  0.1160 -0.0018 -0.1604
 2652W        W18913   4.159  12.746   2.831  0.2372 -0.2876 -0.1498
 2653W        W18914   9.557   0.689  11.556 -0.0719  0.1973  0.1405
 2654W        W18915   2.790   9.098   4.768 -0.0870  0.0919  0.0168
 2655W        W18916  11.657  17.136  11.969  0.2093 -0.2774 -0.0706
 2656W        W18917   5.165  10.505   1.078  0.2421  0.1615 -0.0876
 2657W        W18918   8.713  13.954   1.810  0.0558 -0.0327 -0.0428
 2658W        W18919   6.338   8.565   3.358 -0.1332  0.0221 -0.0082
 2659W        W18920   3.247   8.769  13.902  0.2586  0.0851 -0.1867
 2660W        W18921   9.952  14.504  11.660 -0.2662  0.0842  0.1470
 2661W        W18922  16.058   2.920   5.612  0.3562  0.0969  0.2358
 2662W        W18923  10.133  16.525   3.606 -0.3822  0.0661  0.0123
 2663W        W18924   1.340  16.060   4.915  0.2094  0.1431 -0.1711
 2664W        W18925   6.954  14.985   1.469  0.0148  0.0725  0.0102
 2665W        W18926  11.870  10.707  14.048  0.0883 -0.2803  0.4070
 2666W        W18927  15.113   8.093   1.885  0.1067  0.0643 -0.1502
 2667W        W18928  17.879   3.259   4.378 -0.3770 -0.0575 -0.0640
 2668W        W18929   3.635   2.454  15.002 -0.0665 -0.0373  0.0867
 2669W        W18930  13.699  12.485   1.726  0.0720 -0.1628  0.0297
 2670W        W18931  15.095  13.565  11.800  0.2418 -0.2319 -0.1625
 2671W        W18932  12.736  16.023  15.306 -0.1178  0.0905 -0.4294
 2672W        W18933   8.768  13.235   3.068 -0.0526 -0.2156  0.1228
 2673W        W18934   6.929   8.253  13.932  0.0307  0.0617 -0.1539
 2674W        W18935  17.670   7.213   1.928 -0.0000  0.1497  0.2247
 2675W        W18936   8.213  12.983  12.250  0.1017  0.1936 -0.4551
 2676W        W18937   9.603   3.253   1.721  0.3060 -0.1321  0.0351
 2677W        W18938   8.289  10.190  15.336 -0.0193 -0.0896 -0.0510
 2678W        W18939   9.551  16.555   5.587 -0.1144  0.0377  0.1835
 2679W        W18940   1.447  15.818   2.212  0.2325  0.2737 -0.1321
 2680W        W18941  14.760  15.389  14.864  0.2495  0.2704 -0.0088
 2681W        W18942   1.848  11.890   4.403 -0.2586  0.1420 -0.2447
 2682W        W18943  17.893  10.608  11.720  0.0391 -0.0009 -0.0176
 2683W        W18944  14.445   2.428  12.028  0.0126  0.0315 -0.3114
 2684W        W18945  10.319  17.911   1.447  0.1058 -0.0016 -0.2619
 2685W        W18946  13.085   7.763   0.024  0.1084 -0.2198 -0.0938
 2686W        W18947   7.968  11.698   2.546  0.0865  0.0626  0.0142
 2687W        W18948  13.007   7.489  13.300  0.1163  0.0369  0.0558
 2688W        W18949   5.264  14.156  11.596  0.1889  0.2419 -0.1264
 2689W        W18950  18.063   8.595   0.730  0.0777  0.0557  0.0954
 2690W        W18951  13.318   3.085  13.697 -0.0116  0.0169  0.0113
 2691W        W18952   3.743  15.402   2.844  0.1678 -0.2140 -0.2559
 2692W        W18953  17.541   6.662  12.966  0.0976 -0.2605 -0.1058
 2693W        W18954  11.256  12.181  14.854 -0.0992 -0.2514 -0.1324
 2694W        W18955  16.022  13.680  14.227 -0.1840 -0.2060  0.0543
 2695W        W18956  15.929  17.470   1.018  0.0543 -0.0190 -0.2133
 2696W        W18957  15.266  18.395   1.257  0.1859  0.0273  0.1056
 2697W        W18958  13.000   8.035  11.702  0.2832  0.2513  0.0657
 2698W        W18959   6.611   2.951   2.954 -0.0498  0.0034  0.1452
 2699W        W18960  12.862  11.564   0.051  0.0336  0.2088 -0.3442
 2700W        W18961  10.361  13.887   9.870 -0.1904  0.0504  0.0977
 2701W        W18962  17.504   7.852  15.507 -0.2992 -0.0598 -0.2141
 2702W        W18963   8.205   4.907  13.745  0.0450 -0.0585 -0.0074
 2703W        W18964  14.330   1.118  10.821  0.2571 -0.2856  0.1072
 2704W        W18965   5.377   9.537   0.932  0.0546  0.1008  0.1700
 2705W        W18966   1.153   6.255   3.837 -0.0226  0.3647  0.0902
 2706W        W18967   4.271   4.674   1.135  0.1231 -0.1053 -0.0840
 2707W        W18968  14.104  13.032  13.870 -0.1892  0.2324 -0.1811
 2708W        W18969  18.023   9.524   1.703 -0.4039  0.2952  0.2838
 2709W        W18970   2.371   5.511   2.219  0.1653 -0.1757 -0.0752
 2710W        W18971  17.559  17.118  15.251  0.2042 -0.0409 -0.0963
 2711W        W18972   1.158   8.704  12.720 -0.1577  0.1738  0.0238
 2712W        W18973  10.211  11.258  12.818  0.1093  0.1710  0.1904
 2713W        W18974   8.240  18.293  12.917 -0.2676 -0.2119  0.2548
 2714W        W18975  14.379  17.244  15.170 -0.0794 -0.0531 -0.0462
 2715W        W18976  18.684   1.019   4.427  0.0897  0.4108  0.0012
 2716W        W18977   0.603   0.787   5.330  0.3918  0.1325 -0.0958
 2717W        W18978   8.173   9.203   2.811  0.1436 -0.1357 -0.2408
 2718W        W18979  10.962   6.495   1.067  0.0597  0.3484  0.2214
 2719W        W18980  11.772   5.842   4.584 -0.1206 -0.0527 -0.1476
 2720W        W18981  12.916   0.262  15.209  0.0119  0.1030 -0.2729
 2721W        W18982  14.430  18.245  12.075 -0.0942 -0.1640  0.2655
 2722W        W18983   3.152   1.945  12.096  0.1399 -0.1571 -0.1050
 2723W        W18984   1.128  18.114  11.846 -0.0523 -0.1266 -0.3132
 2724W        W18985  14.338  17.192  12.781 -0.0877 -0.0575 -0.0870
 2725W        W18986  16.215  11.545   0.496 -0.2653 -0.0437  0.0754
 2726W        W18987   8.275   3.017   1.706  0.0068  0.1948 -0.1923
 2727W        W18988   3.750   4.615  14.938 -0.2605  0.0361 -0.1645
 2728W        W18989   5.515   5.705   1.411  0.3115  0.0604  0.1144
 2729W        W18990   0.501   4.518   1.137  0.1767 -0.0827 -0.0972
 2730W        W18991   5.084   9.918   0.232  0.1391 -0.1298 -0.0439
 2731W        W18992   8.228  12.098   1.797  0.1681 -0.1827  0.2863
 2732W        W18993  15.806   2.040  14.472 -0.1056 -0.1168 -0.1905
 2733W        W18994   3.089   7.995   5.116  0.2182 -0.2340 -0.1862
 2734W        W18995  15.210   7.268  12.968  0.0314 -0.2355  0.2348
 2735W        W18996  13.750  11.651   5.345  0.0193  0.0607  0.0091
 2736W        W18997  11.577  18.606   0.833 -0.0970  0.0154  0.2963
 2737W        W18998  13.206   1.452   2.117 -0.0348  0.0777  0.0848
 2738W        W18999  10.827  12.335  14.608 -0.0520  0.0729 -0.2190
 2739W        W19000   2.772  18.580  11.396  0.3098  0.1429 -0.0062
 2740W        W19001   5.996  18.571  14.500 -0.2412 -0.2574 -0.3244
 2741W        W19002  12.924  10.237   4.927 -0.1744 -0.1910 -0.0341
 2742W        W19003   0.658  18.213   4.440  0.2268  0.1636 -0.0157
 2743W        W19004   2.978   1.982   1.372  0.1451 -0.0348 -0.4549
 2744W        W19005   4.107   2.456   4.848  0.0707 -0.3888  0.2602
 2745W        W19006   1.233  13.097   2.237 -0.0984 -0.2521  0.1914
 2746W        W19007  18.784   2.210   3.583  0.1629  0.0888 -0.2198
 2747W        W19008  12.543   0.160  13.888 -0.0667 -0.0307 -0.1115
 2748W        W19009   9.260  11.854   0.879  0.1122 -0.0172  0.3055
 2749W        W19010   4.829   8.005  13.577 -0.0581  0.0922  0.2286
 2750W        W19011   3.494  14.706  14.441 -0.0121  0.0327  0.1285
 2751W        W19012  15.077   0.254   3.145  0.0476  0.1683  0.0259
 2752W        W19013   6.338   9.730  12.349 -0.3780 -0.0321  0.1452
 2753W        W19014   4.005   4.768   4.233  0.1810  0.3410  0.2907
 2754W        W19015  13.375   6.624  11.725 -0.1003 -0.1016  0.0299
 2755W        W19016  14.576   9.885  12.118  0.4832 -0.1184 -0.1314
 2756W        W19017  15.814  16.696   1.709  0.0564 -0.1346  0.1295
 2757W        W19018  13.639   5.811  13.815 -0.2777 -0.1168 -0.1577
 2758W        W19019   5.662  11.733   0.564 -0.0722 -0.2232  0.0908
 2759W        W19020   1.361   2.623  15.529  0.1228 -0.1784 -0.1164
 2760W        W19021  11.480  10.064  15.062  0.0528 -0.0563 -0.1289
 2761W        W19022  15.000   7.820   2.307  0.1106 -0.0954 -0.2498
 2762W        W19023   7.292  16.737   5.047  0.3648  0.3434  0.0749
 2763W        W19024   6.727  15.941  13.188 -0.0030 -0.1534  0.2026
 2764W        W19025   3.212   6.443  11.315 -0.0910 -0.0232  0.3586
 2765W        W19026  14.963   6.479   2.860 -0.1417 -0.1345  0.2712
 2766W        W19027  13.899  10.687   3.959  0.4308 -0.3372  0.0644
 2767W        W19028  11.190  11.847   3.264  0.1223  0.3825  0.1715
 2768W        W19029   8.349  14.381  14.154  0.1262  0.0180  0.2910
 2769W        W19030  17.213   2.621  14.661 -0.2111 -0.1726  0.0024
 2770W        W19031   7.534  17.136  11.226  0.1338 -0.0024 -0.1675
 2771W        W19032  16.425   4.138   3.280  0.1763  0.1351  0.1140
 2772W        W19033  13.218  10.636   0.902 -0.2873  0.0289  0.0091
 2773W        W19034  16.522   7.893  10.610  0.1638 -0.2289  0.0849
 2774W        W19035   4.453  17.071  14.609 -0.1121  0.1646 -0.2218
 2775W        W19036  16.980   0.678   4.551 -0.0339  0.0075  0.0371
 2776W        W19037   9.859  15.040   0.180  0.0050 -0.2032 -0.0012
 2777W        W19038  18.630  10.064   3.129 -0.0132  0.2667 -0.1959
 2778W        W19039  18.427  14.738   0.456  0.0795  0.2138 -0.0156
 2779W        W19040  17.056  11.852  13.492 -0.0214 -0.0003  0.1582
 2780W        W19041  11.253   5.386   0.483  0.0876 -0.0773  0.0104
 2781W        W19042   2.252  18.340   3.018 -0.2529  0.0294 -0.0706
 2782W        W19043   4.475  11.891   0.565  0.2620 -0.3279 -0.0330
 2783W        W19044   1.578   4.799   2.521 -0.2080  0.1061  0.1433
 2784W        W19045  15.641  17.415  13.011  0.1191 -0.3673  0.3722
 2785W        W19046   6.523   8.930  12.674  0.2044  0.0730  0.3183
 2786W        W19047   7.058   1.332   4.787 -0.0722 -0.4774 -0.2757
 2787W        W19048   6.019  15.186   2.589 -0.0725  0.2483  0.1473
 2788W        W19049   1.826   0.988   0.225  0.0208 -0.3844  0.3309
 2789W        W19050   4.602  13.770   2.159 -0.0330  0.0245 -0.0651
 2790W        W19051   5.458   8.177   1.669 -0.1229 -0.0583 -0.2768
 2791W        W19052   5.245   0.173  12.725 -0.0376 -0.3213  0.1196
 2792W        W19053  16.332  15.800   2.414  0.0979 -0.0378 -0.1209
 2793W        W19054  12.059   9.107   4.084 -0.1035  0.1236  0.1139
 2794W        W19055  13.028   3.777   4.434 -0.1287  0.2944 -0.1197
 2795W        W19056  14.122  17.355   1.416  0.0033 -0.1565 -0.0600
 2796W        W19057  11.803   4.950   3.563 -0.0039  0.0198 -0.1962
 2797W        W19058   6.207  12.341  12.286  0.1808 -0.0036  0.3378
 2798W        W19059  13.431  10.131   1.710 -0.1971 -0.0637  0.0848
 2799W        W19060  13.994  14.559   4.035  0.2434  0.0976  0.0570
 2800W        W19061   1.131   1.179  14.995 -0.2109  0.2297 -0.0284
 2801W        W19062  10.021  18.349   2.081 -0.2309 -0.0806 -0.0173
 2802W        W19063  17.726   2.070   0.882  0.0637 -0.1593 -0.0659
 2803W        W19064  11.266  10.912  14.570  0.0795 -0.0956  0.0241
 2804W        W19065   5.338  10.918   0.930 -0.3357  0.0855 -0.0674
 2805W        W19066  14.281   7.048  12.821 -0.0883 -0.3211 -0.1906
 2806W        W19067   3.023  10.751   3.428 -0.0842 -0.0862  0.4137
 2807W        W19068  14.621   2.837   2.718  0.1434  0.0272  0.1569
 2808W        W19069   0.003   7.190   4.386 -0.2892  0.2319 -0.2366
 2809W        W19070  12.117   1.181   3.487  0.1962  0.2443  0.2200
 2810W        W19071  17.445  14.185  14.346  0.0425  0.3068  0.0928
 2811W        W19072  14.878  16.442  10.598  0.0414  0.2363  0.5284
 2812W        W19073  10.936   3.604  14.026  0.0370 -0.3421  0.0653
 2813W        W19074   3.574   0.699  14.639 -0.2165 -0.2728  0.2619
 2814W        W19075   3.818  18.289  15.524 -0.3021 -0.1311  0.0506
 2815W        W19076  13.274   6.783  12.236  0.4110  0.2411  0.2334
 2816W        W19077  16.105   2.535   0.299 -0.2930 -0.0607 -0.1143
 2817W        W19078  12.350  11.543  11.960 -0.0442 -0.1422 -0.1806
 2818W        W19079   0.926   3.648  12.245  0.0434 -0.0244 -0.0304
 2819W        W19080  18.484   9.525  12.023 -0.2464 -0.0148 -0.2882
 2820W        W19081  17.913   2.808  15.373  0.1068 -0.1298 -0.3983
 2821W        W19082  16.186  17.229   3.721 -0.0198  0.1578  0.0463
 2822W        W19083   4.956   9.040  14.353 -0.3189  0.2745 -0.3408
 2823W        W19084   6.176   7.433   0.441 -0.2231  0.2832 -0.2249
 2824W        W19085   4.367   0.745   3.442  0.0881 -0.0476 -0.0852
 2825W        W19086   9.133  18.150   4.726  0.0147 -0.1052  0.0388
 2826W        W19087  13.160   4.924   3.625  0.0641 -0.0767 -0.0003
 2827W        W19088  15.213  12.009   2.055 -0.0746 -0.1239  0.0528
 2828W        W19089  12.447   8.160   3.313  0.1075  0.1759  0.0468
 2829W        W19090  11.327  16.267   0.788  0.1869 -0.2447  0.2392
 2830W        W19091   9.184   5.684  14.431 -0.1520  0.3788 -0.1727
 2831W        W19092  15.595  10.266  10.505 -0.1541  0.1977 -0.1200
 2832W        W19093  13.585   6.000  15.455  0.1700 -0.2705  0.0003
 2833W        W19094   3.608  17.072  14.222  0.2832 -0.0718 -0.1093
 2834W        W19095  11.818   2.529  12.712 -0.2586  0.1185  0.0274
 2835W        W19096   5.215   5.986   6.291  0.2913  0.2249  0.2323
 2836W        W19097   0.153   6.955  11.929 -0.1779  0.1147  0.2975
 2837W        W19098  16.756   5.370  14.589  0.0216 -0.0613 -0.0993
 2838W        W19099   7.504   8.980  14.441 -0.0484  0.2997 -0.2036
 2839W        W19100  13.035   0.240  12.324  0.1483  0.0020  0.0482
 2840W        W19101  16.458  16.070   1.584 -0.0053 -0.2376 -0.1493
 2841W        W19102  11.486   8.772   1.734  0.0035  0.0627 -0.2771
 2842W        W19103   9.601   3.345   4.093 -0.1362  0.0838 -0.2008
 2843W        W19104  11.593  18.575   4.255 -0.0003  0.1015 -0.2862
 2844W        W19105   1.551   0.968   5.148 -0.1969  0.0795 -0.0223
 2845W        W19106   2.431   2.368   4.601  0.1528 -0.0314  0.1453
 2846W        W19107   9.004  10.276  11.848 -0.1712 -0.2464  0.1841
 2847W        W19108   4.712   1.553   3.070  0.0944 -0.0684  0.0914
 2848W        W19109   5.059   5.268  11.898  0.3520 -0.1336 -0.3840
 2849W        W19110   9.922  13.184   3.987  0.0657 -0.2701 -0.2389
 2850W        W19111  12.857  13.034  10.698 -0.1114 -0.0375  0.0515
 2851W        W19112  10.976   5.776   3.519  0.0362 -0.1377 -0.0004
 2852W        W19113   0.240   5.760   0.387  0.2984  0.2491  0.0146
 2853W        W19114  12.878   7.475   1.672  0.3184 -0.0598 -0.0188
 2854W        W19115   5.679   1.357  14.256 -0.1858  0.2229  0.2058
 2855W        W19116   9.598  12.828   4.085 -0.1942  0.1870 -0.0499
 2856W        W19117  13.373  13.601   1.636 -0.0070  0.1398 -0.2325
 2857W        W19118  16.180   9.790   0.274 -0.3353 -0.1885 -0.2000
 2858W        W19119   2.301   2.780  13.455 -0.0525 -0.2322  0.0811
 2859W        W19120  14.549  13.634   1.458 -0.0921  0.2003 -0.0976
 2860W        W19121  13.853   2.235   2.902  0.1625  0.0241 -0.1194
 2861W        W19122  16.397  10.495   3.376 -0.0563  0.2664  0.3248
 2862W        W19123  10.966   0.142   0.059 -0.1511  0.3467 -0.3003
 2863W        W19124   8.560   8.283  11.815  0.1113 -0.0652  0.1621
 2864W        W19125   2.656   0.203  12.454  0.1104  0.2030  0.0230
 2865W        W19126   5.694   1.764  14.519 -0.1236 -0.2445 -0.2029
 2866W        W19127   9.963   5.412   0.142 -0.1801  0.1842 -0.0429
 2867W        W19128   6.739   4.202  13.608  0.0069 -0.3266 -0.2656
 2868W        W19129   5.456   1.470  14.882 -0.0210 -0.1566 -0.2904
 2869W        W19130   3.002   6.260   1.474  0.0469  0.2130  0.0835
 2870W        W19131   1.434   8.801  10.529  0.0656  0.2455  0.0115
 2871W        W19132   6.633  16.838   3.511 -0.2130 -0.1072 -0.0438
 2872W        W19133   9.326   6.642   1.478 -0.1641  0.0871 -0.1706
 2873W        W19134  11.899   5.750   3.645 -0.0391 -0.3739  0.0213
 2874W        W19135  14.347  14.170  11.516 -0.2931  0.1268 -0.2244
 2875W        W19136  18.574   3.680  12.093 -0.0592  0.0587  0.0747
 2876W        W19137  13.073   2.962  11.834 -0.2811  0.0117 -0.0659
 2877W        W19138  13.838  12.580  12.528 -0.1270 -0.3096  0.1451
 2878W        W19139  13.920  11.522  14.391 -0.0978  0.2954 -0.1440
 2879W        W19140  18.587  13.515  12.529 -0.0352  0.1566 -0.4260
 2880W        W19141  17.475  11.508   1.688 -0.0300  0.1252 -0.0577
 2881W        W19142  11.856   1.564  14.599 -0.0551  0.2215  0.1252
 2882W        W19143   7.644  16.059   4.942  0.2481  0.0478 -0.0001
 2883W        W19144  14.888   6.204   1.580  0.0703 -0.2644 -0.4355
 2884W        W19145  17.304  11.609   3.119 -0.3456 -0.1518  0.1812
 2885W        W19146  18.311   3.348   4.124  0.0524  0.0107  0.0370
 2886W        W19147  14.354   4.694   0.648 -0.2175 -0.0944  0.2080
 2887W        W19148  15.991   5.313  14.777 -0.1435  0.1572  0.0722
 2888W        W19149   5.362   6.131   2.220  0.2442 -0.2629 -0.2607
 2889W        W19150   4.357  10.062  11.442  0.0504  0.0320 -0.1443
 2890W        W19151   7.175  11.102   2.709  0.0146  0.1321  0.5354
 2891W        W19152   0.090   9.002   1.259  0.0811 -0.0198 -0.0921
 2892W        W19153  11.380   3.323  13.900 -0.2607 -0.1475 -0.1010
 2893W        W19154   8.796   6.303   3.680 -0.2784  0.2983 -0.4408
 2894W        W19155  13.194   6.467  13.407  0.0162  0.0601 -0.0483
 2895W        W19156   8.387   2.176  12.939 -0.2003  0.0022  0.0157
 2896W        W19157   5.826   4.651  14.682  0.0527 -0.2961 -0.1266
 2897W        W19158  14.329   2.286  15.118  0.0081  0.3307 -0.1946
 2898W        W19159   1.632   2.005   2.904 -0.0812  0.1855 -0.1176
 2899W        W19160   2.484   0.650  11.556 -0.0022 -0.1170 -0.1810
 2900W        W19161   0.003   1.535  11.686 -0.2378 -0.2857 -0.0168
 2901W        W19162  13.953   9.761  11.428 -0.1770  0.0660 -0.1260
 2902W        W19163  17.461  12.675   3.277  0.1107  0.1908 -0.0810
 2903W        W19164  18.023   2.055   3.493  0.1509 -0.2678 -0.2481
 2904W        W19165  17.482  11.217  14.667  0.1191 -0.4400  0.1379
 2905W        W19166  17.131   1.620  14.586 -0.2034  0.0141 -0.1155
 2906W        W19167   6.368  18.311  13.948 -0.0870  0.0243 -0.2416
 2907W        W19168  13.923  14.036  14.839  0.0329  0.4021 -0.0930
 2908W        W19169  10.742   8.367   2.989 -0.0574  0.2718  0.2847
 2909W        W19170  16.545   3.500  10.803 -0.3843  0.2648  0.2093
 2910W        W19171   8.883   6.415  15.375  0.3064  0.3161 -0.2374
 2911W        W19172  13.604   5.244  11.925  0.1240  0.1728  0.1199
 2912W        W19173   0.795   1.322  11.893 -0.0650  0.0683  0.1737
 2913W        W19174  17.025  11.202  15.473 -0.0127 -0.2320 -0.0571
 2914W        W19175  18.737  14.208  11.370  0.0381 -0.0042  0.0367
 2915W        W19176  10.613  14.044   3.670 -0.1683  0.0708 -0.0858
 2916W        W19177   0.715   8.916  12.916 -0.1311 -0.0108  0.0944
 2917W        W19178   2.722  18.724   2.268 -0.1734  0.1546  0.1071
 2918W        W19179   6.040   3.705  11.042  0.0035 -0.0392 -0.1643
 2919W        W19180   8.776  16.272   5.654  0.0581  0.0329 -0.5438
 2920W        W19181   6.392  11.641   0.174 -0.1296  0.0240  0.3653
 2921W        W19182   6.826   6.892  14.437  0.0572 -0.2112 -0.2492
 2922W        W19183   2.736   8.070  12.801 -0.0979  0.2501  0.4935
 2923W        W19184   6.367   9.467   5.096 -0.2135  0.0268  0.2599
 2924W        W19185   6.029   1.340   3.752 -0.3628  0.0218  0.0746
 2925W        W19186  18.581   8.492  13.899  0.0063  0.1934  0.0393
 2926W        W19187  14.077  13.131   0.516  0.1390 -0.1600 -0.3833
 2927W        W19188   8.836  16.524  14.188  0.1491  0.1162  0.0677
 2928W        W19189   3.261  11.892  11.253  0.1309 -0.1868 -0.2352
 2929W        W19190  14.599   9.573  10.309  0.0097 -0.0668 -0.1868
 2930W        W19191  14.478   5.365   4.955  0.3104  0.2142  0.1762
 2931W        W19192  12.268   0.861  10.386  0.1284 -0.0545 -0.3919
 2932W        W19193  16.432  13.746  14.599  0.0467  0.1866 -0.0467
 2933W        W19194  17.674   0.602   4.880  0.1239  0.4883  0.1047
 2934W        W19195   0.471   7.854   0.391 -0.4298 -0.2255  0.1265
 2935W        W19196   9.164   7.490   5.911 -0.2399  0.1233 -0.0247
 2936W        W19197   4.622  17.125  15.194 -0.2880 -0.2433 -0.0956
 2937W        W19198   8.590   5.241  15.393  0.2179 -0.0919  0.3804
 2938W        W19199  14.354   6.753   0.452  0.1462  0.0385  0.0706
 2939W        W19200  14.071  16.866   1.038  0.1694  0.3159  0.0976
 2940W        W19201   0.477   7.544  12.830  0.1137  0.1528  0.0250
 2941W        W19202  11.245   7.756  11.563 -0.0906  0.0510  0.2394
 2942W        W19203   9.079  12.539   2.715 -0.1055 -0.0022 -0.1476
 2943W        W19204   9.836   1.496   4.216  0.5801  0.2702  0.0506
 2944W        W19205   7.862   1.475   6.575 -0.0767 -0.2302  0.0917
 2945W        W19206  13.276  17.976  13.314 -0.0795  0.0240 -0.0237
 2946W        W19207   4.392   7.155  13.461  0.0807  0.0770  0.3059
 2947W        W19208   7.637   3.268  12.958  0.2314 -0.3264  0.1042
 2948W        W19209  15.598  17.603  10.132  0.4157  0.1155  0.1474
 2949W        W19210   8.671   0.488   3.619 -0.0092 -0.1355  0.1733
 2950W        W19211  18.417   7.317  15.455  0.1977 -0.0077  0.0872
 2951W        W19212   0.978   8.842  14.252  0.0147  0.2504  0.0775
 2952W        W19213  10.649   8.880  11.793 -0.0916  0.0604  0.0542
 2953W        W19214   1.940   8.499   1.375 -0.2785  0.0094 -0.1412
 2954W        W19215  15.959   2.440  14.224 -0.0445  0.2665  0.0078
 2955W        W19216   0.760  13.884   0.758 -0.0020  0.0998  0.1039
 2956W        W19217   6.525  10.832   3.745  0.1257 -0.4804  0.1718
 2957W        W19218  11.002   7.216  11.692 -0.1372  0.1305  0.3014
 2958W        W19219   8.624  12.099   2.146 -0.0801  0.0956  0.2464
 2959W        W19220  15.473   3.243   1.587  0.1218 -0.0407 -0.1332
 2960W        W19221   5.914   6.368  12.868  0.1446  0.2106 -0.1287
 2961W        W19222   1.841   3.067   0.733  0.1517  0.1030  0.0235
 2962W        W19223  11.852  16.754   9.849  0.1575 -0.3703 -0.0156
 2963W        W19224   4.441  15.275  12.748  0.2599  0.3750 -0.5347
 2964W        W19225   9.558  15.140   3.241  0.1817 -0.0336 -0.0450
 2965W        W19226   6.842   6.297  13.763 -0.0606 -0.2557 -0.2533
 2966W        W19227  15.225   0.364  13.702  0.0124 -0.3617  0.1804
 2967W        W19228  17.738  11.524  11.416 -0.0084 -0.1071  0.1311
 2968W        W19229   8.197  12.713  13.051 -0.1223  0.2200  0.0408
 2969W        W19230   3.560   2.945  14.057 -0.0837  0.0772  0.0657
 2970W        W19231  11.241   9.386   3.181 -0.0189 -0.1627  0.0800
 2971W        W19232   8.921  14.303  14.843  0.0597  0.0831 -0.2032
 2972W        W19233  13.474   4.836  12.151 -0.2960  0.2410  0.2967
 2973W        W19234  14.780   3.050  13.713 -0.0078 -0.0591  0.1622
 2974W        W19235   6.120   1.169   1.849 -0.1492 -0.0546 -0.1997
 2975W        W19236   3.768  11.515  13.356 -0.0908  0.2382 -0.0625
 2976W        W19237   3.404  14.241   3.375  0.2049 -0.1541 -0.1369
 2977W        W19238  18.692  18.373   0.542 -0.1915 -0.0749 -0.0911
 2978W        W19239   2.751   7.933  11.965 -0.1454 -0.0122 -0.1691
 2979W        W19240  11.913   3.987   3.066 -0.3841 -0.1711 -0.1443
 2980W        W19241  18.706  13.346  13.094 -0.2012 -0.0877 -0.0114
 2981W        W19242  16.910   8.152   1.721 -0.3224  0.0521  0.1232
 2982W        W19243   8.280  11.707   6.208  0.0434 -0.0343  0.2433
 2983W        W19244  10.019  17.698   5.242  0.1726  0.0884  0.1295
 2984W        W19245  14.008  15.362  11.348  0.0104  0.1405 -0.1580
 2985W        W19246  17.934  15.496   0.570  0.0419  0.5410 -0.1205
 2986W        W19247   8.698  14.263   2.984 -0.2743 -0.3482  0.2232
 2987W        W19248  11.903  10.834  11.561  0.1255 -0.0764  0.0071
 2988W        W19249   1.507  17.611  14.735 -0.2798  0.1464  0.3064
 2989W        W19250   9.089  17.009  11.688  0.0261 -0.0924 -0.1090
 2990W        W19251  14.868   9.908   1.630 -0.1666  0.0170 -0.1547
 2991W        W19252  14.844  11.691  12.307 -0.2113  0.1574  0.2680
 2992W        W19253   6.792  10.821   1.833  0.2384  0.5646 -0.1737
 2993W        W19254  18.269   0.928  15.309  0.0898 -0.1969 -0.0235
 2994W        W19255   2.090  16.433  10.887 -0.0649 -0.1081  0.0958
 2995W        W19256   9.856   8.865   5.431 -0.2771 -0.0050 -0.0015
 2996W        W19257  16.461   6.309  10.767 -0.1521 -0.0042  0.1893
 2997W        W19258   2.489   4.219  11.729 -0.0515  0.0429 -0.3436
 2998W        W19259  15.129   1.202  12.625 -0.0851 -0.0233  0.1547
 2999W        W19260   3.955   5.500   0.295  0.2397 -0.0892  0.0498
 3000W        W19261   3.857  17.515  15.040  0.0427  0.2719 -0.1792
 3001W        W19262  15.937  10.563  12.214 -0.0944  0.1582  0.1572
 3002W        W19263  16.899   1.136   2.703 -0.3811 -0.0830  0.1085
 3003W        W19264  16.657  16.300  14.400 -0.2106  0.1752 -0.0844
 3004W        W19265   4.288   0.769  12.278  0.3133  0.2407  0.0439
 3005W        W19266   5.006   2.246   0.845  0.1673 -0.0486 -0.4965
 3006W        W19267   2.467  17.945   2.133  0.2043 -0.1601  0.0993
 3007W        W19268   9.544  16.791  15.527 -0.2867  0.3080 -0.0900
 3008W        W19269   2.884   9.900   2.310 -0.1995 -0.2924  0.1269
 3009W        W19270   2.667  12.473   4.898 -0.1674 -0.0731  0.1339
 3010W        W19271   2.319  12.577  10.785 -0.3014 -0.0860 -0.3947
 3011W        W19272  13.832  17.249   3.822  0.2166  0.4381 -0.2003
 3012W        W19273  16.391   7.831  12.551 -0.1630 -0.0544  0.2999
 3013W        W19274  10.127  12.036   4.109 -0.0393  0.0145  0.0667
 3014W        W19275  14.184  10.143  12.952 -0.0033  0.0840 -0.3421
 3015W        W19276  12.618   1.400  12.020  0.0760  0.1565 -0.1782
 3016W        W19277  10.282  12.629  11.608  0.1578 -0.0935  0.1083
 3017W        W19278  11.202   9.434   5.090  0.2401  0.1663  0.2542
 3018W        W19279   4.573  10.800   0.288  0.1674 -0.0209 -0.3582
 3019W        W19280  15.702  11.276  14.186  0.0053  0.3242  0.0861
 3020W        W19281   0.316  16.675  10.958  0.1246  0.0259  0.1327
 3021W        W19282  15.799   5.303  13.297  0.0094 -0.0309 -0.0841
 3022W        W19283  17.928  16.708  14.616  0.1786 -0.0901  0.0559
 3023W        W19284   7.999  10.071   4.930 -0.0408 -0.1296  0.0985
 3024W        W19285   4.142  16.751  15.447 -0.0608  0.1353 -0.2009
 3025W        W19286  15.180  12.389   0.243  0.1797 -0.0196 -0.2444
 3026W        W19287   8.976   2.585   5.522  0.3193  0.0969 -0.3280
 3027W        W19288   1.765  14.502   4.289  0.2716  0.1441  0.2170
 3028W        W19289   5.515  15.980   2.293 -0.2369 -0.2685 -0.4143
 3029W        W19290  17.165   8.897  13.624  0.0551  0.0044 -0.2584
 3030W        W19291   7.628  14.113   1.670 -0.1619 -0.1497 -0.1725
 3031W        W19292   3.826  14.224   3.030  0.1445 -0.0068  0.0774
 3032W        W19293   5.781   5.408  12.782  0.0531 -0.0414 -0.2644
 3033W        W19294  14.877   5.148   2.464 -0.4568  0.0413  0.2233
 3034W        W19295   2.034   7.536  12.292 -0.1328 -0.2310 -0.1674
 3035W        W19296  12.541   8.430   2.931 -0.3692  0.0263 -0.2433
 3036W        W19297  17.695  13.057  12.952  0.1536 -0.1498  0.1441
 3037W        W19298   2.411   0.169  11.461 -0.0942  0.0712  0.0557
 3038W        W19299  13.729  16.433   1.088  0.1390  0.1043 -0.2441
 3039W        W19300  15.580  13.087   2.044 -0.1023  0.0662 -0.1011
 3040W        W19301   7.432  12.428   4.494  0.0150  0.1032 -0.3020
 3041W        W19302  14.985   0.451   0.391  0.0756 -0.0024  0.0001
 3042W        W19303   9.312  18.548   0.830  0.0837 -0.0663 -0.2341
 3043W        W19304  11.610  16.360   3.589 -0.1513  0.0925  0.0169
 3044W        W19305  14.506   1.843   0.296  0.1592 -0.2874 -0.1563
 3045W        W19306  12.519  10.842  14.634  0.0862  0.0161  0.1284
 3046W        W19307   0.470  15.494  14.622  0.1818  0.0638  0.0251
 3047W        W19308  16.363   4.540  15.224  0.2058  0.1397 -0.1220
 3048W        W19309   6.686  16.543   1.124 -0.0767 -0.1546  0.0262
 3049W        W19310   2.418  12.722   1.051  0.2329  0.1067  0.0406
 3050W        W19311  15.322  17.070  15.327  0.1481 -0.4381  0.2536
 3051W        W19312  14.019  12.179   4.090 -0.1121  0.2940  0.0802
 3052W        W19313  18.781   0.292  13.759  0.1560  0.3889  0.2906
 3053W        W19314   2.036   5.530   0.806 -0.1167  0.2437  0.1280
 3054W        W19315  16.354   5.254   2.673  0.1958 -0.0670 -0.1715
 3055W        W19316   2.350   7.014   3.423 -0.2420  0.0038  0.2426
 3056W        W19317  14.731   9.837  11.473 -0.3282 -0.2774  0.0351
 3057W        W19318   8.782   4.771  11.546  0.2998  0.2202  0.0750
 3058W        W19319   5.713   3.206  15.058  0.3776  0.0770 -0.0029
 3059W        W19320  14.579  16.500  13.960  0.0936 -0.2159 -0.1767
 3060W        W19321  10.337   6.277  13.625  0.1264 -0.3985 -0.1153
 3061W        W19322  14.250   1.912  14.700 -0.1367 -0.0498  0.1181
 3062W        W19323  11.232  11.209   2.005  0.1372 -0.2198 -0.0621
 3063W        W19324   9.915   9.451  11.880  0.0236 -0.1694 -0.1597
 3064W        W19325  14.937   5.989   3.076  0.0016 -0.0634  0.0113
 3065W        W19326  16.237  14.906   9.649 -0.2871 -0.1378  0.2780
 3066W        W19327   5.528   1.301  12.170 -0.1915 -0.0990 -0.0433
 3067W        W19328   4.626   1.188   1.319 -0.1026 -0.0200 -0.2111
 3068W        W19329   2.210  10.529  13.409 -0.1530 -0.2511 -0.0224
 3069W        W19330  16.488  15.819   1.146 -0.2045 -0.0453  0.1023
 3070W        W19331  10.916   9.730   4.075  0.1032 -0.1492 -0.2779
 3071W        W19332   7.347   0.925   4.646 -0.0776  0.2242  0.2884
 3072W        W19333   1.741  17.546  11.365 -0.2437 -0.1591  0.2388
 3073W        W19334   3.383  12.782   0.553 -0.0348  0.2364  0.1302
 3074W        W19335   4.081  17.153   2.175  0.1450 -0.0102  0.3047
 3075W        W19336   4.229  18.644   4.465  0.2869  0.0609 -0.3419
 3076W        W19337   4.061   7.591  13.324 -0.0079 -0.1148 -0.1598
 3077W        W19338   8.901  12.591   1.321 -0.1794  0.0118 -0.3385
 3078W        W19339  18.755   0.352   3.104  0.0819 -0.1942  0.0472
 3079W        W19340  12.301  15.329  15.302  0.0916 -0.1732  0.1782
 3080W        W19341  14.632   3.108  12.681  0.1614 -0.1740 -0.0460
 3081W        W19342  16.388   7.798  15.088 -0.0691 -0.1284  0.0665
 3082W        W19343   0.985   2.234  14.540  0.0865 -0.0057  0.1232
 3083W        W19344   2.531   6.310  14.125  0.0210 -0.2036 -0.3250
 3084W        W19345   4.032   5.721   2.859 -0.1248  0.1909  0.0242
 3085W        W19346   5.202  15.127   2.291  0.0687  0.1297  0.2127
 3086W        W19347   9.974   2.969   1.609 -0.2914 -0.1829  0.2796
 3087W        W19348   8.601  15.065  15.308  0.1493  0.2030  0.1388
 3088W        W19349  14.601   4.062   4.346  0.2701  0.0435 -0.0742
 3089W        W19350  16.304   7.422   1.682  0.2830 -0.0035  0.0033
 3090W        W19351  16.862   5.129  14.051 -0.0602 -0.6953  0.0316
 3091W        W19352  15.590   8.980   3.919 -0.1463 -0.0731 -0.0945
 3092W        W19353   6.693   7.813   3.806 -0.0558  0.0123  0.2484
 3093W        W19354   2.594  13.165  15.371  0.5741 -0.0991  0.0052
 3094W        W19355   6.002   8.779   2.471 -0.0291 -0.0684 -0.2312
 3095W        W19356  12.032   5.735  13.207  0.0047 -0.1186  0.2124
 3096W        W19357   0.687   3.838  10.930 -0.0164  0.2502  0.0214
 3097W        W19358  14.691   8.918  11.127  0.0855  0.0890  0.1495
 3098W        W19359   8.704   2.258   1.513 -0.2082 -0.1875 -0.1536
 3099W        W19360   6.024   9.388  12.126 -0.0487 -0.2052  0.0460
 3100W        W19361  17.710   0.915   4.022 -0.0773 -0.1423 -0.2704
 3101W        W19362   3.049   0.356  12.090  0.1710 -0.3159  0.0140
 3102W        W19363   8.968  17.378  13.292 -0.1284 -0.0558  0.0733
 3103W        W19364  17.779  15.847   1.011 -0.1164 -0.1362 -0.2154
 3104W        W19365   0.714  12.733   2.927  0.3406 -0.2014  0.1113
 3105W        W19366   7.081  12.804   0.641  0.2147 -0.0704  0.0777
 3106W        W19367  18.432   0.044  14.303  0.0198  0.3238 -0.6257
 3107W        W19368  17.195  13.455   3.282 -0.1685  0.1862 -0.2074
 3108W        W19369   5.201  17.094   4.297 -0.0833  0.0187 -0.0234
 3109W        W19370   3.761   2.492   2.396 -0.1730 -0.1415 -0.4647
 3110W        W19371  15.052   2.155  11.735 -0.0047 -0.1383 -0.2825
 3111W        W19372   9.079   1.885  14.120  0.2108  0.0572  0.0126
 3112W        W19373  18.255   0.671  11.053 -0.1848 -0.1803 -0.2833
 3113W        W19374  15.831   4.301  14.156  0.0295  0.3709 -0.1798
 3114W        W19375  11.684  11.897   2.467  0.0740 -0.2184 -0.1809
 3115W        W19376   8.403   5.745   1.929 -0.1366  0.1876 -0.3655
 3116W        W19377   6.381  10.882  10.582  0.2279 -0.1302 -0.1982
 3117W        W19378   4.927  11.781  12.755  0.5223  0.3378 -0.0255
 3118W        W19379  10.887  15.268   3.689  0.1388  0.0690 -0.0550
 3119W        W19380  14.756  17.761  13.804  0.0847  0.1071 -0.1174
 3120W        W19381   2.480  17.368  13.468 -0.0896  0.0347 -0.1536
 3121W        W19382   6.762  13.454   5.097 -0.2511  0.0599  0.1510
 3122W        W19383  12.911  17.561  10.568 -0.2056  0.2919  0.3473
 3123W        W19384  14.567  13.286  14.776 -0.3312  0.1766  0.0780
 3124W        W19385   6.143   0.929  13.337  0.0750 -0.3128 -0.0539
 3125W        W19386   0.999   7.627  15.206 -0.1617 -0.1194  0.1186
 3126W        W19387   0.122   3.622   5.604  0.1157 -0.0380 -0.1228
 3127W        W19388   7.819  15.442   1.205 -0.1101 -0.1828 -0.0965
 3128W        W19389  18.704  16.429   0.172  0.2638 -0.0941  0.0846
 3129W        W19390  11.184   7.485   2.335  0.1530 -0.2103  0.2010
 3130W        W19391  12.745  15.220   5.477 -0.0677 -0.0803  0.2312
 3131W        W19392   8.107  11.634   3.104 -0.0405 -0.1752 -0.1467
 3132W        W19393   7.953  18.027  11.477 -0.0255 -0.0785  0.1363
 3133W        W19394  12.681  11.393   1.894 -0.3569  0.0785 -0.0725
 3134W        W19395  15.410   7.026  13.824  0.0840 -0.1590  0.1634
 3135W        W19396  14.154  12.112  11.022 -0.4731  0.1510  0.2826
 3136W        W19397  11.358   3.204   4.754 -0.3129 -0.2621 -0.0068
 3137W        W19398  15.014  11.414  14.481 -0.0132  0.2300 -0.2664
 3138W        W19399   5.283  10.690  13.162 -0.0504 -0.3603  0.1510
 3139W        W19400   8.002  16.059  12.497  0.0924 -0.1619 -0.1498
 3140W        W19401   0.306   4.278   2.618  0.3119  0.0096  0.3031
 3141W        W19402   8.990  15.929  11.211  0.1374  0.1267  0.2613
 3142W        W19403   8.139   4.945   6.023  0.0079  0.2037  0.0313
 3143W        W19404   4.100  17.367   1.435 -0.3927  0.0661  0.2000
 3144W        W19405   8.208  14.783   4.074  0.1760 -0.0957  0.2894
 3145W        W19406  16.008  12.388  12.202  0.0176  0.2417 -0.0891
 3146W        W19407   0.611   2.917  11.931  0.0898 -0.0062 -0.0870
 3147W        W19408   2.222  13.922   1.262 -0.0498  0.3000  0.4405
 3148W        W19409   0.349   6.253  11.555  0.0184 -0.1663  0.2617
 3149W        W19410   3.121  14.928  10.657 -0.1727 -0.3276  0.2859
 3150W        W19411  17.713   1.236   3.244 -0.1625  0.1167 -0.0623
 3151W        W19412  12.620  16.530  11.953  0.3231 -0.3194 -0.0431
 3152W        W19413  16.760   4.020  11.586  0.1033 -0.4380  0.5248
 3153W        W19414  15.564   1.064   1.681  0.2413 -0.1240 -0.0839
 3154W        W19415  16.303  18.587  10.211  0.0307 -0.1099 -0.0809
 3155W        W19416  17.633   1.312  12.676 -0.1195  0.0199 -0.2817
 3156W        W19417  15.448   5.021  13.590  0.0207 -0.1684  0.0406
 3157W        W19418   0.548   9.399   4.143  0.0594  0.4147  0.0134
 3158W        W19419   8.867   5.794  12.407  0.0861  0.0055 -0.3174
 3159W        W19420  12.650   3.760   0.867  0.0163 -0.1208 -0.1692
 3160W        W19421  14.118  13.664   3.528  0.1103 -0.1529  0.1886
 3161W        W19422  10.996   1.507   5.211 -0.1415 -0.1802  0.0301
 3162W        W19423   8.442   1.761   1.274  0.0284  0.2729  0.0275
 3163W        W19424   9.430   6.199  14.059 -0.1321  0.1738  0.2266
 3164W        W19425   0.723   9.000  12.076 -0.0338 -0.1993  0.3667
 3165W        W19426   7.358  13.222  13.263 -0.0210  0.0245  0.0765
 3166W        W19427   2.244   0.576   0.387 -0.0340  0.1833 -0.1552
 3167W        W19428   4.296  15.055  11.623  0.0982  0.0883 -0.0805
 3168W        W19429  18.309  16.994  14.177  0.2817 -0.2202 -0.3460
 3169W        W19430   6.395   1.121  12.476 -0.3155 -0.1339  0.0533
 3170W        W19431   8.320   9.585   0.309 -0.2465  0.1105 -0.0901
 3171W        W19432   0.667   8.327   0.071  0.1690  0.0168  0.0682
 3172W        W19433   0.910  13.025  12.427  0.1168 -0.0012 -0.0662
 3173W        W19434   5.646  10.268  14.795 -0.0987  0.3167 -0.0736
 3174W        W19435  14.147   5.778   0.139  0.0009  0.0377 -0.1981
 3175W        W19436  15.930   3.482  12.514 -0.0021  0.0084 -0.5017
 3176W        W19437  15.859  18.238   2.384 -0.0824 -0.3788  0.3621
 3177W        W19438   1.817  16.930   1.536 -0.0448  0.0682 -0.1095
 3178W        W19439  17.849  18.060  14.378  0.0007  0.1354 -0.0041
 3179W        W19440   6.292   8.555   5.448 -0.1309 -0.0308 -0.2371
 3180W        W19441  11.650  12.000   3.027 -0.0261 -0.0539  0.2639
 3181W        W19442  18.251  16.087   1.347 -0.3310 -0.0436  0.1406
 3182W        W19443   7.698  14.361   0.834 -0.2441 -0.1582  0.3768
 3183W        W19444  16.071  14.794   4.036 -0.0375 -0.1162 -0.0221
 3184W        W19445  12.611  11.667   0.826  0.0867  0.3234 -0.0970
 3185W        W19446   8.310   0.706   5.373  0.0714 -0.0824  0.0141
 3186W        W19447  13.735   5.618   1.874  0.3035 -0.2930  0.0591
 3187W        W19448   6.332  17.079   5.084 -0.3079 -0.3684  0.0051
 3188W        W19449   3.367  13.136   2.617  0.1334  0.0542 -0.0540
 3189W        W19450   7.081   3.714   1.795  0.1792 -0.1940 -0.3058
 3190W        W19451   7.214  12.915   4.226  0.0426 -0.1762  0.3534
 3191W        W19452   8.115   6.102   5.480 -0.2095 -0.1149  0.1699
 3192W        W19453  10.290  15.446  14.541 -0.0259 -0.1120 -0.5004
 3193W        W19454  13.916   6.827   4.621  0.0508 -0.0578  0.0381
 3194W        W19455  10.290   1.345   3.188 -0.0429  0.0373  0.0350
 3195W        W19456  14.298   6.780  11.918 -0.0703 -0.2127 -0.1137
 3196W        W19457  14.811  17.865   4.831 -0.0539 -0.1112  0.4327
 3197W        W19458  12.803   6.099   0.016 -0.0469  0.5544 -0.1458
 3198W        W19459  18.747  14.528   1.299 -0.3069 -0.2082  0.0617
 3199W        W19460   4.554  12.646   0.483  0.1638  0.0710  0.0530
 3200W        W19461  15.253  13.915   0.442  0.0833 -0.1631 -0.0551
 3201W        W19462  16.605  11.610   4.288  0.0546 -0.2252 -0.2149
 3202W        W19463   5.886   5.026   4.820  0.0692  0.2294  0.2015
 3203W        W19464   7.060  12.061   4.516  0.2059  0.2493 -0.0732
 3204W        W19465  13.481  11.507   3.802  0.0371 -0.4148 -0.1378
 3205W        W19466  15.344   5.344  11.763  0.0005 -0.3095  0.2075
 3206W        W19467  12.861  11.076   0.035  0.2529  0.4385 -0.0435
 3207W        W19468   0.458  12.176  10.602  0.1425  0.3189  0.0778
 3208W        W19469   1.672   9.621   5.062  0.0599 -0.1733  0.1746
 3209W        W19470  15.032   1.851   4.344  0.2294 -0.0504 -0.1494
 3210W        W19471  16.797   5.750  13.185 -0.1448  0.0587  0.0573
 3211W        W19472  17.289   1.889  15.618  0.1177 -0.2348  0.1078
 3212W        W19473   1.054   5.314   5.278 -0.0158 -0.2182 -0.1918
 3213W        W19474   8.671  11.300  12.828 -0.0225  0.1607 -0.0795
 3214W        W19475  16.362  13.217   0.663  0.2296  0.0971 -0.2346
 3215W        W19476   6.504   2.643  13.655 -0.1025  0.2786  0.2471
 3216W        W19477   4.599   4.252  13.560 -0.0263  0.1180  0.3375
 3217W        W19478  10.509  11.808  14.229 -0.1664  0.2590  0.0871
 3218W        W19479   7.479  17.749   5.987  0.1728  0.2407  0.2915
 3219W        W19480  12.964   3.399  12.698  0.0828  0.2227 -0.3859
 3220W        W19481   4.011   2.322  15.514  0.3139  0.1931  0.0137
 3221W        W19482  14.691   3.805  15.380 -0.1248  0.1016  0.1219
 3222W        W19483   3.384  14.510   2.924 -0.0804  0.2893  0.1993
 3223W        W19484   2.873   8.746   3.107  0.4982 -0.0418  0.3719
 3224W        W19485  12.774  14.508   1.053 -0.1987 -0.3492  0.4625
 3225W        W19486   2.400   8.706  13.964  0.1935  0.0723  0.1524
 3226W        W19487  18.793  18.652  11.944  0.1957 -0.5706  0.0769
 3227W        W19488   1.662   1.712  11.866 -0.0391  0.0992 -0.0646
 3228W        W19489   7.400  11.119  15.175  0.0420  0.0222  0.3458
 3229W        W19490   3.403   3.480  12.365  0.1891 -0.2705 -0.0298
 3230W        W19491   2.157  17.526   4.138 -0.1214  0.2694  0.0096
 3231W        W19492  10.607  14.939   4.914  0.0730 -0.1389  0.0695
 3232W        W19493   7.667  14.841   4.222  0.0878 -0.6049  0.0900
 3233W        W19494  17.014   4.886  14.576 -0.1355  0.0969  0.0218
 3234W        W19495   2.144   0.940  12.836  0.2646 -0.1807  0.1155
 3235W        W19496   5.390   6.769  14.296 -0.0070  0.0311 -0.1199
 3236W        W19497  17.410  14.826  11.286  0.0741 -0.2501  0.0296
 3237W        W19498   0.717  18.284   2.219  0.2103  0.1471 -0.3258
 3238W        W19499  17.245  11.648  14.531  0.1006  0.0629  0.1469
 3239W        W19500   2.455   4.886   2.383  0.3093  0.1116 -0.5276
 3240W        W19501   9.760  15.923  15.236  0.1328  0.1003  0.1773
 3241W        W19502   0.450  16.160   4.789  0.1535  0.3647 -0.0142
 3242W        W19503   7.146  17.301  13.399  0.1192  0.0680 -0.1508
 3243W        W19504   7.054   2.384  12.573 -0.2682  0.0278 -0.1301
 3244W        W19505   6.661  10.623   2.672  0.1589  0.1232  0.1478
 3245W        W19506   4.220  12.866  11.923  0.4741  0.1629 -0.2992
 3246W        W19507   3.225  12.716  11.914  0.2342 -0.0927 -0.3173
 3247W        W19508  16.283  16.680  10.288  0.1878 -0.0376  0.6067
 3248W        W19509   2.182   3.381  15.370 -0.0353 -0.1271 -0.3808
 3249W        W19510  13.538   4.380   4.324 -0.2787  0.0327  0.1671
 3250W        W19511   3.881  18.780  15.440  0.0505 -0.1989  0.0155
 3251W        W19512  13.172   3.567   1.071 -0.0170  0.0500  0.1231
 3252W        W19513   0.641  15.279   2.804 -0.0517 -0.3925 -0.1317
 3253W        W19514   0.798   7.328  12.426 -0.0930 -0.1133 -0.0598
 3254W        W19515   7.104   6.636   1.929 -0.1117 -0.0953  0.0023
 3255W        W19516   4.492  11.511   2.289 -0.1639  0.0059  0.0450
 3256W        W19517  18.303   2.803   1.446 -0.1260  0.0357  0.2354
 3257W        W19518   1.365   4.672   3.738  0.2664 -0.0236  0.1696
 3258W        W19519   0.420  15.249   3.260 -0.1310 -0.0100  0.1660
 3259W        W19520   2.227  11.759   5.117 -0.0276 -0.5648 -0.0389
 3260W        W19521  11.226  17.576  13.023 -0.3731 -0.1619 -0.1258
 3261W        W19522  18.542  10.862  15.162 -0.4099 -0.1080  0.1488
 3262W        W19523   9.533  17.813   1.265  0.1593  0.1593  0.1757
 3263W        W19524  12.392  11.939  11.154 -0.1848 -0.4096  0.1005
 3264W        W19525   7.226   0.035  12.363  0.3946  0.4287  0.0846
 3265W        W19526  13.476   0.558   0.474  0.1174  0.0907 -0.1525
 3266W        W19527  17.723   5.554   5.051 -0.3286  0.1355 -0.2256
 3267W        W19528  15.441   9.215  15.169  0.4789  0.2941 -0.1372
 3268W        W19529  13.579  15.614  12.151 -0.0387  0.0701  0.0161
 3269W        W19530   3.451  13.505   4.424  0.0602 -0.1547 -0.0295
 3270W        W19531   5.950   2.391  14.794 -0.1599 -0.1787  0.0589
 3271W        W19532  17.872   3.725   4.903 -0.1160  0.0678  0.3213
 3272W        W19533   9.614   3.644   3.705 -0.1180  0.1256  0.2097
 3273W        W19534   1.669   5.864  11.449 -0.2170  0.1951  0.3889
 3274W        W19535  11.544   8.530  15.613 -0.0060 -0.1036 -0.2764
 3275W        W19536   2.705  11.690   5.319  0.0888 -0.1979  0.4239
 3276W        W19537   7.954  17.796  14.829 -0.0737  0.0639  0.1359
 3277W        W19538   9.912  10.386   2.565 -0.1380 -0.0647  0.0678
 3278W        W19539   0.546   8.151   2.606 -0.1350  0.0429 -0.4024
 3279W        W19540   1.395   8.068  14.120 -0.1772  0.1175  0.4240
 3280W        W19541   9.160  10.699   0.734 -0.1653 -0.1317  0.1581
 3281W        W19542   9.465  11.360  14.047 -0.0086  0.3108 -0.0815
 3282W        W19543   3.329  16.380  11.892  0.0182 -0.1410 -0.1381
 3283W        W19544  16.707   0.930  14.425 -0.1721  0.0086  0.1644
 3284W        W19545  12.519   8.824   4.207 -0.1165 -0.0994 -0.1406
 3285W        W19546  17.771  11.064  11.873 -0.0295 -0.0023 -0.2013
 3286W        W19547  14.692   4.440  12.709 -0.1140 -0.1171 -0.0655
 3287W        W19548   5.830  11.723   4.319  0.1173 -0.0583 -0.0253
 3288W        W19549  11.739  18.626  12.759  0.0270 -0.2566 -0.2017
 3289W        W19550  13.866   9.117  14.136  0.0857 -0.0463 -0.2409
 3290W        W19551   5.451   4.262   1.848 -0.0914  0.1288  0.2797
 3291W        W19552   4.838  11.849  11.657  0.1558  0.2282  0.0962
 3292W        W19553  11.857  15.801  13.201 -0.2903  0.0102  0.4170
 3293W        W19554  13.366  13.974   2.357 -0.0714 -0.1084 -0.2237
 3294W        W19555  16.521   3.418   0.411  0.2844 -0.2548  0.4236
 3295W        W19556  15.018  12.712   3.301  0.0717  0.2066 -0.2169
 3296W        W19557   2.141  14.227  10.432 -0.2380 -0.3168  0.0341
 3297W        W19558   5.791  12.123  14.088 -0.1786  0.0366 -0.2806
 3298W        W19559  14.942   7.709  15.341  0.2801 -0.0246 -0.0421
 3299W        W19560  15.041   9.773  12.949 -0.0252 -0.0557 -0.1118
 3300W        W19561  18.822  13.320   1.030 -0.0958  0.0043  0.0370
 3301W        W19562  12.496   1.819  12.230 -0.1334  0.2823  0.0537
 3302W        W19563  15.850  14.926  14.210 -0.0530  0.1412 -0.0539
 3303W        W19564   0.987   1.996   5.466 -0.1042  0.0817  0.0227
 3304W        W19565  14.126   0.559  14.846  0.1835 -0.2027  0.2670
 3305W        W19566   7.166   3.503  13.106 -0.0130 -0.1088  0.3141
 3306W        W19567   8.611   9.128  13.457 -0.1343 -0.2468  0.3099
 3307W        W19568   8.682  10.610   2.513 -0.3117 -0.1302  0.0269
 3308W        W19569   7.990  17.447   2.642 -0.0490 -0.1307  0.0394
 3309W        W19570   2.115  14.136   2.602 -0.6038  0.1186 -0.1286
 3310W        W19571  11.987  13.212  10.830 -0.3070  0.0852  0.1295
 3311W        W19572   8.443   5.890   2.905  0.0267 -0.1724 -0.0270
 3312W        W19573  11.399  16.554   1.711 -0.3018 -0.0608 -0.1072
 3313W        W19574  14.959  14.419  13.454 -0.1115 -0.2965  0.0738
 3314W        W19575  10.527  12.448   1.303 -0.4009  0.0773 -0.2333
 3315W        W19576   0.939   4.418  12.711 -0.3198  0.1063 -0.0371
 3316W        W19577  14.693   9.498   3.787 -0.0255  0.2190  0.1705
 3317W        W19578  17.395  14.950   2.389  0.2193 -0.0761 -0.0098
 3318W        W19579  15.545   9.604  13.045  0.0029 -0.0555 -0.0247
 3319W        W19580  13.708  13.559   0.412  0.1944 -0.2519 -0.1123
 3320W        W19581   7.840   1.207  15.209  0.0461  0.0231 -0.0486
 3321W        W19582  13.274   0.790  12.506 -0.0494 -0.2357  0.1023
 3322W        W19583   9.408  17.551  13.064  0.1480 -0.0398  0.0202
 3323W        W19584   7.215  14.613   1.079  0.1063  0.0898 -0.0019
 3324W        W19585  16.098  18.276  15.447  0.3259  0.0155  0.0760
 3325W        W19586  18.147   4.190   0.239  0.2218  0.0071  0.1370
 3326W        W19587  10.805  17.568   0.681  0.3701  0.0591  0.2889
 3327W        W19588  17.554  15.698   2.997 -0.1184 -0.2978  0.0017
 3328W        W19589   5.644   9.508   2.027 -0.0660  0.1314 -0.1797
 3329W        W19590  14.575  12.096  13.459 -0.1749  0.1784  0.1254
 3330W        W19591   0.216   3.787  15.645 -0.0635  0.4584 -0.2386
 3331W        W19592  17.193   4.142  10.450  0.0803  0.0816  0.1015
 3332W        W19593   1.636   6.367   3.913 -0.5491  0.0579  0.1860
 3333W        W19594  13.834   3.779   3.903 -0.1547  0.1585 -0.0507
 3334W        W19595   5.814   5.509  15.557  0.0252  0.0889  0.3282
 3335W        W19596  11.896  10.689  13.449  0.1795  0.4020  0.1767
 3336W        W19597   7.080  13.645   2.383 -0.1103 -0.0157 -0.2604
 3337W        W19598  10.924  18.086  12.958  0.0543 -0.0046 -0.2050
 3338W        W19599  11.713   2.203   0.951  0.5219 -0.2350 -0.3548
 3339W        W19600  10.846   7.672  13.029 -0.1588  0.0119 -0.0795
 3340W        W19601   4.721   5.764   0.332 -0.1165 -0.2835  0.1768
 3341W        W19602  13.108  10.687   2.379  0.1760  0.1525  0.3100
 3342W        W19603  16.580  12.494   0.115  0.0043 -0.1138 -0.1937
 3343W        W19604   9.343   9.604  15.250 -0.2057  0.2333  0.1152
 3344W        W19605   9.120  17.520   0.026  0.0159  0.1946 -0.1335
 3345W        W19606   1.332  16.939  12.313 -0.0465 -0.1204 -0.0341
 3346W        W19607  13.372  18.500   5.119  0.1871 -0.0742 -0.2259
 3347W        W19608   5.279   2.768   0.960  0.1343 -0.2997 -0.1372
 3348W        W19609   4.421  17.309  13.793 -0.0899  0.0772 -0.1126
 3349W        W19610   6.284   8.803   1.534  0.0060  0.2208 -0.0835
 3350W        W19611  16.167   7.686  10.842 -0.0455 -0.1035 -0.0499
 3351W        W19612   4.364  12.276  14.976  0.3174 -0.2339 -0.1442
 3352W        W19613  10.558   7.733  12.534  0.0474 -0.2103  0.1234
 3353W        W19614   9.983  11.646   0.978  0.2031 -0.1592 -0.1880
 3354W        W19615   3.468  16.236   4.814 -0.2224  0.1603 -0.0816
 3355W        W19616  15.802   3.368  11.749 -0.0375 -0.2533 -0.2622
 3356W        W19617   4.968  18.437  13.444  0.3342  0.1105 -0.1141
 3357W        W19618  14.804  10.601  13.278 -0.2398 -0.2540  0.0109
 3358W        W19619   3.304  17.575  14.966  0.0735 -0.0435  0.4210
 3359W        W19620   6.346  14.290   1.167 -0.2442  0.0776  0.2803
 3360W        W19621  13.415   8.308   2.479  0.1849  0.0914  0.0827
 3361W        W19622  10.135   7.110   3.832  0.0508  0.1838 -0.0031
 3362W        W19623   0.586  10.790   4.455  0.0433  0.1346 -0.4077
 3363W        W19624   0.692  15.381  13.572  0.1947  0.1690  0.0393
 3364W        W19625  14.652   0.837   4.814  0.1465 -0.0367  0.1458
 3365W        W19626  16.533  17.234  14.595  0.2087  0.2070  0.3541
 3366W        W19627   3.789   0.094   1.759 -0.1555  0.1051 -0.1816
 3367W        W19628   0.836  16.605   0.478  0.1730 -0.2344 -0.1629
 3368W        W19629   7.158  15.001  13.765  0.1155 -0.2280  0.0160
 3369W        W19630   6.650  11.890   2.081  0.3487 -0.0086 -0.1106
 3370W        W19631   8.564   1.107   5.352 -0.1666  0.3749 -0.1221
 3371W        W19632  10.614   1.265  15.525  0.1154 -0.2527 -0.2090
 3372W        W19633  12.189   5.797   0.311 -0.0393  0.1424  0.0972
 3373W        W19634   6.464   3.500  15.430  0.0343  0.4334  0.3005
 3374W        W19635  14.898  10.578  14.246  0.1330  0.0057 -0.2257
 3375W        W19636   7.953   0.587  11.564  0.1495  0.0067  0.4244
 3376W        W19637   1.901  14.471  12.277  0.0058 -0.0836  0.1100
 3377W        W19638  16.202   6.003   3.021  0.0470  0.2335 -0.0844
 3378W        W19639   4.413   4.585  11.790 -0.1803  0.1182  0.1408
 3379W        W19640   8.241  10.441  12.553  0.0422  0.3529  0.1560
 3380W        W19641  12.631   5.712   1.731 -0.1358  0.3308 -0.0806
 3381W        W19642   2.804  14.749  14.506 -0.0675  0.0064  0.0338
 3382W        W19643  10.213  17.686  15.088  0.0835 -0.0584 -0.1929
 3383W        W19644   4.426  17.360   4.165  0.0571 -0.0167 -0.1696
 3384W        W19645  16.566  15.642  15.604 -0.0566 -0.0185  0.1916
 3385W        W19646   7.989  10.682   1.119 -0.2469 -0.1415 -0.1148
 3386W        W19647  11.707  13.986  14.254 -0.2796 -0.0879 -0.0391
 3387W        W19648  17.777  17.123   9.729 -0.1238 -0.3244  0.0820
 3388W        W19649  17.508  14.691  14.110  0.3509 -0.0095 -0.0556
 3389W        W19650  17.297  10.818  15.191 -0.0140  0.1174  0.4348
 3390W        W19651  18.480   5.487   3.296  0.1740  0.0923  0.2307
 3391W        W19652   5.387   8.918  12.235  0.3140 -0.1045 -0.3538
 3392W        W19653  17.365   8.947  14.099 -0.0964 -0.1508 -0.0598
 3393W        W19654   4.639  12.933   5.059  0.0248 -0.1492 -0.1287
 3394W        W19655   3.174  10.028  11.811  0.3841 -0.0940  0.3011
 3395W        W19656  13.570  14.314  12.569 -0.2363 -0.2477  0.1683
 3396W        W19657  12.501   4.592  12.037  0.2525  0.3537  0.0245
 3397W        W19658  15.909   5.298  11.480 -0.2913 -0.0613 -0.2143
 3398W        W19659   4.843  12.844  14.263  0.1662  0.1105  0.0438
 3399W        W19660   1.591  16.817  14.569  0.1091  0.0098 -0.0040
 3400W        W19661  12.374  10.014  10.604 -0.1159 -0.1985  0.1724
 3401W        W19662   9.694  11.883   1.408  0.1411 -0.2075  0.0071
 3402W        W19663   4.471   0.673   2.979 -0.1213  0.0848 -0.1467
 3403W        W19664   6.240  11.001   2.585  0.1927  0.2880  0.1470
 3404W        W19665  14.850  11.669   0.847  0.0764  0.0928 -0.2623
 3405W        W19666  14.141   1.051  14.689 -0.0079  0.1052 -0.0639
 3406W        W19667   3.208  10.503  12.572 -0.0304 -0.0534  0.1548
 3407W        W19668  17.319   4.620   1.491  0.3328  0.1311 -0.1815
 3408W        W19669  16.750   7.083  13.583 -0.0780  0.0388 -0.0551
 3409W        W19670  12.728  12.601  14.757  0.1958  0.1586 -0.2312
 3410W        W19671   9.270   2.395   2.689  0.3656 -0.0717 -0.0367
 3411W        W19672  12.648  15.268   2.238 -0.0483 -0.0535  0.0711
 3412W        W19673   7.598   1.161  12.931  0.1293  0.3129 -0.1899
 3413W        W19674  12.875  12.459  14.169 -0.3723 -0.2863 -0.1068
 3414W        W19675  16.387  16.230   2.735 -0.0241  0.0909 -0.0803
 3415W        W19676  17.719  12.995   0.621 -0.0629  0.1871 -0.0529
 3416W        W19677  13.898  13.545   5.395 -0.1601  0.3667 -0.1128
 3417W        W19678   9.615   4.652  12.434  0.0051  0.0043  0.2452
 3418W        W19679   9.344   4.228  10.776  0.3769  0.2072  0.3397
 3419W        W19680   5.682   5.779   3.648 -0.2263 -0.0039 -0.1522
 3420W        W19681   7.578  13.028  12.394 -0.0385  0.0989  0.3377
 3421W        W19682  16.997   9.516  12.015 -0.0088 -0.1415 -0.0127
 3422W        W19683   6.314   4.729   3.134 -0.1205  0.0282  0.0050
 3423W        W19684   8.011  12.240   5.108 -0.0299  0.0759 -0.0310
 3424W        W19685   0.207  12.893  14.500  0.1673  0.0826  0.0849
 3425W        W19686   3.174   6.371   5.031  0.0455 -0.1805  0.0294
 3426W        W19687  17.572  14.324  11.973 -0.1385 -0.2303 -0.1104
 3427W        W19688   7.776   9.739   1.964  0.2439 -0.1283  0.0037
 3428W        W19689   1.799  16.623   4.208  0.0432 -0.5178 -0.1044
 3429W        W19690  10.934  16.727   3.726  0.1078  0.0768 -0.0306
 3430W        W19691  13.914  15.353   0.122 -0.1306  0.1186  0.4190
 3431W        W19692   3.948   1.177   1.844 -0.0455 -0.2653 -0.0695
 3432W        W19693  17.641   1.220   2.508  0.2545  0.0289  0.0488
 3433W        W19694   7.398  16.629  14.100  0.2185  0.1274 -0.0028
 3434W        W19695  14.857   5.991   3.600 -0.0276  0.0665  0.2370
 3435W        W19696  11.080  17.183   0.474 -0.0060  0.2774 -0.1357
 3436W        W19697   5.773   9.773   4.405 -0.2033  0.0899  0.1934
 3437W        W19698  16.464   3.403   1.814 -0.0240 -0.0636  0.1474
 3438W        W19699   8.161   2.527   5.079  0.0017  0.1611 -0.0655
 3439W        W19700   7.471  18.183   2.977  0.0865 -0.1309 -0.1452
 3440W        W19701   2.003  10.651   3.989 -0.1071  0.1949 -0.0624
 3441W        W19702   7.230  15.573   3.116 -0.0822  0.0228 -0.2371
 3442W        W19703   1.095   1.158  14.458  0.0006 -0.1003  0.0081
 3443W        W19704   3.019   5.128  12.606 -0.1351  0.1801 -0.0404
 3444W        W19705   9.564   4.034   0.599 -0.0699  0.0213  0.2170
 3445W        W19706   9.097  17.049   0.650 -0.0079  0.1896 -0.2020
 3446W        W19707   3.733  12.967   3.861 -0.0534 -0.0132  0.1223
 3447W        W19708   4.247   2.753  13.084  0.0480 -0.2699 -0.0391
 3448W        W19709  14.105  16.425  12.236  0.0501  0.1319  0.3114
 3449W        W19710   8.244   4.843   1.674  0.1764 -0.1734 -0.0203
 3450W        W19711   1.727  18.513   1.479 -0.1153  0.0097  0.0974
 3451W        W19712   6.623  15.127   2.709 -0.2641 -0.0354 -0.1164
 3452W        W19713   9.861   0.648   5.406 -0.0647 -0.0868 -0.0223
 3453W        W19714   2.955   6.627  11.726 -0.0143 -0.1474 -0.0739
 3454W        W19715  15.854   3.262   1.163  0.0059 -0.2514  0.0468
 3455W        W19716   6.752   3.751   2.594  0.2109  0.1010  0.2072
 3456W        W19717   0.787  15.190  11.899 -0.0317  0.0726  0.2866
 3457W        W19718   4.400   8.649   3.797  0.1169  0.0078 -0.2377
 3458W        W19719   1.015  18.253   4.822  0.2241 -0.1770  0.2916
 3459W        W19720   2.180  11.771   1.065  0.0741  0.0426  0.4761
 3460W        W19721   1.589   3.748   3.257 -0.0195 -0.1897 -0.4195
 3461W        W19722   6.606   1.101  12.008  0.0967  0.3440 -0.0417
 3462W        W19723   0.864   6.094   4.238  0.1180 -0.1084  0.1098
 3463W        W19724   9.207   9.438  12.756 -0.2736 -0.3105 -0.2982
 3464W        W19725  10.652  15.953   2.258 -0.0380 -0.0220  0.2616
 3465W        W19726  12.990  12.844  11.554  0.0679  0.3470 -0.0355
 3466W        W19727   7.815  12.879  14.767  0.0295 -0.3999 -0.0304
 3467W        W19728   1.925  11.015  15.229 -0.1518 -0.2932 -0.2106
 3468W        W19729   3.951   9.287   3.237  0.0823  0.0907 -0.0678
 3469W        W19730  14.428   8.016  11.381 -0.2919 -0.2114  0.0356
 3470W        W19731   8.475   2.230  14.330 -0.0254  0.2986  0.2106
 3471W        W19732  11.383  16.285   2.785  0.3651  0.1618  0.0665
 3472W        W19733  13.418  17.102  11.609 -0.1313  0.1636  0.0309
 3473W        W19734  14.211  16.264   0.514 -0.0242  0.1676 -0.0397
 3474W        W19735  11.901   0.260   3.472 -0.0228 -0.0780 -0.0805
 3475W        W19736   1.596   1.191   4.710  0.0669  0.3875 -0.1682
 3476W        W19737  10.909  17.574  11.726 -0.0975 -0.6205 -0.0975
 3477W        W19738   8.075   4.702   2.781  0.2057 -0.1112  0.2416
 3478W        W19739   7.462   5.328   4.273  0.1664  0.1211  0.0642
 3479W        W19740   3.014  10.343  13.041 -0.3882 -0.2814  0.2817
 3480W        W19741  16.215   7.192   3.949 -0.1305  0.1633  0.2312
 3481W        W19742   2.195   9.415  15.406 -0.3424  0.0187  0.2552
 3482W        W19743   3.699   3.949  14.110 -0.1895 -0.1471 -0.0557
 3483W        W19744   3.539  17.343  13.501  0.6452  0.2471  0.2597
 3484W        W19745  16.342  11.788  11.475 -0.3401  0.0027 -0.2647
 3485W        W19746  12.106  16.324  14.015  0.0794 -0.0933 -0.3115
 3486W        W19747  10.998   3.645   0.921  0.4853  0.0140 -0.0625
 3487W        W19748  10.210  17.321  13.382  0.1186  0.3504  0.0981
 3488W        W19749   2.541  14.390   0.375 -0.0862 -0.0161  0.1826
 3489W        W19750  14.970  14.041   3.344  0.1447 -0.0135  0.0091
 3490W        W19751   1.626   4.678  14.482 -0.3235  0.1100  0.0884
 3491W        W19752  11.152   8.327  15.411 -0.3546  0.2286 -0.3619
 3492W        W19753   8.465   1.298   4.062  0.0009 -0.2324  0.1944
 3493W        W19754  18.145  17.242  13.309 -0.1483  0.2932  0.1339
 3494W        W19755  10.512   5.127   3.738 -0.1963  0.0057  0.1106
 3495W        W19756  16.375   5.041   1.350  0.1787  0.1019  0.2210
 3496W        W19757   4.146   1.870   1.074 -0.1324 -0.0750  0.1281
 3497W        W19758   9.104  12.991   0.411 -0.1343 -0.0735 -0.1767
 3498W        W19759  15.378  10.578  11.118  0.0348  0.2800  0.1369
 3499W        W19760   9.510   5.158   0.124  0.1660  0.0615  0.0389
 3500W        W19761   6.525   1.237   3.948  0.0097 -0.1195  0.2589
 3501W        W19762  18.655  16.520   3.848  0.0534 -0.0780 -0.0140
 3502W        W19763  13.167   1.665  11.396 -0.0168 -0.0515 -0.4381
 3503W        W19764  14.209   9.570   2.071  0.1165 -0.0176 -0.1182
 3504W        W19765  12.288   6.197  14.109  0.0945  0.2162 -0.1330
 3505W        W19766  17.460   0.111   4.772  0.0505 -0.2712  0.0332
 3506W        W19767  14.538  14.558  11.026 -0.0324  0.2354 -0.1030
 3507W        W19768   2.323   7.146  12.194  0.2667  0.3644 -0.2467
 3508W        W19769  15.586   5.791  10.746  0.0095 -0.3722  0.1796
 3509W        W19770   4.404  11.140   5.259  0.0437 -0.1023  0.2109
 3510W        W19771   3.066   8.041  14.976 -0.1600  0.1900 -0.1875
 3511W        W19772   9.663   9.851   4.359 -0.2958  0.1256 -0.2976
 3512W        W19773  11.250   4.395   2.925 -0.2173  0.1135  0.2425
 3513W        W19774  18.090  10.981  11.254  0.1615 -0.2336  0.1559
 3514W        W19775  14.288   8.177   1.209 -0.0135 -0.1965  0.1221
 3515W        W19776   7.126   7.296  13.895  0.1746 -0.0240  0.1782
 3516W        W19777  14.715   5.200  13.768  0.1408 -0.0305  0.2545
 3517W        W19778   3.992  14.592   0.711  0.1566  0.1584  0.0207
 3518W        W19779  12.586  17.682   1.603 -0.3107  0.0043  0.0301
 3519W        W19780  15.883   6.844   3.094 -0.0427 -0.3618 -0.2606
 3520W        W19781  16.240  15.445  10.966 -0.1513  0.3051 -0.0005
 3521W        W19782  15.074   9.309   2.018  0.0403 -0.1681  0.1446
 3522W        W19783  13.001   3.727  14.151 -0.0151  0.0318  0.1840
 3523W        W19784   1.152  15.252   3.927 -0.0904  0.0187 -0.0926
 3524W        W19785   7.995   8.024   3.488 -0.2208 -0.2125  0.1130
 3525W        W19786  17.235  13.079   0.169  0.0336  0.0782 -0.0047
 3526W        W19787  15.756  10.989  15.066 -0.3431 -0.0276  0.5765
 3527W        W19788  16.544   7.913  11.203 -0.3508 -0.1649  0.2303
 3528W        W19789  12.589  17.313   1.989 -0.1725 -0.3789 -0.0630
 3529W        W19790  11.210   0.284   4.147 -0.2911  0.2445  0.0105
 3530W        W19791   3.525  12.332  13.038  0.1339 -0.1387 -0.0557
 3531W        W19792   8.616   2.786   1.426  0.0319  0.0206 -0.2237
 3532W        W19793   7.744   2.979   5.731  0.0182  0.0651  0.0644
 3533W        W19794  17.897   1.969  12.953  0.1503  0.2681 -0.0532
 3534W        W19795  16.398  17.739  14.672  0.0458 -0.2092  0.1768
 3535W        W19796  14.490  14.053   3.075 -0.0427 -0.2204  0.3140
 3536W        W19797  10.126   2.049   5.070 -0.3069  0.2419 -0.0986
 3537W        W19798   8.463   9.620  12.165 -0.0473  0.0002  0.0490
 3538W        W19799  12.201   4.034  12.133 -0.2386  0.3065 -0.0689
 3539W        W19800  15.202  10.176  12.490  0.4083  0.2505  0.2855
 3540W        W19801  13.466   1.644   0.308  0.1749  0.0588 -0.3331
 3541W        W19802   7.967   7.940   2.975  0.1259  0.0963  0.2171
 3542W        W19803   6.984   4.735  13.294  0.3601 -0.0357  0.3838
 3543W        W19804   9.061  12.161   4.085 -0.1305  0.1384 -0.0191
 3544W        W19805  12.771  17.712  12.103 -0.1042  0.1528  0.0607
 3545W        W19806   4.588  16.721   3.720 -0.0699  0.2456  0.0638
 3546W        W19807   1.690  12.397   2.857 -0.1727  0.1852  0.3291
 3547W        W19808  10.801  11.940  11.693 -0.4008  0.0100  0.0416
 3548W        W19809  14.295  16.691   3.160 -0.0716 -0.1447 -0.1407
 3549W        W19810   6.550   7.662   3.292 -0.0598  0.0359  0.0894
 3550W        W19811   0.007  15.361   5.908  0.3027  0.2879  0.1064
 3551W        W19812  14.059   4.758  11.394  0.0377  0.0586  0.0032
 3552W        W19813  10.229   1.967  11.907  0.0533  0.0733  0.0161
 3553W        W19814  14.745   8.437   1.939 -0.0168  0.0623 -0.1221
 3554W        W19815   9.201   8.565  10.837 -0.0715  0.0950 -0.0561
 3555W        W19816   9.902  15.785  11.309 -0.1954  0.0968  0.1951
 3556W        W19817   5.140  11.488  15.045 -0.3503 -0.1950 -0.1222
 3557W        W19818   0.742   8.115   1.162  0.0726  0.1415 -0.1298
 3558W        W19819   3.074   7.430   5.086 -0.3131 -0.2046  0.1806
 3559W        W19820  10.737  11.793   4.948 -0.0411 -0.2132  0.2237
 3560W        W19821   7.886  11.405   4.035 -0.0948 -0.1422 -0.1296
 3561W        W19822  17.015  15.957  13.043  0.0265  0.2525 -0.1834
 3562W        W19823  16.853   3.582   1.346 -0.1020  0.0842 -0.0142
 3563W        W19824   0.518  15.271   0.498 -0.1126  0.1011  0.0868
 3564W        W19825  13.302  13.994  14.184 -0.1507  0.1688  0.1467
 3565W        W19826   5.395   2.552   3.120  0.0251 -0.0136  0.2376
 3566W        W19827  17.558   9.149  13.716 -0.0614  0.0918 -0.0362
 3567W        W19828   9.496  17.100  11.885 -0.1503 -0.2708 -0.4226
 3568W        W19829   0.856   6.351  15.434  0.1883 -0.0163 -0.1012
 3569W        W19830   9.570  10.280   4.124  0.1842 -0.0306 -0.1288
 3570W        W19831   8.249  15.791   3.392  0.0615 -0.2174  0.0654
 3571W        W19832  12.304  16.360   5.905 -0.0223  0.2296  0.3753
 3572W        W19833  17.457   4.951   0.104  0.2998 -0.1578  0.0817
 3573W        W19834   6.540  17.044   1.503  0.0697 -0.2437  0.0959
 3574W        W19835  17.083   5.234   0.781 -0.0449  0.1813  0.0142
 3575W        W19836  17.351  13.021   1.963  0.0274 -0.2930  0.1315
 3576W        W19837  11.720  12.601  15.489 -0.1877 -0.1850  0.0911
 3577W        W19838   5.687   1.566   4.050  0.2247 -0.0012 -0.2418
 3578W        W19839   8.267   2.516   0.515 -0.1238  0.2066 -0.2105
 3579W        W19840   4.013   2.192  12.472  0.1406 -0.1680 -0.0494
 3580W        W19841  12.070  15.816  12.164 -0.0373  0.0468  0.0075
 3581W        W19842  11.947   8.823  10.572  0.1101 -0.1232  0.2361
 3582W        W19843   7.738   5.021   5.494  0.2959 -0.1659 -0.1695
 3583W        W19844   8.190   7.782  12.377 -0.3120  0.1754  0.1831
 3584W        W19845  14.820   5.732   1.881 -0.1442  0.1787  0.0884
 3585W        W19846  17.685  10.815   0.000 -0.2482  0.0324 -0.0970
 3586W        W19847   5.498   8.102  11.187  0.0343  0.1812  0.1321
 3587W        W19848   2.592  14.595  12.681  0.1898  0.0469 -0.0216
 3588W        W19849   5.316  13.762   2.838 -0.0247  0.1887  0.0057
 3589W        W19850   2.230  14.261   4.784  0.2131 -0.3212 -0.0393
 3590W        W19851   9.357   8.724   5.160 -0.2935  0.0185 -0.2824
 3591W        W19852   9.980  13.143   5.113 -0.0296 -0.1056 -0.1907
 3592W        W19853  16.568  10.886  15.028 -0.0907  0.1341  0.0772
 3593W        W19854   1.744   6.794   5.618 -0.0261  0.1959 -0.1840
 3594W        W19855   8.709  14.067  15.426  0.0415  0.2938  0.2056
 3595W        W19856   9.168  18.322  15.172  0.1594  0.0738  0.4014
 3596W        W19857  17.326  13.927   2.119 -0.0394  0.0474  0.0296
 3597W        W19858  11.006  18.608   5.989  0.0565  0.0616 -0.2875
 3598W        W19859   4.154  15.738  15.025  0.2431 -0.1512  0.1972
 3599W        W19860   6.324   8.051   1.425  0.1334 -0.4156  0.0287
 3600W        W19861   4.184   7.815  14.212  0.2747  0.2195  0.1071
 3601W        W19862  13.158   0.585  12.000 -0.2850  0.1388  0.3040
 3602W        W19863   8.483  16.458  12.835 -0.2816  0.0230 -0.3399
 3603W        W19864  12.139  18.171   2.211  0.2224  0.2452 -0.0128
 3604W        W19865   2.035  18.807  14.906  0.1540 -0.1202  0.0470
 3605W        W19866  15.966  13.425  15.445  0.0764  0.3192  0.2676
 3606W        W19867   0.959   1.703  10.945  0.3194  0.1342 -0.3667
 3607W        W19868  14.633  11.916  15.620  0.1572 -0.1711  0.1490
 3608W        W19869  11.550   8.642   2.306 -0.2880 -0.0803 -0.2339
 3609W        W19870  18.447  11.376   2.761 -0.1950  0.0185 -0.1183
 3610W        W19871  15.807  14.203   4.189 -0.0865 -0.1128 -0.1870
 3611W        W19872  13.330  11.705   0.099  0.2418 -0.3106 -0.2574
 3612W        W19873  10.127   0.107   0.585 -0.0598 -0.3512 -0.0788
 3613W        W19874   5.357  14.942  14.426  0.1490 -0.0294  0.0860
 3614W        W19875  17.699  16.081  15.120 -0.0997 -0.1915  0.0071
 3615W        W19876   2.938   7.177  14.829 -0.4480  0.0843  0.4437
 3616W        W19877  15.027  13.481   1.321 -0.0268 -0.0532 -0.0577
 3617W        W19878  14.633  15.852   0.371 -0.2831  0.2931  0.0296
 3618W        W19879  12.409   8.795   0.689  0.0110  0.0099  0.0155
 3619W        W19880  18.037  12.085   1.453  0.2803  0.1901  0.0503
 3620W        W19881  16.917   7.153   3.159  0.0941  0.0445  0.0860
 3621W        W19882   7.378   5.842  11.877  0.2691 -0.2556 -0.0259
 3622W        W19883   4.011   8.578  13.482 -0.0743  0.0859 -0.1497
 3623W        W19884  16.745  14.437   2.958  0.0237 -0.3728  0.3285
 3624W        W19885   2.090  14.069  14.182  0.0499 -0.1594 -0.0359
 3625W        W19886   2.129   8.005   5.356 -0.3042  0.2493  0.1158
 3626W        W19887   3.633   2.877   4.520 -0.0402 -0.1938  0.3559
 3627W        W19888   9.134   1.903   1.351  0.0418 -0.2508  0.0579
 3628W        W19889   3.597   1.440   3.249  0.0662 -0.0369 -0.1409
 3629W        W19890  10.333   2.016  15.437  0.0047  0.0500 -0.3845
 3630W        W19891   0.768  17.591   4.502 -0.1704  0.1727 -0.3665
 3631W        W19892  18.394  14.939   3.508 -0.0639 -0.0846 -0.0529
 3632W        W19893  10.838  14.812  10.402 -0.0651  0.1411 -0.3042
 3633W        W19894   9.185   2.907   4.733  0.0737 -0.0675  0.1076
 3634W        W19895   8.902  10.382   4.320 -0.0641  0.1295 -0.1108
 3635W        W19896  14.941   1.752  12.654 -0.1813 -0.3150 -0.0138
 3636W        W19897   9.990   4.744   3.502  0.0615  0.0590  0.1059
 3637W        W19898   8.898  18.703   4.927  0.0300 -0.0022 -0.2730
 3638W        W19899  15.856  10.817   4.832  0.1816 -0.0971 -0.0591
 3639W        W19900   1.522  16.870  10.274 -0.3408 -0.3109 -0.0716
 3640W        W19901  12.625  17.120   4.256  0.1602 -0.2345  0.0380
 3641W        W19902   5.904   9.318   5.159  0.2142  0.1806 -0.3439
 3642W        W19903  18.140   3.491  14.190 -0.1516 -0.1521 -0.0346
 3643W        W19904  13.861  16.839   2.991  0.2032  0.2415 -0.1366
 3644W        W19905  17.441  15.298  15.430  0.0108  0.0709  0.0425
 3645W        W19906  11.660   6.579  14.181  0.1375  0.2020  0.1838
 3646W        W19907  13.863  12.555   2.225  0.1292  0.0059  0.1304
 3647W        W19908  11.495   8.727  15.126 -0.0337  0.0118  0.0675
 3648W        W19909   8.926   5.924   0.464  0.1031  0.6408 -0.0168
 3649W        W19910  15.573   8.366  14.747  0.0368  0.0365 -0.3426
 3650W        W19911   4.758   1.718  14.342 -0.0337  0.0091  0.1668
 3651W        W19912   3.328   7.043  15.140 -0.0936  0.0446 -0.0515
 3652W        W19913   7.506  14.774   0.596  0.0135 -0.3301  0.1256
 3653W        W19914  11.491   3.806  14.261 -0.1593 -0.1097 -0.1296
 3654W        W19915   3.517   6.809   4.881 -0.0521 -0.1318 -0.0293
 3655W        W19916   8.410   8.775  10.336  0.0602 -0.1066  0.0462
 3656W        W19917   8.126   4.253   3.449 -0.1649  0.3511 -0.0040
 3657W        W19918  17.172   2.513  13.604 -0.1202 -0.0417 -0.2628
 3658W        W19919  15.460   4.060  11.452  0.0618 -0.1572  0.1190
 3659W        W19920  13.180  11.953  11.713 -0.0293  0.1046  0.0667
 3660W        W19921   7.283   4.807  12.462  0.0225 -0.1052 -0.2434
 3661W        W19922  16.412  17.715   0.923  0.0395 -0.1053 -0.1113
 3662W        W19923   1.210  18.199   2.194  0.1416 -0.1501  0.1805
 3663W        W19924  14.467   0.838   0.406  0.0672 -0.1631  0.0437
 3664W        W19925   5.026  11.675  11.256 -0.0565  0.3470 -0.2560
 3665W        W19926   6.483  12.160   0.764  0.0854 -0.2878  0.2392
 3666W        W19927   9.871  11.775   5.371  0.4518 -0.1056  0.0746
 3667W        W19928  10.400   7.134   1.337 -0.2160  0.1313  0.1496
 3668W        W19929   4.127  13.268   2.691 -0.0621 -0.0560  0.1503
 3669W        W19930   4.492  13.518  13.707 -0.0612 -0.1318 -0.1786
 3670W        W19931  11.630  18.343  13.523  0.3378 -0.1555  0.0643
 3671W        W19932   7.786  12.437  13.026  0.0959  0.1548 -0.0976
 3672W        W19933   9.870   4.413  14.141  0.0759 -0.0025  0.0279
 3673W        W19934  17.901  18.666   2.809  0.4387 -0.4864  0.0779
 3674W        W19935  14.165  13.154  10.901  0.1131 -0.0493  0.4204
 3675W        W19936   9.045   4.095  12.006 -0.1635  0.3527 -0.0584
 3676W        W19937  13.480   7.409  13.017  0.1123  0.1842 -0.1749
 3677W        W19938   1.120   8.003   6.031  0.1432 -0.1237  0.0386
 3678W        W19939   0.548   2.813  11.119 -0.0402 -0.1637 -0.0504
 3679W        W19940   1.227  10.808   2.248  0.2872  0.0921 -0.1808
 3680W        W19941   2.681  12.703  12.816 -0.1941 -0.0682 -0.0276
 3681W        W19942   6.965  12.993  12.946 -0.2472 -0.1864  0.0742
 3682W        W19943  12.222  15.416  11.000  0.0318 -0.0025 -0.2102
 3683W        W19944  10.084   4.527   5.886 -0.0602  0.1512 -0.0238
 3684W        W19945  11.402   9.471  11.655 -0.0735 -0.2348  0.0114
 3685W        W19946   2.610  12.554  11.206  0.1096 -0.1909 -0.1292
 3686W        W19947  15.094   8.335  11.765 -0.2014 -0.0166 -0.0208
 3687W        W19948  13.340   2.802   2.478  0.2616  0.1096  0.2122
 3688W        W19949   2.872  16.520   2.153  0.0314  0.3000  0.1675
 3689W        W19950   3.376   1.476  12.266  0.4137  0.1694  0.4744
 3690W        W19951  15.774  15.264   2.753  0.2437  0.1441  0.0824
 3691W        W19952  16.030   0.091   1.787 -0.2465 -0.0138 -0.2094
 3692W        W19953   5.628   5.388   4.529  0.3492  0.0546  0.0809
 3693W        W19954   2.500   4.173  14.308  0.3360  0.0223  0.2332
 3694W        W19955  11.688   0.644  13.924  0.1374  0.2475 -0.0787
 3695W        W19956   6.300   4.609   4.668  0.0592 -0.4612  0.4179
 3696W        W19957   7.223  14.254   0.609 -0.2709 -0.1440 -0.0250
 3697W        W19958  14.094   9.952   4.155  0.0617 -0.3274  0.1281
 3698W        W19959   2.408   4.390  15.594 -0.1515  0.0520  0.2358
 3699W        W19960   2.428  11.802   5.802  0.4294 -0.1949  0.4031
 3700W        W19961  11.234   2.400  14.557  0.0612  0.0207  0.1914
 3701W        W19962   2.769  18.283   1.916 -0.0238 -0.1479 -0.2552
 3702W        W19963  15.620   3.308   5.210  0.1936  0.2093  0.0043
 3703W        W19964  10.595  14.366   2.578  0.0659 -0.0370 -0.1207
 3704W        W19965   9.899  12.309  15.379 -0.0166 -0.0344 -0.0715
 3705W        W19966  15.840  13.292   3.259 -0.1916 -0.1760 -0.1188
 3706W        W19967   3.625   8.149   0.193  0.1685 -0.0355  0.2436
 3707W        W19968   9.415   0.750  13.051  0.0244  0.1822  0.1151
 3708W        W19969   1.479  12.917   3.320  0.2329 -0.1369  0.1015
 3709W        W19970   7.877   5.539   4.485  0.1611  0.0020 -0.1595
 3710W        W19971   0.607  12.716   4.427  0.0622 -0.4668 -0.0958
 3711W        W19972  16.509  13.267   2.372  0.1399 -0.1778  0.1529
 3712W        W19973   7.152   1.152   0.281 -0.3677 -0.0613 -0.0399
 3713W        W19974  15.419   9.905   4.749  0.0226 -0.0303  0.1926
 3714W        W19975   2.698   6.486  12.226  0.2154  0.0557  0.0544
 3715W        W19976  17.649   7.348  12.061  0.2058 -0.0692 -0.5375
 3716W        W19977   4.210   8.419  13.950  0.2060  0.0663  0.0277
 3717W        W19978  14.174   5.737  10.924 -0.2774 -0.0364 -0.0317
 3718W        W19979   4.853   2.377  12.594 -0.1044 -0.0928 -0.1099
 3719W        W19980  11.990   9.888   3.455  0.0629 -0.0256 -0.1949
 3720W        W19981   6.986   2.020   1.571  0.0946  0.1124  0.0370
 3721W        W19982   5.469  16.245   3.031  0.0016 -0.0062 -0.1029
 3722W        W19983   4.035   4.767   2.769  0.1242  0.1534 -0.1429
 3723W        W19984  13.002   7.205   2.067 -0.0940  0.2082 -0.1631
 3724W        W19985  14.548   3.576  12.822 -0.3407 -0.0221  0.0828
 3725W        W19986   1.939   5.394  12.167 -0.1537  0.0021 -0.0468
 3726W        W19987  11.610  12.146   1.635 -0.0522  0.0900  0.3435
 3727W        W19988   0.008  15.829   5.711  0.1573  0.0609 -0.1213
 3728W        W19989  16.651  16.973  15.219  0.1214 -0.3990  0.3694
 3729W        W19990  12.326   4.858  14.686 -0.1678  0.1082 -0.0001
 3730W        W19991  10.913   3.654   5.212 -0.2032  0.1986  0.0115
 3731W        W19992   8.028   0.215   1.735  0.0515 -0.0935 -0.0250
 3732W        W19993   4.531  16.052  14.149  0.2808  0.0773  0.2363
 3733W        W19994  17.982  17.445  11.085 -0.0882 -0.0269  0.2320
 3734W        W19995   6.527   7.418   4.083 -0.3446 -0.0305 -0.0317
 3735W        W19996   9.481   0.920  15.008 -0.3966  0.1000 -0.1013
 3736W        W19997  13.863  10.019   1.494  0.0805 -0.0085 -0.1707
 3737W        W19998  17.745   6.259  13.216  0.1594  0.0694 -0.2192
 3738W        W19999  14.702   7.411   3.387 -0.1787  0.5155  0.2114
 3739W        W20000  16.037  16.045  12.557 -0.2988  0.2737  0.3027
 3740W        W20001   6.982  17.208   3.791  0.4983  0.3531 -0.3531
 3741W        W20002   2.625   7.789   5.460  0.1456  0.0392  0.2801
 3742W        W20003   1.818   5.796   3.065  0.1619  0.0878 -0.1048
 3743W        W20004   3.653   4.035   1.540  0.0531  0.2375  0.1134
 3744W        W20005   6.706   3.189   4.167  0.0829 -0.0578 -0.1841
 3745W        W20006   6.435   2.161   3.898 -0.1012  0.1781 -0.4155
 3746W        W20007   2.317  17.058  12.025  0.0224 -0.1674 -0.1804
 3747W        W20008   9.153   1.057   0.303 -0.0519 -0.3223 -0.1594
 3748W        W20009   3.156   7.842   1.558  0.0985 -0.2388 -0.0521
 3749W        W20010  16.328   4.448  12.812 -0.3800 -0.2093  0.0883
 3750W        W20011   0.425   4.464  12.878 -0.1394 -0.2137  0.2410
 3751W        W20012  18.118   8.693   2.821 -0.1518  0.1574  0.1824
 3752W        W20013   3.032   0.202  12.876 -0.1476  0.0504  0.0851
 3753W        W20014   4.540  12.034  12.045  0.0390 -0.0519 -0.2986
 3754W        W20015   2.103   7.077  13.943 -0.1927 -0.0952  0.0858
 3755W        W20016  15.133  18.419  12.404  0.3954 -0.0674 -0.1608
 3756W        W20017   3.421  13.160   3.362 -0.2771 -0.3252  0.2195
 3757W        W20018  10.274   2.162   1.504  0.0114  0.0049  0.2433
 3758W        W20019  17.430  12.053   4.661  0.0913  0.1072  0.2066
 3759W        W20020   0.096  11.972  13.117  0.1150  0.0161  0.2705
 3760W        W20021  16.918   5.729   0.837 -0.0859  0.1452  0.1904
 3761W        W20022  15.169  10.081  13.909  0.1136  0.1032 -0.2505
 3762W        W20023  10.316   2.541  14.687 -0.1216  0.0737  0.3279
 3763W        W20024   0.013  17.646  10.650  0.0200  0.2035 -0.1228
 3764W        W20025  15.068  15.334   0.565 -0.3158  0.2810  0.3534
 3765W        W20026   8.887   6.878  15.258 -0.0889 -0.4160  0.3956
 3766W        W20027   8.716   2.399  11.886 -0.0277 -0.1762 -0.1358
 3767W        W20028  16.189   6.988  13.440 -0.1774 -0.1702 -0.0620
 3768W        W20029   0.504   6.279   2.608 -0.1454  0.1558  0.2937
 3769W        W20030  17.222  12.450  12.767  0.1715  0.0604 -0.0175
 3770W        W20031   3.757  12.157  14.743 -0.1965 -0.0858 -0.1491
 3771W        W20032   2.208   1.627   1.012 -0.1426  0.1483  0.0363
 3772W        W20033   3.773  13.687   0.998 -0.0997 -0.2277  0.0560
 3773W        W20034   6.528   9.864  11.925  0.1000  0.0953  0.0799
 3774W        W20035   3.780  11.500   3.594  0.2382 -0.0870 -0.1898
 3775W        W20036   8.120  15.654   0.763  0.2119  0.1790 -0.0621
 3776W        W20037  10.075  10.868   5.724  0.0794 -0.5066 -0.6890
 3777W        W20038  10.717   4.510   0.856  0.1997  0.0033 -0.1926
 3778W        W20039   6.021  17.863  11.169  0.0532  0.0674 -0.0329
 3779W        W20040   1.704  15.969  13.348 -0.0902 -0.0552 -0.0546
 3780W        W20041  18.389  14.790   1.510 -0.0542 -0.2054 -0.3930
 3781W        W20042  13.104  16.800   5.180  0.1196  0.2899 -0.1877
 3782W        W20043   5.130  18.231   2.076 -0.1866  0.2425 -0.0143
 3783W        W20044   0.076   3.380   2.904  0.0904  0.2237  0.1453
 3784W        W20045  10.582  12.573   0.336 -0.1429  0.0730  0.0258
 3785W        W20046   0.104  13.424  12.177 -0.1196  0.1723  0.0033
 3786W        W20047   6.702   2.335   2.192 -0.1499 -0.0255  0.1013
 3787W        W20048  12.380   1.434   2.827  0.0909  0.0223  0.1923
 3788W        W20049   3.312   5.928  15.270 -0.2085  0.0901 -0.3033
 3789W        W20050   8.728   2.359   2.783 -0.0847 -0.0676  0.0428
 3790W        W20051   8.448   2.444  13.766 -0.0689  0.1968  0.2617
 3791W        W20052  14.422   3.287   2.672 -0.1483 -0.3479 -0.1198
 3792W        W20053  18.798  12.092  15.126 -0.2438  0.2887 -0.0858
 3793W        W20054   6.714   5.508  12.664 -0.2414  0.0020 -0.0689
 3794W        W20055   6.624   7.610   1.073 -0.1008 -0.1613  0.0282
 3795W        W20056   1.076   2.652   4.229  0.2806 -0.0190 -0.1745
 3796W        W20057   1.470  15.957  12.093 -0.4157  0.2599  0.0172
 3797W        W20058  10.576   2.864  14.416 -0.1251  0.0732  0.1745
 3798W        W20059   5.739  15.587  11.377  0.1953 -0.1993 -0.0739
 3799W        W20060  15.960   5.743   0.557 -0.0076 -0.0325 -0.3759
 3800W        W20061   6.404   8.094  14.053 -0.0403  0.2960 -0.2125
 3801W        W20062  12.774   6.546   0.186  0.0866  0.1185  0.1074
 3802W        W20063   5.471   0.348  12.281 -0.3051 -0.4882 -0.3590
 3803W        W20064  10.421   1.288  14.705  0.0352  0.3151 -0.1512
 3804W        W20065  10.720  11.486  13.910  0.2361  0.1132 -0.0088
 3805W        W20066   8.887  16.590   0.921 -0.1685 -0.0973  0.1350
 3806W        W20067  14.935   0.371   2.647  0.0797 -0.0631 -0.1918
 3807W        W20068  17.431  13.833  11.994 -0.1925 -0.2099  0.0218
 3808W        W20069  10.474  16.554   1.387  0.1412  0.1262  0.1601
 3809W        W20070   7.627  18.163  12.340  0.2282  0.4217  0.0011
 3810W        W20071  13.675  11.433  12.607  0.3810  0.2470 -0.4784
 3811W        W20072  13.913  18.179  11.907  0.0351 -0.0907  0.0323
 3812W        W20073   4.701   5.382  15.402 -0.2007 -0.0721 -0.1346
 3813W        W20074  11.612  16.655   0.619 -0.2269 -0.1165  0.0929
 3814W        W20075   6.007   5.133   0.313  0.0017  0.2254 -0.0475
 3815W        W20076   4.461   9.815   5.359 -0.0680  0.0881  0.0817
 3816W        W20077   4.938  12.998   3.175  0.3860  0.0094  0.0369
 3817W        W20078  12.778  16.484   1.086  0.2200  0.0319 -0.3681
 3818W        W20079  13.815  17.922   4.943 -0.2323 -0.1096 -0.2209
 3819W        W20080   2.135   1.398   1.505  0.0969 -0.0130  0.4980
 3820W        W20081   8.226   2.067   0.800  0.2358 -0.1240 -0.0117
 3821W        W20082   7.115  14.689   9.884 -0.0855 -0.1362 -0.0658
 3822W        W20083   9.943  12.296   3.231 -0.3371 -0.0709 -0.0281
 3823W        W20084  15.445  15.238  13.792  0.1800  0.0189  0.0741
 3824W        W20085  11.029  17.091  11.166 -0.1442 -0.0426  0.0616
 3825W        W20086   8.209  11.963  14.641  0.0190 -0.5041 -0.0372
 3826W        W20087   9.068   6.307   5.398 -0.1948 -0.1455  0.1057
 3827W        W20088  13.056   0.287   5.512 -0.1391 -0.2436 -0.1185
 3828W        W20089  10.625   1.386  12.184  0.1742  0.2928  0.1399
 3829W        W20090  10.785  17.117   3.400 -0.0378 -0.0425 -0.0458
 3830W        W20091  14.327  13.156  10.366  0.1157 -0.0086 -0.2630
 3831W        W20092   1.729  18.004   4.236  0.2139 -0.0210 -0.0076
 3832W        W20093   0.018  12.539   0.489  0.2260 -0.5837  0.1786
 3833W        W20094   8.341   8.209   3.205 -0.2720  0.1318 -0.1955
 3834W        W20095  16.946  10.545   3.396 -0.2328  0.1758  0.2042
 3835W        W20096   4.267   6.565   0.333  0.0505  0.2727  0.2315
 3836W        W20097   2.004   3.157  13.272 -0.0082 -0.1015  0.0942
 3837W        W20098  16.696  15.614   3.533  0.1313  0.0736  0.0491
 3838W        W20099  10.230   5.673   3.178 -0.0254 -0.2492 -0.1128
 3839W        W20100  15.506   7.745  13.922  0.3692 -0.2746  0.0310
 3840W        W20101  11.454  12.875   1.304  0.0115  0.1007  0.0464
 3841W        W20102  14.406  18.115  10.644 -0.0201 -0.1007 -0.2121
 3842W        W20103   2.218  18.041   0.096  0.0084  0.0854 -0.0615
 3843W        W20104   8.898   2.934   0.764 -0.1853 -0.1908  0.0307
 3844W        W20105  17.890   9.969  15.519 -0.1223  0.1633 -0.3379
 3845W        W20106  14.064  10.750   3.529 -0.1840 -0.0057 -0.0966
 3846W        W20107  12.655  16.802   2.966 -0.1504  0.2212 -0.1166
 3847W        W20108   1.399   5.065  14.309 -0.0190 -0.0397 -0.0941
 3848W        W20109  10.619   5.947  11.386 -0.0605  0.0243 -0.1925
 3849W        W20110  13.086  13.093   2.513 -0.1630  0.0740 -0.1159
 3850W        W20111  12.143   0.688  13.393  0.2578 -0.2536  0.2630
 3851W        W20112  12.198  17.339   1.679 -0.6521 -0.3686 -0.0997
 3852W        W20113  10.994  10.256   2.970  0.0279 -0.1201  0.4120
 3853W        W20114  12.258   6.946   1.779 -0.0561 -0.3550 -0.0232
 3854W        W20115   8.048  18.032  12.464 -0.3356 -0.0328 -0.3672
 3855W        W20116   9.731   6.113   0.870  0.2987  0.0664 -0.0915
 3856W        W20117   2.699  13.627   3.221 -0.2102 -0.0433  0.0906
 3857W        W20118   0.849  11.643   4.174 -0.3268 -0.0375 -0.3908
 3858W        W20119   3.968   0.229   5.264 -0.3194 -0.0621  0.0468
 3859W        W20120   1.823  10.831   4.969  0.2783 -0.3524 -0.0252
 3860W        W20121  12.015  15.378  12.983  0.1690  0.4192  0.4567
 3861W        W20122  11.551  17.215   3.945 -0.0571 -0.1312 -0.2613
 3862W        W20123   2.971  17.724   3.662 -0.0693  0.2365 -0.0823
 3863W        W20124   5.267   6.580   4.516 -0.2752  0.4142  0.0179
 3864W        W20125   4.991   0.167  13.680  0.0892 -0.1717 -0.3716
 3865W        W20126   8.814  17.509   9.737 -0.2924 -0.3603 -0.3961
 3866W        W20127  10.961   1.971  13.453 -0.0751  0.1325 -0.1519
 3867W        W20128   3.579  17.474   0.263  0.1120 -0.2745  0.0145
 3868W        W20129   7.800   8.877   2.930 -0.1036  0.2859  0.3575
 3869W        W20130   9.922   9.475   3.142  0.2432 -0.0709 -0.3736
 3870W        W20131   0.532  10.144  13.140  0.1369  0.1532  0.0271
 3871W        W20132  18.813   9.552   3.780 -0.0321 -0.2092 -0.2683
 3872W        W20133   8.768  18.830  13.498  0.0168 -0.2497  0.0481
 3873W        W20134  18.515   2.784  10.505  0.1386 -0.1696  0.2348
 3874W        W20135  14.039   4.020   0.931 -0.1160 -0.1953 -0.2400
 3875W        W20136  18.509   2.940   2.171  0.1374 -0.2233  0.0524
 3876W        W20137   5.315  13.499  13.915  0.0636 -0.0673 -0.2483
 3877W        W20138  15.384   7.100   4.465 -0.1596  0.2669 -0.2870
 3878W        W20139   9.083   1.942   3.007 -0.1932  0.3498  0.2624
 3879W        W20140  17.927   3.943  13.940 -0.1049  0.1377  0.0207
 3880W        W20141   6.948   7.318  12.567  0.0145  0.0570 -0.0972
 3881W        W20142  14.646   2.060  10.733 -0.0850 -0.2342 -0.0735
 3882W        W20143   9.083   0.413  15.174 -0.0621 -0.1675 -0.1731
 3883W        W20144   6.193   5.566  11.928 -0.2821  0.1337 -0.0006
 3884W        W20145   1.498  12.807  13.259  0.2156 -0.2927 -0.1349
 3885W        W20146  11.160   1.178   6.123 -0.1208 -0.0621  0.0855
 3886W        W20147   5.749   2.285   5.262  0.0080  0.4744 -0.0111
 3887W        W20148   9.926   4.409   0.343 -0.2399 -0.1875  0.0580
 3888W        W20149   8.080  10.170   3.871 -0.0856  0.2439 -0.5318
 3889W        W20150   0.448  18.536  14.056  0.0960 -0.0625  0.0989
 3890W        W20151   6.774   8.125   0.607 -0.3279 -0.1469  0.2137
 3891W        W20152  11.122   5.596  13.600 -0.0712  0.2241 -0.5055
 3892W        W20153   3.495   2.003  11.214 -0.0796 -0.1951 -0.0826
 3893W        W20154   7.607  12.370  14.660  0.0386 -0.4759  0.2332
 3894W        W20155   7.195  13.159   4.656  0.1165  0.0216  0.2490
 3895W        W20156  16.045   1.480  10.976  0.1372  0.3814  0.1782
 3896W        W20157   5.919   0.189   2.594  0.3506 -0.0121 -0.0559
 3897W        W20158  18.560  11.168   0.279 -0.3193 -0.3636  0.0490
 3898W        W20159   6.657  12.308   3.743 -0.3504  0.0236  0.0506
 3899W        W20160  14.745  14.413   3.448 -0.1587 -0.1035 -0.0850
 3900W        W20161  16.271   5.850   5.059  0.1033  0.3984 -0.4227
 3901W        W20162   2.478   7.561   1.082 -0.1386  0.1488  0.2819
 3902W        W20163   0.913  14.039   3.967 -0.0119  0.6685  0.0300
 3903W        W20164  15.440   5.447   3.856  0.1121  0.2170 -0.1482
 3904W        W20165  10.088   7.266  13.402 -0.0837  0.0050  0.2357
 3905W        W20166  16.018   0.122   0.173  0.1764 -0.2320 -0.1480
 3906W        W20167  17.940   1.632   0.593 -0.1292  0.1257 -0.0300
 3907W        W20168   0.997  13.812   3.549 -0.3170 -0.1404 -0.0716
 3908W        W20169   5.185  12.880   4.627 -0.0469 -0.0448 -0.1480
 3909W        W20170   5.201  13.130  12.271  0.0130  0.2188  0.1504
 3910W        W20171   2.341  15.121   9.443  0.1981  0.0440 -0.1766
 3911W        W20172   7.192  15.193   4.522  0.0574  0.4347 -0.3222
 3912W        W20173   7.802   8.992   0.779 -0.2318 -0.1055 -0.0164
 3913W        W20174  16.521  13.273  12.361  0.2710  0.3783  0.3376
 3914W        W20175   7.077   7.172  13.413  0.0105  0.0377 -0.0359
 3915W        W20176   9.130   3.445   1.366 -0.0156 -0.2128  0.2681
 3916W        W20177  12.024  14.958   2.667 -0.1968  0.0443 -0.1281
 3917W        W20178   9.503   9.064   2.728  0.2727 -0.2319 -0.2473
 3918W        W20179  15.767   5.455   1.784  0.1642 -0.0906 -0.1030
 3919W        W20180  10.261   3.377  14.495  0.3566  0.1600  0.0961
 3920W        W20181  11.869   7.629   3.554  0.1798  0.1805 -0.2381
 3921W        W20182  17.919   0.818   0.271 -0.0550 -0.1078 -0.1391
 3922W        W20183   1.879  15.662   2.576  0.3246  0.0184 -0.1233
 3923W        W20184   6.335   9.976   3.760 -0.0043 -0.0425 -0.0090
 3924W        W20185   0.522  11.324   4.566  0.1492  0.2275 -0.2153
 3925W        W20186   8.244   5.807   5.819  0.0255  0.1015  0.0927
 3926W        W20187  16.811  11.600   2.370 -0.0337 -0.1242  0.0436
 3927W        W20188   6.525  14.880  12.631  0.4195  0.0653  0.0824
 3928W        W20189   8.372   4.453   1.258 -0.0308  0.0068  0.1583
 3929W        W20190  14.296  16.141  12.689  0.0126 -0.1142  0.0172
 3930W        W20191   7.959   4.548   3.791  0.1442 -0.2304  0.0678
 3931W        W20192  18.006   1.502   2.350 -0.2845  0.0835  0.0273
 3932W        W20193  11.680  12.555   3.729  0.0790  0.1143 -0.2532
 3933W        W20194  12.663   0.874   3.539 -0.0003  0.1194 -0.1402
 3934W        W20195   1.509   1.382   1.068  0.0661  0.0026 -0.2416
 3935W        W20196   4.060  10.520  15.122 -0.2588  0.1953  0.0545
 3936W        W20197  16.025   2.571   2.755 -0.0064 -0.0858  0.2298
 3937W        W20198   5.338  11.327   4.211 -0.7779 -0.1382 -0.3674
 3938W        W20199   9.244   6.332  15.068 -0.0935  0.2718 -0.0944
 3939W        W20200  15.695   2.935   1.998  0.2138 -0.3527  0.0113
 3940W        W20201  10.720   2.528   3.879  0.3149 -0.0829  0.2222
 3941W        W20202   1.738  16.388   5.162 -0.1691 -0.0698 -0.0829
 3942W        W20203  10.439  14.444   0.648 -0.2125 -0.2054 -0.1274
 3943W        W20204   5.616  18.689   3.730  0.0049 -0.0867  0.0189
 3944W        W20205   4.239  13.116   3.191  0.2127 -0.1565  0.0235
 3945W        W20206  18.096   1.143  13.347 -0.0082  0.1418  0.1526
 3946W        W20207   7.717   8.937   1.756 -0.5057 -0.1771 -0.0495
 3947W        W20208  13.801   7.764   1.705  0.0810 -0.0963  0.1274
 3948W        W20209   7.287  17.540  14.321 -0.1442 -0.1039 -0.0092
 3949W        W20210   0.959  10.551  12.152  0.1881  0.0698 -0.3747
 3950W        W20211   8.792   6.078   4.625  0.0362  0.1231  0.0507
 3951W        W20212   6.343  18.269  11.383 -0.3510  0.1657 -0.1511
 3952W        W20213  11.240   0.040   1.798 -0.0387 -0.2742  0.3302
 3953W        W20214  18.205   5.524   5.259  0.5136 -0.0045 -0.0975
 3954W        W20215   1.179   4.670  12.269  0.0330  0.4565 -0.2090
 3955W        W20216   8.731  16.821   4.941 -0.3074  0.0343  0.0492
 3956W        W20217   1.958   5.457   3.573 -0.0614 -0.2014 -0.2188
 3957W        W20218  16.637  16.746  14.651  0.1987  0.1425 -0.1547
 3958W        W20219  17.813  17.462   4.895 -0.0990  0.0207 -0.2390
 3959W        W20220   6.400   2.686  14.589 -0.0706  0.0889 -0.2746
 3960W        W20221   8.723  12.647   5.146 -0.2240 -0.1153  0.2878
 3961W        W20222  11.547  15.839  14.424  0.3262  0.0676 -0.0392
 3962W        W20223   7.354   2.175   3.317 -0.0249  0.0044  0.3823
 3963W        W20224   0.102   4.796   0.432 -0.0756 -0.3966  0.3069
 3964W        W20225   2.979   1.698  14.228 -0.1164 -0.0358  0.1408
 3965W        W20226   4.876   9.831  13.769  0.0520 -0.1985  0.0787
 3966W        W20227  10.317  15.481   3.848  0.3488  0.1873 -0.0592
 3967W        W20228   3.039  12.700  14.986  0.0706  0.0797 -0.0838
 3968W        W20229   8.165   8.390  15.174  0.1301 -0.4952 -0.0034
 3969W        W20230  16.379   4.954  13.890  0.0886 -0.1868  0.0486
 3970W        W20231   5.467   1.883   3.672  0.3016 -0.0376 -0.0869
 3971W        W20232  14.278   7.120   3.432  0.1864 -0.4316 -0.1060
 3972W        W20233   4.846   5.467   6.009 -0.0692 -0.0717  0.0832
 3973W        W20234   5.589   9.719  13.825 -0.0258  0.1611  0.1783
 3974W        W20235   7.225  17.929   0.542  0.0046  0.1788  0.1108
 3975W        W20236  11.460  13.703  13.332 -0.1291  0.0974  0.0610
 3976W        W20237   7.212   0.842   1.363 -0.1172  0.0988  0.3142
 3977W        W20238  12.156   2.831  15.638  0.0598 -0.2399  0.0401
 3978W        W20239   6.802   7.152   4.519  0.0253 -0.1279 -0.1781
 3979W        W20240   2.694  10.563  15.188  0.0198  0.0079 -0.1005
 3980W        W20241  17.144   0.148  13.946 -0.3324 -0.0565  0.0132
 3981W        W20242  13.968  17.317   0.705 -0.3271 -0.0928 -0.1718
 3982W        W20243   6.291  15.492   2.796 -0.0663 -0.2294  0.1356
 3983W        W20244   7.900  14.848   5.107  0.0374 -0.1742  0.1405
 3984W        W20245  14.230  14.586   2.504  0.0181  0.3987 -0.2443
 3985W        W20246   4.210   7.716   2.212 -0.0870 -0.0265 -0.2013
 3986W        W20247  14.164  15.573  12.916 -0.1116 -0.2399 -0.1536
 3987W        W20248   7.507   3.697   3.563 -0.2786 -0.5142  0.1546
 3988W        W20249  14.780   6.478  11.866  0.1043  0.0989 -0.3561
 3989W        W20250   1.253   3.198   1.745 -0.1396 -0.0082 -0.0313
 3990W        W20251  11.216  13.324  11.534  0.1113 -0.2121 -0.0383
 3991W        W20252  14.301  14.754  15.186  0.2336  0.3081 -0.2262
 3992W        W20253   3.829   9.833   2.854 -0.0256 -0.0775  0.3652
 3993W        W20254  16.362  16.633   4.194 -0.3215 -0.1314 -0.2359
 3994W        W20255  18.777   1.916   2.851  0.2629  0.1520 -0.2512
 3995W        W20256  10.168  18.293   3.902  0.0819  0.1890 -0.0464
 3996W        W20257  11.813  15.356   3.386  0.4126  0.0683 -0.0036
 3997W        W20258   3.932  17.643  13.382  0.2492 -0.1184  0.1056
 3998W        W20259   9.693  14.554  14.622  0.3971  0.1504  0.0048
 3999W        W20260  15.754   2.757   5.264 -0.1953  0.0361  0.2501
 4000W        W20261  16.358   9.376   0.011  0.1525 -0.0193 -0.0248
 4001W        W20262  12.575   7.148  11.472 -0.0490  0.2473  0.0285
 4002W        W20263   9.214   5.160   4.404 -0.0081 -0.1636 -0.2225
 4003W        W20264   5.997   7.127   1.307  0.0133 -0.1537  0.3071
 4004W        W20265   6.808  12.186  11.929 -0.1058 -0.1605  0.3085
 4005W        W20266   3.093   5.617  15.617 -0.4166 -0.0507  0.1666
 4006W        W20267   2.258   7.534   5.172  0.0048 -0.0876  0.4141
 4007W        W20268   4.908   2.720   0.069 -0.0972 -0.0565  0.0226
 4008W        W20269   1.696   1.295  11.626  0.0527 -0.1600 -0.1156
 4009W        W20270   0.507  16.653  11.778  0.0987  0.4488 -0.0840
 4010W        W20271  14.960   3.263  13.106  0.0571 -0.3766  0.1739
 4011W        W20272  12.120   9.810  14.428 -0.0761  0.1572 -0.1823
 4012W        W20273  10.064   8.523  15.408  0.1453  0.1281 -0.0493
 4013W        W20274   3.262  16.178   5.358 -0.0669  0.2510  0.0596
 4014W        W20275   6.456   7.133   0.100  0.1872 -0.0432 -0.2873
 4015W        W20276   9.741  17.545  11.113  0.0845  0.0700 -0.1859
 4016W        W20277  10.058   3.852   0.623 -0.3047  0.0991 -0.1927
 4017W        W20278   0.730  10.631  13.100 -0.0134 -0.1677  0.1375
 4018W        W20279   6.691  14.743   3.327  0.0959  0.1327  0.0185
 4019W        W20280  13.542  17.175   1.648  0.1472 -0.1969  0.0933
 4020W        W20281   0.479   9.608   3.703 -0.3493 -0.0718  0.0890
 4021W        W20282   5.104  16.124  15.521 -0.0803  0.2216 -0.1902
 4022W        W20283   3.842   8.667   0.556 -0.2028 -0.0845 -0.0785
 4023W        W20284   7.474   3.915  14.373 -0.0392  0.3574  0.0792
 4024W        W20285   0.019   8.772  11.331  0.1943 -0.1560 -0.1425
 4025W        W20286   7.248   5.538  15.135  0.1944 -0.1006  0.1970
 4026W        W20287   7.959  16.180  13.524  0.3422  0.1211 -0.0610
 4027W        W20288  12.767  11.776  14.951  0.0415  0.1977 -0.0003
 4028W        W20289   8.991  11.242   2.228 -0.2047 -0.4045 -0.3295
 4029W        W20290  15.561   0.229  11.710  0.0747  0.0232 -0.2135
 4030W        W20291   6.721   1.400  15.600  0.3597 -0.0987 -0.0632
 4031W        W20292  16.893   3.062   3.424  0.1298  0.0654 -0.0787
 4032W        W20293   9.645   6.588   3.582 -0.2932  0.0183 -0.0165
 4033W        W20294  16.372  16.225  11.422  0.0138 -0.3382  0.1918
 4034W        W20295  17.261   3.839   0.453 -0.0968 -0.4290  0.1522
 4035W        W20296  17.755   9.884   3.605  0.2934  0.0291  0.3217
 4036W        W20297  17.977  11.456  13.917  0.0650  0.2160  0.1666
 4037W        W20298   8.847  18.346  14.767  0.1133 -0.3998 -0.2094
 4038W        W20299   4.792   0.388   4.733  0.0970 -0.3366 -0.2921
 4039W        W20300   0.026  16.567   0.857  0.0681  0.0397 -0.0810
 4040W        W20301  11.374   5.643   1.201  0.1488  0.0055 -0.0092
 4041W        W20302   8.242  10.451  14.408 -0.1703 -0.4042 -0.3436
 4042W        W20303   1.599   1.454   0.213  0.2570  0.1317 -0.0168
 4043W        W20304   7.008  16.302   5.072 -0.1126  0.1224  0.3006
 4044W        W20305  11.778  10.834  14.849  0.0244  0.0320  0.1454
 4045W        W20306  11.913  13.614   3.198 -0.1317  0.0338  0.1341
 4046W        W20307   7.063   4.127  12.709  0.0909 -0.0736  0.0531
 4047W        W20308   6.533   7.098   1.393  0.0503 -0.2125 -0.4937
 4048W        W20309  13.885   6.540   0.653 -0.0734  0.1751 -0.3770
 4049W        W20310  14.160   9.443  10.526  0.0250 -0.0443 -0.2044
 4050W        W20311  11.473   2.456  11.428 -0.1343 -0.1375 -0.0937
 4051W        W20312   4.396   1.009   5.166  0.1918  0.0517  0.0829
 4052W        W20313  15.541   4.686   2.049  0.1013 -0.3459 -0.1538
 4053W        W20314   1.116   9.351  14.714 -0.0077  0.1239  0.3512
 4054W        W20315   7.460   8.036  15.572  0.0290  0.3042 -0.0143
 4055W        W20316   6.346   6.920  12.608 -0.2200  0.2160 -0.0490
 4056W        W20317   6.600  18.390   2.490  0.2197 -0.3678  0.0695
 4057W        W20318   8.404   6.903  13.741  0.2654  0.0552 -0.1760
 4058W        W20319  16.612   3.214  14.411 -0.0414 -0.2112  0.0466
 4059W        W20320  15.936  12.241   4.838 -0.2355  0.4431  0.0649
 4060W        W20321   3.258  13.958  15.623  0.0706 -0.1277 -0.1511
 4061W        W20322  14.167  11.120  14.628  0.2445 -0.0104 -0.0235
 4062W        W20323  13.113  10.001   2.246  0.4001 -0.0024  0.0242
 4063W        W20324   2.406   5.526  12.817  0.3174  0.1242 -0.0367
 4064W        W20325  16.973   5.037  15.567  0.0357  0.3824 -0.1622
 4065W        W20326  11.542   3.642  12.819  0.1659 -0.0464  0.2151
 4066W        W20327  13.998  11.044  12.113 -0.0125  0.1922  0.0226
 4067W        W20328  17.181   6.937  11.710  0.1185 -0.0847 -0.0058
 4068W        W20329   4.591  15.891   2.494 -0.1365 -0.0812  0.2244
 4069W        W20330   3.333   4.391   1.657  0.1132  0.3586  0.1316
 4070W        W20331   5.976  10.057   2.660  0.2123  0.0660  0.0132
 4071W        W20332   5.852   1.156   4.301 -0.1165 -0.1356  0.0216
 4072W        W20333   6.469  12.655  15.612 -0.1355 -0.0448  0.4433
 4073W        W20334  17.679   7.956  14.509  0.0861 -0.1362 -0.2547
 4074W        W20335   7.961   5.312   1.261  0.0095  0.0003 -0.1196
 4075W        W20336  11.599   1.298  13.687  0.1082 -0.1520  0.1867
 4076W        W20337   3.702   5.502   4.122  0.1293 -0.1470 -0.1288
 4077W        W20338  13.961  18.565  15.232 -0.0988 -0.0316  0.2608
 4078W        W20339  15.071  17.213   0.073 -0.1168  0.5342 -0.1001
 4079W        W20340  10.129  15.844   0.019  0.0000 -0.0762 -0.0853
 4080W        W20341  11.267   4.642   4.413  0.2743  0.3181 -0.3365
 4081W        W20342   7.874  11.721  12.557  0.0408 -0.0971  0.0797
 4082W        W20343   0.997  15.040  12.587  0.2418 -0.0297  0.1113
 4083W        W20344   2.295   5.541  10.808 -0.0146  0.0574  0.1321
 4084W        W20345  17.975  12.852   5.338 -0.0691  0.1196 -0.0625
 4085W        W20346   8.046   1.285   2.768 -0.1246 -0.3281 -0.0565
 4086W        W20347   9.118  16.628  12.048 -0.1666  0.1695 -0.0552
 4087W        W20348  13.549  18.037  15.068 -0.0985  0.2276 -0.1353
 4088W        W20349   9.409   5.263  14.848 -0.1069  0.0932 -0.2318
 4089W        W20350   7.378   6.779  13.713  0.1561 -0.1254 -0.3897
 4090W        W20351   5.834   6.659   1.035 -0.1508 -0.3775 -0.0461
 4091W        W20352  18.058   4.497   4.005  0.5109  0.1622  0.2104
 4092W        W20353   1.043   3.220   2.487  0.3389  0.6624 -0.1041
 4093W        W20354  10.436  13.185  15.578  0.2201  0.1303 -0.0263
 4094W        W20355  17.208   1.746   4.966  0.1124 -0.2194  0.0872
 4095W        W20356   9.033  16.968  15.254 -0.1759 -0.2991 -0.3072
 4096W        W20357  14.726   6.702   1.358  0.0110 -0.1886  0.0858
 4097W        W20358   1.117   1.370  13.901 -0.0428  0.1597  0.0358
 4098W        W20359  10.717   5.609   4.605 -0.0714 -0.2577  0.1116
 4099W        W20360  16.534  15.304  14.436 -0.0491 -0.1380  0.2920
 4100W        W20361   1.862   0.709   4.713  0.3271  0.0277 -0.1911
 4101W        W20362   9.932   8.366  14.956 -0.3070  0.1087 -0.0355
 4102W        W20363   2.985   4.858   2.739  0.2330 -0.2019  0.1086
 4103W        W20364  13.458  11.000   0.702  0.2539 -0.0849  0.4274
 4104W        W20365  16.658  10.881  13.585 -0.2216  0.0805  0.3629
 4105W        W20366   5.114  14.870  12.298  0.0596 -0.2158  0.2558
 4106W        W20367  10.060   9.708   1.905  0.3430  0.0911 -0.1187
 4107W        W20368  18.592  15.388  13.384 -0.1391  0.0302 -0.0777
 4108W        W20369   6.546   2.418  15.398  0.1081  0.2081 -0.0656
 4109W        W20370  13.256  15.018  11.835 -0.3703 -0.0448  0.1954
 4110W        W20371   6.848  13.731  14.644  0.1621 -0.1302  0.0179
 4111W        W20372   6.069   7.316   5.467 -0.0345 -0.1931 -0.0877
 4112W        W20373   4.299   2.814  10.944  0.2275 -0.3784  0.1913
 4113W        W20374  13.668   3.267  13.148  0.1655 -0.1424 -0.2299
 4114W        W20375  16.154  16.891   4.591 -0.1870 -0.2310 -0.1156
 4115W        W20376  18.366  18.635  13.169 -0.0542 -0.2491 -0.2349
 4116W        W20377   3.931   3.698  13.719 -0.2098  0.0206  0.1620
 4117W        W20378   4.463  18.648   2.688 -0.2235  0.0077 -0.0785
 4118W        W20379   8.682   3.666   2.857  0.1700  0.2033  0.0838
 4119W        W20380   2.914   9.283   2.962  0.1386 -0.1583 -0.1605
 4120W        W20381   3.909   9.792  11.615  0.0497 -0.0195 -0.0443
 4121W        W20382  11.192   7.510   4.307 -0.1783  0.1866 -0.3156
 4122W        W20383   6.124   9.018  13.011 -0.1294 -0.0414 -0.1639
 4123W        W20384   0.531   8.558  11.439 -0.0778 -0.0133 -0.0298
 4124W        W20385  13.434   3.432   3.031 -0.0203  0.1835 -0.0233
 4125W        W20386  12.635   9.417   3.566 -0.2232 -0.0777  0.3086
 4126W        W20387   7.031  16.390  10.502  0.0699 -0.0137  0.0514
 4127W        W20388  15.539  17.826  11.703 -0.0578 -0.2053  0.0040
 4128W        W20389   2.987   2.175   4.918 -0.1099 -0.2072  0.1047
 4129W        W20390   3.191   3.921   3.380 -0.0548 -0.0605 -0.1623
 4130W        W20391  16.409   0.860   1.605 -0.0409  0.1486  0.2772
 4131W        W20392   6.369   5.808   1.473 -0.0969 -0.2219  0.0961
 4132W        W20393   2.666   4.749   5.089  0.4239 -0.0266 -0.3474
 4133W        W20394   8.920  11.646   3.808 -0.2896 -0.2683 -0.0590
 4134W        W20395  10.444  10.508   4.618  0.0751  0.2188  0.1201
 4135W        W20396   9.868  15.569   0.426  0.0836  0.0202 -0.2886
 4136W        W20397  15.389   4.889  12.631 -0.0679  0.1618 -0.1024
 4137W        W20398   6.161  18.221  10.905  0.2412  0.2577  0.1531
 4138W        W20399  14.692   4.670   3.812 -0.0345 -0.1729 -0.2232
 4139W        W20400   9.413  10.138   3.156  0.0919  0.0890  0.0589
 4140W        W20401   7.759   0.566   5.399 -0.2738 -0.1084  0.3181
 4141W        W20402   3.504  11.464  14.311  0.1047 -0.3044 -0.2133
 4142W        W20403  10.227  17.564   3.420  0.3724 -0.1841 -0.0648
 4143W        W20404   3.429   8.695  12.985 -0.5006 -0.3845  0.0230
 4144W        W20405  13.791   9.754   3.713 -0.1188 -0.2399 -0.2313
 4145W        W20406   8.460   7.757  11.065 -0.0718 -0.0815  0.0037
 4146W        W20407  17.739   6.634   5.573 -0.2873 -0.4862  0.1243
 4147W        W20408   3.412  13.235   5.745 -0.2366  0.1595  0.1664
 4148W        W20409  14.580  12.395   4.739  0.0329 -0.3537  0.2833
 4149W        W20410   8.366   6.408  14.018  0.1083 -0.1563 -0.0913
 4150W        W20411  16.821   2.311  14.753  0.0200  0.1113 -0.0586
 4151W        W20412  10.919   8.239  14.051  0.1158 -0.0790 -0.0347
 4152W        W20413   7.491   4.226   5.193  0.0854  0.3917  0.1064
 4153W        W20414   6.295  11.681   4.168  0.1979 -0.0490  0.1781
 4154W        W20415  12.865   1.809   2.022  0.5766 -0.3158  0.3279
 4155W        W20416  11.866  18.372  11.463 -0.0624 -0.1080 -0.2432
 4156W        W20417  18.295   1.530   0.235  0.2340  0.2559  0.1399
 4157W        W20418   4.171   5.202  13.613  0.0434 -0.2269 -0.4602
 4158W        W20419   5.683   5.448   3.155 -0.0299 -0.1088 -0.2891
 4159W        W20420   2.401  14.177   3.424  0.1511 -0.1799  0.1122
 4160W        W20421  15.146   4.219  13.419 -0.0527 -0.4777 -0.2757
 4161W        W20422   5.685  17.007   3.198 -0.1678  0.3260  0.2746
 4162W        W20423   7.807  18.136  13.304 -0.0041 -0.2188 -0.3753
 4163W        W20424   3.040   7.687   2.346 -0.5052 -0.1491 -0.0518
 4164W        W20425  13.227   5.194   1.179  0.1486 -0.1011  0.1936
 4165W        W20426  11.144   3.386  15.472 -0.1962 -0.0002 -0.0501
 4166W        W20427  11.070   6.720   3.343 -0.0604  0.3929 -0.0376
 4167W        W20428   5.265  10.129  13.534 -0.0130 -0.0010  0.2022
 4168W        W20429   9.853   5.613   5.708 -0.0990 -0.4309  0.1621
 4169W        W20430   5.244   1.892  11.206 -0.1967  0.3520  0.3896
 4170W        W20431  13.472   8.745  13.255  0.0379  0.2743 -0.1447
 4171W        W20432   0.789   2.327   4.602 -0.1399  0.0437 -0.0596
 4172W        W20433   7.895   0.252  11.952 -0.1909 -0.1298 -0.2416
 4173W        W20434   3.922   5.061   1.790  0.0578  0.0920  0.4005
 4174W        W20435  14.353  13.698  11.635  0.3063 -0.0113  0.1084
 4175W        W20436  16.832   5.325  10.840  0.0778  0.3701 -0.1221
 4176W        W20437  14.548   7.562  11.150  0.3587  0.2335  0.0721
 4177W        W20438  13.475   2.669   2.006 -0.0791 -0.0888  0.1012
 4178W        W20439   0.445  12.093   0.315 -0.0643  0.1501 -0.0086
 4179W        W20440   8.179  17.130  15.344  0.0825 -0.0263 -0.0767
 4180W        W20441   5.470  12.449  14.856  0.3743  0.1547 -0.3024
 4181W        W20442   6.658   1.858   5.761 -0.0333 -0.0294  0.2461
 4182W        W20443  17.445  17.729   3.282  0.2090  0.0696 -0.0003
 4183W        W20444   4.824  14.707   4.661  0.2108  0.1279  0.0767
 4184W        W20445   0.331   9.958   5.488  0.2838  0.1200 -0.1415
 4185W        W20446   2.604   9.950   3.531 -0.0853 -0.4824 -0.1025
 4186W        W20447  12.014   1.000  13.789 -0.2693 -0.1134 -0.0781
 4187W        W20448  17.597  11.200  15.225  0.0348 -0.0971 -0.1564
 4188W        W20449  11.537  14.632  13.078  0.2081  0.1607  0.1708
 4189W        W20450   0.076  15.217  12.298  0.2556 -0.0711 -0.0362
 4190W        W20451  12.570   2.432   3.000 -0.0305  0.2888 -0.0572
 4191W        W20452  18.405  14.959  12.031  0.1745 -0.1607  0.4842
 4192W        W20453   7.650   1.001  11.370 -0.2931 -0.0080  0.0271
 4193W        W20454   0.519   8.134   4.737 -0.2148 -0.1008  0.2655
 4194W        W20455   4.105  13.808  15.301  0.2770  0.0154  0.0945
 4195W        W20456   7.283   3.310  14.416  0.1142  0.2219 -0.0966
 4196W        W20457   3.886   3.154   3.617  0.0787  0.1756  0.0874
 4197W        W20458   5.609  12.254   2.502  0.2349 -0.0632 -0.3132
 4198W        W20459   3.751   4.839  12.870  0.1835 -0.1403  0.3481
 4199W        W20460  17.076  17.499  12.469 -0.1989 -0.2581  0.1628
 4200W        W20461  10.559   7.366   3.663 -0.2072 -0.0573 -0.1234
 4201W        W20462  16.812   1.089   1.374 -0.1552  0.3117 -0.1494
 4202W        W20463  15.257  10.532  14.817 -0.0335 -0.0290 -0.0040
 4203W        W20464  18.421   2.001  14.931  0.0617  0.0037 -0.1235
 4204W        W20465   5.231   8.693   5.414 -0.1645 -0.1757  0.2959
 4205W        W20466   4.872  11.607   0.613 -0.2926 -0.0542  0.0030
 4206W        W20467  16.649   1.237  10.922 -0.2404  0.1145  0.1723
 4207W        W20468   3.578   5.159   2.118  0.0336  0.3412  0.1817
 4208W        W20469   6.536   9.855   4.205  0.1919 -0.0203  0.3457
 4209W        W20470   1.047  13.377  15.050 -0.2269 -0.2135 -0.0312
 4210W        W20471   6.413   3.994   3.891  0.1146  0.0417 -0.2219
 4211W        W20472  14.074   0.828   2.139 -0.3110 -0.0839  0.1348
 4212W        W20473   9.415  18.772  14.140  0.1426 -0.0668  0.0354
 4213W        W20474   2.600  11.400  10.494 -0.0621  0.1560 -0.0124
 4214W        W20475  13.174   7.029   3.385  0.4944 -0.1027 -0.1533
 4215W        W20476  14.350  11.341   4.558  0.0970  0.1436 -0.1889
 4216W        W20477   2.397  10.943  15.336 -0.1927  0.0105  0.1849
 4217W        W20478   2.580   0.175   0.484 -0.3452  0.1511  0.2276
 4218W        W20479  13.334   1.616   4.541  0.1677 -0.1228 -0.0660
 4219W        W20480  16.956   3.802   1.799  0.0569  0.2655 -0.0926
 4220W        W20481   0.388  14.233   5.058  0.2602 -0.0088  0.1575
 4221W        W20482   4.080   9.163  11.870  0.1084 -0.0432  0.0844
 4222W        W20483  12.072   2.006  14.426 -0.1540  0.2996 -0.1608
 4223W        W20484   4.578   6.065  12.506 -0.1333 -0.2286 -0.1205
 4224W        W20485  18.508   9.459   1.886 -0.1721 -0.1110  0.1119
 4225W        W20486  10.775  10.966  14.509 -0.3558  0.1128  0.4319
 4226W        W20487   1.600  12.981  15.497 -0.2444  0.0740  0.2847
 4227W        W20488   1.908   7.691  13.344 -0.3766 -0.3154 -0.1113
 4228W        W20489   3.568   6.425  13.675 -0.0553  0.2027  0.4078
 4229W        W20490   8.137   4.164   0.524 -0.0751 -0.1466 -0.0615
 4230W        W20491   7.954   9.142   4.689 -0.1306 -0.0162  0.1626
 4231W        W20492  11.629   3.302  12.419  0.1771 -0.2976 -0.2623
 4232W        W20493   1.721   0.136   3.503  0.0613 -0.0013  0.0433
 4233W        W20494  16.707   2.053   1.280 -0.0108 -0.2116  0.0376
 4234W        W20495  16.018  15.373  14.241  0.0804 -0.0733  0.0278
 4235W        W20496   1.591   8.637  13.261  0.3608  0.0036 -0.0052
 4236W        W20497  12.191   1.581  15.376  0.1780  0.0553  0.0764
 4237W        W20498   7.899  14.994   0.757  0.0220  0.0619 -0.2113
 4238W        W20499   4.178   1.077  12.738 -0.4171 -0.2746 -0.3257
 4239W        W20500  18.023  17.546   1.114 -0.1741  0.0971 -0.0387
 4240W        W20501   7.228   0.976   0.893 -0.3664  0.0494 -0.2385
 4241W        W20502   2.324   4.939   4.748 -0.0055 -0.5067 -0.0112
 4242W        W20503   7.464  15.009  13.325  0.0222  0.2238 -0.0865
 4243W        W20504  14.891  18.486  12.928  0.2792 -0.0809  0.1090
 4244W        W20505  15.919   8.072   4.338  0.0464  0.1372  0.0207
 4245W        W20506   7.329   3.007  13.962  0.0855  0.0546 -0.4581
 4246W        W20507   3.372   8.323  12.620  0.0160 -0.3749 -0.2554
 4247W        W20508   5.663   2.819   2.704 -0.0335  0.3079  0.4148
 4248W        W20509   9.511   7.037  12.770 -0.0904  0.0194  0.1327
 4249W        W20510  18.070   6.762   2.603  0.1570 -0.1811  0.1578
 4250W        W20511   4.633   5.042   6.032 -0.1875  0.2191  0.0419
 4251W        W20512  11.592   6.069   1.275  0.2518 -0.3446  0.1222
 4252W        W20513  10.325   9.639   2.856 -0.1347 -0.2183 -0.2439
 4253W        W20514  12.697   4.216  12.740  0.0558 -0.3150  0.2830
 4254W        W20515  17.016   9.474  13.400  0.2409 -0.2699 -0.1010
 4255W        W20516  11.558  10.709  12.503 -0.2898  0.0494  0.0649
 4256W        W20517  11.617   8.807  12.690  0.2162  0.1522 -0.0283
 4257W        W20518  10.445   7.415  12.920  0.2955  0.1538  0.2031
 4258W        W20519  11.740   2.756  13.906 -0.1387 -0.1388  0.3088
 4259W        W20520  10.708  10.229   0.200  0.1360  0.2388 -0.0766
 4260W        W20521  11.187   0.529  11.231  0.3577 -0.1032  0.2439
 4261W        W20522   5.101   9.011   5.929  0.0705  0.0177 -0.0651
 4262W        W20523  14.489   6.209  11.545  0.1197  0.2386  0.0917
 4263W        W20524   3.243  11.236   0.095  0.2702  0.1419  0.0562
 4264W        W20525   8.861  14.877   0.773  0.0717 -0.2337  0.1109
 4265W        W20526   2.574  12.637  14.651 -0.2714  0.0389 -0.0606
 4266W        W20527   4.749   6.624   1.704 -0.1560 -0.2598  0.2040
 4267W        W20528  14.317   3.504   4.925  0.3661  0.1687  0.0247
 4268W        W20529   1.753  13.422   2.032  0.1900 -0.2958  0.2251
 4269W        W20530   6.833   2.481   1.681 -0.0890  0.0238  0.2072
 4270W        W20531   3.880   6.007   2.122  0.0713 -0.4645 -0.1255
 4271W        W20532  15.982  18.114  11.461 -0.2311  0.0682 -0.4139
 4272W        W20533  11.017   4.071   0.595  0.3463 -0.3369 -0.1036
 4273W        W20534   9.763  18.690  15.192 -0.3397 -0.1194 -0.2205
 4274W        W20535   4.880  10.229  11.437 -0.1626  0.0677  0.1032
 4275W        W20536   7.031  13.661  11.539  0.0465  0.1601  0.0197
 4276W        W20537   3.138   2.122  14.773 -0.2304 -0.2289  0.0216
 4277W        W20538  11.389  15.113  15.079 -0.1037  0.2910  0.3544
 4278W        W20539  16.890   9.932   2.558  0.0681 -0.0080  0.0711
 4279W        W20540   3.181  11.268  12.149  0.1439  0.1516 -0.1332
 4280W        W20541  16.710  14.244  14.520 -0.0182 -0.0080  0.1167
 4281W        W20542   6.562  17.459  14.652 -0.0671 -0.0774  0.0059
 4282W        W20543  10.256   7.300  12.440  0.0609  0.0513  0.1172
 4283W        W20544  17.376   2.337  12.642 -0.0772  0.1947 -0.0898
 4284W        W20545   0.256   6.296   4.853  0.2830  0.0426  0.2412
 4285W        W20546  11.066   3.350  13.173 -0.1151  0.0092  0.1352
 4286W        W20547   0.943  18.471   4.107 -0.1611 -0.0164 -0.0278
 4287W        W20548  16.798   2.565  12.355 -0.0650  0.0857 -0.0738
 4288W        W20549  11.619  15.488  11.398 -0.1392 -0.2286 -0.0259
 4289W        W20550   0.102  15.169   2.752 -0.1946  0.1794 -0.0484
 4290W        W20551  17.313   4.455  11.888  0.3474 -0.1453  0.3913
 4291W        W20552   8.976   1.940   2.528 -0.3428 -0.0604 -0.1668
 4292W        W20553  15.937   7.099   4.369 -0.2558 -0.2400  0.0583
 4293W        W20554   0.794   3.180   0.752  0.4479  0.2518 -0.2382
 4294W        W20555   4.556  17.864   4.308 -0.1158  0.2250  0.4565
 4295W        W20556  15.161   1.981   1.020 -0.0841  0.0699  0.0568
 4296W        W20557   5.585  13.498  14.384 -0.1702 -0.0292 -0.1238
 4297W        W20558   6.481  13.392  14.797  0.1100  0.2908 -0.1975
 4298W        W20559  14.154   4.303  14.591 -0.0014 -0.1934  0.0904
 4299W        W20560   6.597  10.310  13.449  0.1520  0.2539  0.0312
 4300W        W20561  18.263   5.017  10.707  0.5397  0.0769 -0.3747
 4301W        W20562  17.117   5.952   5.580 -0.2468 -0.2481  0.1291
 4302W        W20563   3.140  15.410  12.246  0.1434  0.2421 -0.1808
 4303W        W20564  18.230  18.144   0.480 -0.3119  0.0928 -0.0485
 4304W        W20565   9.149   6.812   0.651 -0.1276  0.0753 -0.1183
 4305W        W20566  15.773  16.847  12.139  0.1315  0.2056  0.1285
 4306W        W20567  16.589   5.740  11.797 -0.1416  0.1805  0.1048
 4307W        W20568   9.433  18.740   2.561 -0.3264 -0.2355  0.0097
 4308W        W20569  17.451  16.047  13.559 -0.0328 -0.1718  0.0137
 4309W        W20570   7.190   8.764   2.176  0.1723  0.1463  0.2074
 4310W        W20571  15.210   3.686   4.483  0.0728 -0.1829  0.1998
 4311W        W20572   6.686   0.383  14.239 -0.0433 -0.0430  0.0619
 4312W        W20573  18.367   6.705  13.848  0.1461 -0.0115  0.4382
 4313W        W20574   8.734  14.337  12.702  0.0463  0.0014  0.2596
 4314W        W20575   1.910  13.624  13.980  0.0167 -0.0514 -0.2265
 4315W        W20576   5.501  11.206   2.146  0.0141  0.2120  0.0677
 4316W        W20577   5.262  12.022   2.206 -0.0504 -0.0725  0.1688
 4317W        W20578   9.444  15.437   4.085  0.1116 -0.1518  0.1268
 4318W        W20579  18.258  17.040   2.462  0.2128 -0.1209 -0.1702
 4319W        W20580  13.902   9.849  11.936  0.1043 -0.0222 -0.0219
 4320W        W20581  10.730  13.358   1.790  0.0059  0.2093 -0.1660
 4321W        W20582   2.137  16.901  14.727  0.0445 -0.1275 -0.0108
 4322W        W20583   3.049   1.089   5.244  0.3249 -0.1106 -0.1349
 4323W        W20584   7.759  17.097   5.005  0.0331 -0.0735 -0.2077
 4324W        W20585  16.256   0.880   4.755  0.2768 -0.0808  0.1542
 4325W        W20586   0.439   3.500  14.501  0.0408 -0.1061 -0.0569
 4326W        W20587   4.591  15.380  11.075  0.2157  0.0121 -0.0792
 4327W        W20588   8.338  13.580   5.023  0.1656 -0.5080  0.2754
 4328W        W20589  16.757   3.735   4.993  0.2316  0.0222 -0.3410
 4329W        W20590   8.200  17.409  13.950  0.2028 -0.3799 -0.0410
 4330W        W20591  11.193   7.705   1.067  0.1643  0.0339 -0.1837
 4331W        W20592   9.303   8.541   1.925 -0.0394  0.0302 -0.0220
 4332W        W20593   3.236  16.393   2.544  0.2959 -0.3733 -0.2357
 4333W        W20594   3.741   9.562  14.744  0.1317  0.0473 -0.1675
 4334W        W20595  10.440  10.652  12.733  0.2433  0.5870 -0.0235
 4335W        W20596  17.370  13.084  12.387  0.1085  0.0715  0.0451
 4336W        W20597  15.604   4.737   0.772 -0.1833 -0.1152  0.0013
 4337W        W20598   8.008   5.226   2.634 -0.1700  0.1580  0.1269
 4338W        W20599   2.020   4.851   2.852  0.0188 -0.2786 -0.2087
 4339W        W20600   9.889  13.998   1.268 -0.0245 -0.0194  0.0864
 4340W        W20601   1.399   4.321  10.625 -0.0658 -0.1234 -0.1108
 4341W        W20602  17.606   7.429  14.731  0.1375 -0.0676 -0.2500
 4342W        W20603   0.918  14.418  13.654 -0.1707  0.3809  0.0111
 4343W        W20604   4.549  13.909   5.246  0.2860  0.4563  0.1827
 4344W        W20605  14.970   4.464  11.906 -0.0902  0.0015  0.4746
 4345W        W20606  13.022  10.504   4.444  0.2547 -0.2724  0.1594
 4346W        W20607  12.854  16.239  12.395  0.3001  0.2991  0.3751
 4347W        W20608   6.698   7.133  12.995  0.1033 -0.0253 -0.3473
 4348W        W20609  12.848   8.009  14.271 -0.1679  0.0220 -0.1627
 4349W        W20610   5.080   6.028  14.948 -0.3872  0.1530 -0.3522
 4350W        W20611  13.300   5.924  12.440 -0.0790 -0.0179 -0.2234
 4351W        W20612   6.478  10.908  12.655  0.1800  0.1639 -0.1876
 4352W        W20613   4.098   8.708  12.118  0.0257  0.2958 -0.0049
 4353W        W20614   2.004   9.363   3.187 -0.0066  0.4957 -0.4564
 4354W        W20615  17.090   5.238   4.194 -0.0951  0.0041 -0.3064
 4355W        W20616  12.713  15.705   3.774  0.0368  0.1969 -0.5285
 4356W        W20617   8.533   9.199   2.013 -0.4994  0.2992 -0.2283
 4357W        W20618  11.647   2.589   3.632  0.2508 -0.2166 -0.0676
 4358W        W20619   0.205   8.231  10.725  0.0911  0.2878  0.1665
 4359W        W20620   2.117   0.607  11.916 -0.0889  0.2379 -0.1711
 4360W        W20621  13.152   0.825   0.236 -0.2227  0.1621  0.0991
 4361W        W20622   6.306   2.080   3.389  0.2585 -0.3292  0.1257
 4362W        W20623   4.753   0.911  12.094  0.1533  0.1343  0.0252
 4363W        W20624  13.499  14.292   3.251 -0.1121 -0.3575  0.4375
 4364W        W20625   7.346   6.654   1.476  0.0299  0.0063 -0.0700
 4365W        W20626  15.729   8.994  11.939  0.1501  0.0833 -0.1237
 4366W        W20627   3.466   6.648   0.474  0.0357 -0.2100 -0.3562
 4367W        W20628   7.437  16.938   3.710 -0.0468 -0.0216  0.3333
 4368W        W20629  16.350  12.894   2.816  0.2894 -0.5853 -0.0817
 4369W        W20630  15.169  15.244  15.172  0.1939  0.1663  0.1262
 4370W        W20631   7.084  10.095  13.404 -0.3913 -0.0599 -0.0191
 4371W        W20632  10.857  10.888  13.937  0.1980  0.2006 -0.0442
 4372W        W20633   3.492  11.947   3.037 -0.1348  0.0257 -0.0884
 4373W        W20634   9.222   3.817   2.798 -0.1281 -0.2128  0.2061
 4374W        W20635   8.686  16.057  14.231 -0.1990  0.3007 -0.1188
 4375W        W20636   5.900   3.653  15.288 -0.1215  0.3451 -0.0359
 4376W        W20637   0.281  16.776   1.771 -0.4535 -0.2687 -0.1786
 4377W        W20638   4.667   0.535   2.083 -0.1249  0.1095 -0.0898
 4378W        W20639   3.063  15.741  11.404 -0.1666  0.2903  0.0613
 4379W        W20640  14.544  16.654   4.928 -0.0907 -0.1214 -0.0289
 4380W        W20641   1.191   8.033   4.998 -0.2494  0.0684  0.4372
 4381W        W20642   0.811  17.566   3.386  0.1938  0.0721 -0.0263
 4382W        W20643   4.612   1.845   4.149  0.3892  0.3607 -0.2143
 4383W        W20644  13.238  12.298  15.355 -0.2614 -0.1037  0.0268
 4384W        W20645  12.020   2.730   1.656  0.2597 -0.1831 -0.0561
 4385W        W20646   4.089   5.549   5.461 -0.0358 -0.0709  0.1555
 4386W        W20647  10.184   7.662   5.650 -0.2555 -0.1329  0.1331
 4387W        W20648   2.872   1.339   1.148 -0.0866  0.2716  0.1904
 4388W        W20649   7.265  11.415  11.837  0.1113  0.0419  0.2400
 4389W        W20650   9.670  17.579  14.952  0.0995  0.0382 -0.0161
 4390W        W20651  18.694  14.102   4.925  0.0427  0.0217 -0.0010
 4391W        W20652   3.602  17.490  12.539  0.2690  0.1085 -0.0123
 4392W        W20653  13.016   5.777   2.511 -0.1790  0.0238  0.0766
 4393W        W20654   4.516   4.920  13.304 -0.0033  0.4269  0.0257
 4394W        W20655   3.051   2.681  13.490  0.1920  0.3822  0.0734
 4395W        W20656   5.609  18.586   0.298 -0.0548 -0.1897 -0.2899
 4396W        W20657   3.738  13.345  14.222 -0.5137  0.0679 -0.0421
 4397W        W20658   4.092  12.926  15.640 -0.0074  0.0759  0.2474
 4398W        W20659  17.292   3.899  15.574  0.3691  0.1381  0.3283
 4399W        W20660   0.189   0.403  11.949 -0.2544 -0.2823  0.0427
 4400W        W20661   2.613   4.280   4.412 -0.0575 -0.2672 -0.0831
 4401W        W20662   0.724  18.780   1.284 -0.0171  0.0237  0.3785
 4402W        W20663  18.630  17.346  15.499  0.2671  0.2748  0.1481
 4403W        W20664   4.648   2.654   2.546  0.0223  0.0920  0.4074
 4404W        W20665   1.374   7.072  12.779 -0.0718 -0.0439 -0.3682
 4405W        W20666   1.539  14.769  12.562 -0.1358 -0.0114  0.3058
 4406W        W20667   3.725   6.396   0.900  0.1498 -0.1032  0.2468
 4407W        W20668  15.677   8.848   0.326  0.0554 -0.4324 -0.4636
 4408W        W20669   4.248  14.579   5.869  0.2126  0.1015 -0.1015
 4409W        W20670   8.960   3.517   3.730  0.0580  0.4457  0.0876
 4410W        W20671  11.054   9.398   0.696 -0.0820  0.0706 -0.1740
 4411W        W20672   6.013   5.146  12.080  0.2864 -0.1668 -0.1499
 4412W        W20673   5.894   8.360  13.822  0.1584 -0.0565 -0.1982
 4413W        W20674  16.271   4.640  12.014  0.2099  0.1509 -0.1320
 4414W        W20675  18.503   9.539   3.137 -0.3175 -0.0124 -0.0541
 4415W        W20676   1.251  12.509  12.441  0.1072 -0.0100  0.0559
 4416W        W20677  14.765  17.831  12.016  0.0756  0.2499 -0.1717
 4417W        W20678  11.667  11.189  13.263 -0.0126  0.1333 -0.1807
 4418W        W20679  13.398   5.852   3.123  0.3291  0.0704 -0.1469
 4419W        W20680   9.591   0.371  13.452  0.2560 -0.0452 -0.3044
 4420W        W20681   9.472  18.501  11.679  0.1290  0.1199 -0.1152
 4421W        W20682   8.429   0.958   3.672  0.0834  0.0829  0.2491
 4422W        W20683  13.864  11.348   2.700  0.0262 -0.1584 -0.1799
 4423W        W20684  14.864  18.020   2.313 -0.1649 -0.1293  0.1842
 4424W        W20685   5.746   6.734   1.599  0.1587  0.2585 -0.0691
 4425W        W20686   7.575   1.611  14.081  0.1786 -0.3266  0.0019
 4426W        W20687   7.636   1.814  15.390  0.4605 -0.0617  0.2023
 4427W        W20688  14.518  14.067   2.493  0.3085  0.0940  0.1493
 4428W        W20689   3.770  14.115   4.226 -0.1165 -0.0017  0.0652
 4429W        W20690  14.460   7.943  15.547 -0.0620  0.1413 -0.1413
 4430W        W20691   5.344  16.352   4.775 -0.0995 -0.0591  0.0331
 4431W        W20692  14.846   1.166   0.688  0.1704 -0.4081 -0.1288
 4432W        W20693   2.457  18.508   3.812 -0.0939  0.1447 -0.0794
 4433W        W20694  12.568   3.213   5.089  0.0383  0.1687  0.0110
 4434W        W20695   2.313   3.572   2.800 -0.0609 -0.0968 -0.1360
 4435W        W20696  11.947   8.201   3.391  0.0010 -0.3583 -0.2196
 4436W        W20697  16.002   1.109  11.492 -0.1771  0.1299 -0.0596
 4437W        W20698  10.557   3.606  11.998  0.0535  0.3185  0.2224
 4438W        W20699   7.427   5.780   4.711 -0.1156 -0.1179 -0.1511
 4439W        W20700  17.631   0.303   2.696 -0.2816 -0.4836  0.2231
 4440W        W20701  14.840  17.648  14.906 -0.0084  0.3530  0.2265
 4441W        W20702  17.890   3.939   2.008  0.2041  0.0114 -0.2860
 4442W        W20703   8.972  14.010   5.078 -0.2279  0.2939 -0.2974
 4443W        W20704  18.180  12.965   0.462  0.0089  0.1574  0.1467
 4444W        W20705   9.833  10.041   2.924 -0.0652 -0.0939  0.0501
 4445W        W20706   5.995  13.947   1.048 -0.1295  0.0968  0.2697
 4446W        W20707   3.393  10.754  10.198 -0.4389 -0.1057 -0.0984
 4447W        W20708  17.358  16.951  10.651  0.0322 -0.3818 -0.0907
 4448W        W20709   7.687  12.080   0.299  0.1566 -0.2147 -0.0302
 4449W        W20710  13.417   6.372   3.099 -0.1698  0.4277  0.0646
 4450W        W20711  17.834  17.923   1.596 -0.0917  0.1861  0.0488
 4451W        W20712  10.702  11.603  12.082 -0.2417 -0.0263 -0.0930
 4452W        W20713   1.192  17.079   9.865 -0.0284 -0.1471 -0.0261
 4453W        W20714   2.742   1.086  14.849  0.0162  0.0326 -0.1404
 4454W        W20715  16.077   8.994  14.310  0.1273 -0.0452  0.2645
 4455W        W20716   6.353  17.297   0.365 -0.1459  0.1471  0.3736
 4456W        W20717  10.963   7.989   0.343  0.1907  0.1163  0.1197
 4457W        W20718   5.721  17.200   2.684  0.0099  0.0513 -0.2418
 4458W        W20719   0.427   0.178   3.932  0.0007 -0.1036  0.1584
 4459W        W20720   0.196  14.718   3.632  0.4144  0.1533  0.3022
 4460W        W20721   0.893   6.915   0.913  0.1471  0.1418 -0.2308
 4461W        W20722   4.089   1.281  14.362 -0.0986  0.1551  0.1731
 4462W        W20723  10.800  10.047  14.985  0.1450  0.1043  0.0435
 4463W        W20724   3.364  17.110  15.634 -0.0854  0.0846  0.1214
 4464W        W20725   1.045  11.485  12.543  0.1667  0.0076 -0.0214
 4465W        W20726  12.990  14.025   1.939 -0.0035  0.5981  0.0202
 4466W        W20727  15.478   3.356  13.281  0.2250 -0.0291  0.1330
 4467W        W20728  18.149   7.826  12.936 -0.1341  0.2088 -0.0056
 4468W        W20729  13.009  15.588  14.432  0.1362 -0.0148  0.1511
 4469W        W20730   3.782  12.869  13.353  0.1390 -0.1060 -0.0876
 4470W        W20731  15.242   4.331   4.611 -0.1607  0.0501  0.0359
 4471W        W20732  17.086   3.980   0.940 -0.1149  0.2250 -0.0494
 4472W        W20733  18.614   1.569  11.235  0.0492  0.1909  0.3420
 4473W        W20734   2.031   8.861  12.660  0.0790  0.0114  0.1563
 4474W        W20735   7.403   9.326  13.184 -0.0444  0.1365 -0.2151
 4475W        W20736   3.261   9.612   4.141 -0.0102  0.1590  0.0869
 4476W        W20737   3.282  13.426  13.975 -0.1628 -0.0993 -0.0385
 4477W        W20738  12.979  17.065  11.344  0.1112 -0.2370  0.1317
 4478W        W20739   8.591  16.897  11.568 -0.2536  0.1924 -0.2248
 4479W        W20740  17.007  12.699  11.247 -0.0802  0.2015 -0.0468
 4480W        W20741  18.232  12.497   5.076  0.1366 -0.0769 -0.2523
 4481W        W20742   2.134   9.522   0.768  0.1497  0.1884  0.0254
 4482W        W20743   3.949   6.990   4.565  0.2917 -0.2403  0.1352
 4483W        W20744   0.501  10.853   3.006  0.0087  0.0843  0.1254
 4484W        W20745  13.526   6.454  12.555  0.0222 -0.0218  0.2449
 4485W        W20746   5.311   7.625   2.949 -0.1138 -0.2024  0.0295
 4486W        W20747   1.005  15.658  13.896  0.0592  0.2010 -0.2844
 4487W        W20748   0.895   7.787   0.594  0.0092  0.1000  0.3725
 4488W        W20749  11.550   1.916  11.385 -0.1239 -0.2344  0.0683
 4489W        W20750   3.462  14.084  14.538  0.0178 -0.0680 -0.0726
 4490W        W20751   9.473   1.529  13.761 -0.0543  0.1420  0.0323
 4491W        W20752   0.307   1.431   0.018  0.2999  0.0470  0.0280
 4492W        W20753  12.718  14.501   2.829  0.0459  0.0964 -0.0679
 4493W        W20754  16.355   7.209  11.706  0.2985 -0.0383  0.0450
 4494W        W20755  15.567   4.967  14.315 -0.3293  0.3914  0.0233
 4495W        W20756  13.504  16.654  11.917  0.0987  0.0421 -0.0016
 4496W        W20757   4.545   6.915  11.841 -0.3655 -0.2155 -0.2089
 4497W        W20758   0.978  17.315  14.784  0.1221 -0.5422  0.0781
 4498W        W20759   5.548  14.665   0.720 -0.0883 -0.1308  0.2027
 4499W        W20760  14.781   0.660   0.810  0.1744  0.0255 -0.1050
 4500W        W20761  14.458  15.273   3.759  0.1327 -0.0511  0.1351
 4501W        W20762   6.272   9.321   1.318 -0.1487  0.0333  0.0267
 4502W        W20763  14.141  10.712  12.465 -0.1184 -0.1172 -0.1726
 4503W        W20764   0.964  17.673  11.733  0.3574  0.0862 -0.0012
 4504W        W20765   8.034  16.555   2.471  0.2362 -0.1194  0.2894
 4505W        W20766  12.116   7.770  14.830 -0.2942  0.0547  0.0694
 4506W        W20767   4.252   9.597  11.189 -0.1916 -0.0938 -0.0562
 4507W        W20768   4.046   2.649   0.903  0.3620 -0.2059 -0.4069
 4508W        W20769  11.240   2.021  12.553  0.2374 -0.2244  0.0062
 4509W        W20770   3.292  10.254   0.976 -0.4004 -0.2665  0.3897
 4510W        W20771  14.739  17.889   1.707  0.2053 -0.0137  0.1998
 4511W        W20772  14.359  14.725   3.617 -0.1341  0.3494 -0.2942
 4512W        W20773  10.585   6.424   4.729  0.0238 -0.3283 -0.0081
 4513W        W20774  13.537   5.420  15.414 -0.1240 -0.3823  0.0839
 4514W        W20775  11.682   3.940   3.630  0.1255  0.2405  0.1645
 4515W        W20776   8.052  14.031  13.140  0.3149  0.2339 -0.2807
 4516W        W20777  18.169   5.601  12.765 -0.1637  0.1549 -0.0603
 4517W        W20778   5.383   4.025   2.477 -0.0966  0.3189  0.1530
 4518W        W20779  12.570   6.265  13.731 -0.1289  0.0386 -0.2931
 4519W        W20780  17.820   0.352  12.712 -0.0113  0.0058 -0.0115
 4520W        W20781   7.014  15.360  15.086  0.0245  0.0073 -0.2039
 4521W        W20782   9.458  18.507   1.988 -0.0244  0.0094 -0.1194
 4522W        W20783   6.201  18.537   1.631 -0.0732 -0.2364 -0.2688
 4523W        W20784  14.383  15.698  14.722 -0.0973 -0.2637  0.0385
 4524W        W20785  16.476  10.439  15.434  0.3520 -0.2054  0.4571
 4525W        W20786   6.395   1.556   5.411 -0.0059 -0.0823  0.4801
 4526W        W20787  12.985  15.077  13.404 -0.2522 -0.0485  0.0875
 4527W        W20788  11.507  16.945   5.673 -0.1427  0.1320 -0.2869
 4528W        W20789  12.437   2.384   2.525  0.1512 -0.2327 -0.0446
 4529W        W20790  16.971   4.482  13.345 -0.1656  0.0438 -0.0996
 4530W        W20791   2.205   5.609   5.290 -0.2929  0.2051 -0.0305
 4531W        W20792   2.708  16.656   4.189 -0.0995 -0.0309 -0.2467
 4532W        W20793   4.880  11.574   1.994 -0.1003 -0.0013 -0.1046
 4533W        W20794  14.913  13.869  12.395  0.0984 -0.0038 -0.0626
 4534W        W20795   0.544   4.927   4.746  0.1577  0.0897 -0.2180
 4535W        W20796  13.760   8.070  12.179 -0.2195 -0.0110  0.1670
 4536W        W20797   0.794  11.831  13.953  0.0616  0.0843 -0.1817
 4537W        W20798   2.491   2.148   3.265 -0.1672 -0.0314 -0.0405
 4538W        W20799   3.352  13.153  14.821  0.2574 -0.1343 -0.3857
 4539W        W20800  17.524  18.331  14.590 -0.1973  0.0777 -0.0406
 4540W        W20801  18.248   3.077   3.710  0.2273  0.1046  0.1637
 4541W        W20802   5.739   3.845  11.581  0.0920  0.4534 -0.0264
 4542W        W20803   6.858   9.198  15.255 -0.1152  0.2921  0.1148
 4543W        W20804  13.450  16.807   0.434  0.0747 -0.0684  0.2821
 4544W        W20805   5.800  18.481  13.038 -0.1257 -0.0636 -0.1417
 4545W        W20806   2.719   2.425   1.424 -0.1131  0.2998  0.0980
 4546W        W20807  17.336  13.076   3.532 -0.4806 -0.0337 -0.1379
 4547W        W20808   2.121  15.464  11.303 -0.2779 -0.0124  0.0294
 4548W        W20809   3.211   7.118   0.447 -0.2571  0.0198 -0.1512
 4549W        W20810   0.412   7.463   5.640 -0.3949  0.3061 -0.1311
 4550W        W20811  11.648   2.629  14.814  0.2462  0.1268  0.1821
 4551W        W20812   7.905   2.495   5.556  0.0519  0.1320 -0.0293
 4552W        W20813  15.283   7.756  11.083 -0.1905 -0.0519  0.2220
 4553W        W20814   1.054  11.693  11.914  0.0319 -0.0037  0.1031
 4554W        W20815  11.138   0.742  12.590  0.0482 -0.1912 -0.1707
 4555W        W20816   8.618   0.611   4.103  0.0311 -0.0013  0.0448
 4556W        W20817  17.321  11.447  13.593  0.1972  0.1440 -0.1649
 4557W        W20818  12.313  12.465   2.380  0.2411 -0.2577  0.2627
 4558W        W20819  13.524  13.945   2.852 -0.0733  0.1817  0.4097
 4559W        W20820  14.511   9.033   5.882 -0.0202  0.0185 -0.4586
 4560W        W20821  12.224  11.914  11.667 -0.2543  0.1541  0.0378
 4561W        W20822  13.174  12.490  13.207  0.0855  0.2707  0.3962
 4562W        W20823  10.463  10.157  12.548 -0.0111 -0.2703  0.0390
 4563W        W20824  11.346  15.470  14.626 -0.0113  0.0359 -0.1337
 4564W        W20825   7.689   5.866   5.868  0.1935  0.0393 -0.1822
 4565W        W20826  11.092  13.364  13.426 -0.0025  0.2396  0.0925
 4566W        W20827  16.698  17.363  13.673  0.2599 -0.1339  0.2334
 4567W        W20828   3.362   2.323  12.519  0.1636  0.0124  0.0463
 4568W        W20829   1.727   5.212   2.852 -0.3416  0.2269 -0.0469
 4569W        W20830  14.265  15.838  14.153 -0.0810 -0.0401  0.3292
 4570W        W20831  16.580   6.108   4.021 -0.2219  0.0780  0.3571
 4571W        W20832  18.770  10.415  11.193 -0.0359 -0.1410 -0.0983
 4572W        W20833  14.932   7.417  12.016 -0.4261 -0.0198  0.3439
 4573W        W20834  10.503   7.928   6.057  0.0365  0.1361 -0.0264
 4574W        W20835   8.501   3.413   2.477 -0.0509 -0.0818  0.1782
 4575W        W20836  10.949  17.103  10.492  0.1376  0.2756 -0.1591
 4576W        W20837   2.938   7.638   0.193  0.1558 -0.2087 -0.0910
 4577W        W20838   6.009   9.260   2.618 -0.3913  0.2381 -0.1948
 4578W        W20839  16.481   3.951   4.330 -0.2722 -0.0888  0.1460
 4579W        W20840  12.175  15.804   9.536  0.3499 -0.0759 -0.3533
 4580W        W20841  16.855  13.285  15.410 -0.1001 -0.1683 -0.0899
 4581W        W20842  13.459   4.733  13.068 -0.0052  0.2460  0.5107
 4582W        W20843  14.193   7.091   4.285  0.2527 -0.0317  0.3524
 4583W        W20844   4.746  17.545   5.058 -0.3809 -0.0779 -0.2649
 4584W        W20845  18.490  14.454   4.565 -0.0295  0.0227  0.3396
 4585W        W20846  16.237   3.739   9.513 -0.1106 -0.2437  0.2248
 4586W        W20847   5.638  12.748   4.877  0.1369 -0.1764  0.0867
 4587W        W20848   9.618  16.406   3.777 -0.0181 -0.0313 -0.1382
 4588W        W20849  16.015  16.195   3.524 -0.0298  0.2185  0.2686
 4589W        W20850  17.802  11.063   1.621 -0.2053 -0.2930 -0.0730
 4590W        W20851   7.791  17.513  11.599 -0.0784 -0.0489 -0.0771
 4591W        W20852  10.939  14.436  12.338 -0.3477  0.0781 -0.0589
 4592W        W20853   9.541  15.168  13.431 -0.0869 -0.1936 -0.1636
 4593W        W20854   1.694  10.494  11.570 -0.2597  0.0896 -0.0941
 4594W        W20855  18.209  18.240   1.683 -0.1694 -0.3873  0.1751
 4595W        W20856   1.736  12.730  14.702 -0.0930  0.2146  0.4826
 4596W        W20857   3.868  14.409  10.774 -0.1841  0.0734 -0.0125
 4597W        W20858   7.023  10.962   0.579  0.1660  0.3500  0.4322
 4598W        W20859  11.043  11.640   4.616 -0.4177  0.3488 -0.0988
 4599W        W20860  18.189  15.453  12.351  0.2153  0.2320  0.1409
 4600W        W20861  17.584   8.175  13.642  0.0904  0.2601  0.0830
 4601W        W20862  16.360  16.776   0.494 -0.1337 -0.0248  0.3548
 4602W        W20863   1.164  13.166  13.996 -0.1161 -0.1289 -0.1557
 4603W        W20864   4.990   7.261  10.986  0.0676  0.0861  0.1289
 4604W        W20865   0.152  17.439  11.170 -0.0167  0.4671 -0.1426
 4605W        W20866   4.369   6.358   1.496 -0.0160  0.1676  0.0941
 4606W        W20867  10.873   1.204   1.495  0.1376 -0.2314 -0.1610
 4607W        W20868  13.175  13.437  10.860  0.1290  0.2764  0.1005
 4608W        W20869   3.118   9.743  10.566  0.3470 -0.1175  0.2682
 4609W        W20870   7.460  13.860  14.462 -0.3845 -0.2063  0.1370
 4610W        W20871   0.083  18.169  15.175  0.2190 -0.0174 -0.1172
 4611W        W20872  17.517  16.167   2.332 -0.1417 -0.0512 -0.0518
 4612W        W20873  16.479  10.123  13.006  0.1949  0.1297 -0.2066
 4613W        W20874   2.029   2.264   2.992 -0.1610  0.0957  0.0111
 4614W        W20875   3.709  13.193   2.980  0.2189  0.1587  0.0071
 4615W        W20876   7.053  15.143   3.995  0.0524 -0.2471 -0.1823
 4616W        W20877  11.844   4.755   4.074 -0.0766  0.1030 -0.1576
 4617W        W20878   5.511  11.804  12.354 -0.1492  0.2182 -0.1362
 4618W        W20879   8.275  18.418   1.273 -0.1059 -0.0775 -0.2928
 4619W        W20880   6.507   0.896  14.219  0.0070  0.1363 -0.1320
 4620W        W20881  13.217  11.310   4.277  0.1214 -0.2742 -0.0287
 4621W        W20882  12.341   0.946  11.912 -0.0543 -0.3123 -0.1536
 4622W        W20883  16.665   3.209   4.910  0.0667  0.2052  0.1929
 4623W        W20884   1.811   0.693   1.538  0.0706 -0.0393 -0.0597
 4624W        W20885   6.354  18.209   3.413  0.0757  0.0236  0.0150
 4625W        W20886  17.354  13.529   4.464 -0.1293  0.3561 -0.0178
 4626W        W20887  14.974   4.245  14.125  0.3017 -0.0369 -0.1382
 4627W        W20888   9.334   0.827  12.358 -0.0968  0.1011 -0.0602
 4628W        W20889   3.099  15.865   5.824  0.0226 -0.0142 -0.0350
 4629W        W20890   9.620   6.497   4.735  0.0680 -0.0992  0.2166
 4630W        W20891  11.597  12.382  11.203  0.0533  0.0744  0.2143
 4631W        W20892   7.177   9.590  13.622  0.3487 -0.1384  0.1395
 4632W        W20893   2.254  12.067  10.480  0.0729  0.1625 -0.0059
 4633W        W20894   5.654  18.432   2.461  0.0587 -0.1318  0.4566
 4634W        W20895  18.787   6.924  10.507 -0.1663  0.1848 -0.0214
 4635W        W20896  18.581   1.033  11.163 -0.4589  0.0364 -0.2884
 4636W        W20897   3.106  14.398  14.337  0.2569 -0.2556 -0.0818
 4637W        W20898   2.096   1.740  13.660 -0.4281 -0.2554 -0.2467
 4638W        W20899  12.852  18.495   0.589 -0.0575 -0.1406  0.0778
 4639W        W20900   9.421  16.323  13.628  0.3754 -0.1171 -0.0325
 4640W        W20901  10.761  15.515  11.762 -0.5243  0.1242 -0.0099
 4641W        W20902   9.302  17.212   4.418  0.2276 -0.0198 -0.0146
 4642W        W20903  10.372  14.045   2.170 -0.2030 -0.0496 -0.0256
 4643W        W20904  11.661  14.886   2.199 -0.0725  0.2728 -0.0715
 4644W        W20905   9.322   8.373  13.235  0.1777 -0.2004 -0.1845
 4645W        W20906  11.273   1.411  14.008  0.0953  0.2392  0.0959
 4646W        W20907   5.051   5.552   1.404  0.1900 -0.0563 -0.0184
 4647W        W20908   7.767   8.835  13.908 -0.1604  0.3917 -0.0745
 4648W        W20909   1.257  15.195  13.902  0.1244  0.2678 -0.2518
 4649W        W20910  17.783  11.110   0.593 -0.0058  0.1724  0.0213
 4650W        W20911   9.214  12.597   4.319 -0.0717  0.2057 -0.1045
 4651W        W20912  16.911   6.014   5.020 -0.1324  0.1053  0.2618
 4652W        W20913  17.160   9.939  13.243 -0.3066 -0.0912  0.3497
 4653W        W20914   7.007  16.353   4.300 -0.1363 -0.3056  0.0459
 4654W        W20915   9.134  15.416  11.984  0.1206 -0.2127 -0.0256
 4655W        W20916  14.025   1.921   1.906 -0.1241 -0.0956  0.0405
 4656W        W20917  10.093  14.146   3.983 -0.2139 -0.0795 -0.1915
 4657W        W20918  10.246  15.012  15.314 -0.2854  0.0434  0.3981
 4658W        W20919  10.758   0.297   3.712  0.0627  0.0438  0.0047
 4659W        W20920  12.328   2.799  11.800  0.2142  0.2333 -0.1007
 4660W        W20921   1.802  10.025  11.846 -0.1069  0.0758  0.3618
 4661W        W20922   4.855  10.003   5.649  0.0370  0.4141  0.2809
 4662W        W20923   2.141   4.816  15.619  0.1727  0.1375  0.0583
 4663W        W20924  18.511   1.959  11.468  0.1576 -0.1531 -0.1998
 4664W        W20925   7.796  12.758   1.724  0.0264 -0.1707  0.1874
 4665W        W20926   6.229   4.960  10.720 -0.1038  0.1138  0.0962
 4666W        W20927   8.309   6.932  11.659  0.0668 -0.1860  0.2058
 4667W        W20928  16.804   0.844  11.738 -0.1116  0.0495  0.2329
 4668W        W20929  15.495  17.304   4.302 -0.0378 -0.1399 -0.0806
 4669W        W20930   4.176   5.236  13.065 -0.2543 -0.0116 -0.1122
 4670W        W20931  17.852  16.720   0.946  0.0205  0.0310  0.0027
 4671W        W20932  11.318   6.135   2.770  0.3403 -0.0673  0.0560
 4672W        W20933  18.224   1.920   4.805 -0.3335  0.3701 -0.0979
 4673W        W20934  12.159  16.625  11.644  0.1428 -0.1248  0.0312
 4674W        W20935   3.075  17.432   1.954 -0.2188 -0.1516 -0.1078
 4675W        W20936   3.989  16.017  14.250 -0.2104 -0.0151 -0.1829
 4676W        W20937   1.284  12.331  12.873  0.4474  0.1694 -0.2829
 4677W        W20938   9.029   1.440  15.492 -0.1709  0.0811 -0.2590
 4678W        W20939  11.905   4.685  11.433 -0.0599  0.0501  0.3416
 4679W        W20940   7.176   6.744   0.967  0.0890 -0.0380  0.0462
 4680W        W20941   6.697  15.428   3.113  0.0965 -0.1360  0.3495
 4681W        W20942  16.723   7.502   1.368 -0.0127  0.0321 -0.0064
 4682W        W20943   3.784  13.625   0.470 -0.2721 -0.0256 -0.0449
 4683W        W20944  11.902  12.050  12.562  0.3079 -0.2125  0.1482
 4684W        W20945  18.302   5.331  11.114  0.0523 -0.2503  0.2402
 4685W        W20946  11.511  16.105   1.565 -0.0701 -0.1727 -0.0899
 4686W        W20947   9.710   9.126   1.725  0.4121  0.0704 -0.1648
 4687W        W20948   7.428  14.691  15.056 -0.0955  0.0211 -0.0835
 4688W        W20949   1.484  16.149   0.196 -0.3783 -0.0120 -0.0698
 4689W        W20950   0.106  18.293  11.520  0.0352  0.1999  0.1017
 4690W        W20951  15.564   2.642   0.300  0.0579  0.2752  0.1752
 4691W        W20952   3.241  11.472   3.315  0.2966 -0.0020  0.1115
 4692W        W20953   6.793  14.267   0.939 -0.1634  0.2078  0.0097
 4693W        W20954   5.500  14.055   5.693  0.0950  0.3427 -0.0001
 4694W        W20955   1.410   0.037  10.891  0.0566  0.2308 -0.0935
 4695W        W20956   6.984   6.841   3.398 -0.2899 -0.1291 -0.0568
 4696W        W20957   2.211  14.418  13.759 -0.0331  0.1356  0.0757
 4697W        W20958   9.586  16.223   1.622 -0.1838 -0.4351  0.0147
 4698W        W20959   6.863   8.261   4.648 -0.2686  0.1364  0.0412
 4699W        W20960   6.165  16.244   2.679  0.1014  0.2912  0.1043
 4700W        W20961   7.545  15.343   4.092 -0.0615  0.0677 -0.1161
 4701W        W20962   3.912   2.005   4.787  0.3266 -0.2114 -0.2867
 4702W        W20963  14.797  18.313   1.424 -0.0806  0.1461  0.0159
 4703W        W20964  13.249  17.590  14.969 -0.0791  0.0764  0.0714
 4704W        W20965   1.664  18.662  13.063  0.1239  0.1023 -0.1116
 4705W        W20966  14.606  15.809   2.987 -0.1791 -0.1578  0.0158
 4706W        W20967  13.859  10.624  13.152 -0.0158 -0.1360  0.0089
 4707W        W20968  12.833   0.293  14.740 -0.1776  0.2044 -0.0730
 4708W        W20969   0.817   2.317  13.919 -0.3085  0.3116  0.2328
 4709W        W20970   9.139  12.356  14.903  0.1575 -0.1462  0.0304
 4710W        W20971  14.692  16.816  10.810  0.0440  0.2472 -0.0929
 4711W        W20972  17.098   4.633  14.136  0.0666 -0.1815  0.2741
 4712W        W20973  12.032   6.649  12.811 -0.0705  0.1111 -0.1294
 4713W        W20974   5.024  11.113  13.160 -0.0467  0.1987  0.0336
 4714W        W20975   3.871  15.394   0.239  0.0475  0.0260 -0.0301
 4715W        W20976  13.078  15.583   4.168 -0.2281  0.0659 -0.3130
 4716W        W20977  13.634   1.963   0.898 -0.0433  0.0654 -0.2772
 4717W        W20978   2.694   3.244  14.751  0.1096  0.0536  0.1878
 4718W        W20979  13.234   4.445  14.783  0.1114 -0.0942 -0.0592
 4719W        W20980  12.682   3.119  11.588 -0.0289 -0.3341  0.0793
 4720W        W20981  15.251  13.395  10.875 -0.1539 -0.3460  0.3068
 4721W        W20982   4.317  10.378  13.534  0.1135  0.1675  0.0530
 4722W        W20983   8.650   8.787   5.788 -0.0144 -0.1311  0.2024
 4723W        W20984   5.456  12.857   3.363  0.0340 -0.0235 -0.1005
 4724W        W20985   5.566   9.255  14.967 -0.0361  0.2273 -0.0492
 4725W        W20986   1.755   2.173   3.817  0.1402  0.0206 -0.2459
 4726W        W20987   9.331   0.028  15.062  0.0091 -0.0556 -0.1253
 4727W        W20988   2.901  12.436   0.866  0.1236 -0.0573 -0.1490
 4728W        W20989   4.393  16.123   4.798 -0.2260 -0.2700  0.0605
 4729W        W20990   9.146   0.762  11.885  0.3021 -0.1955  0.1493
 4730W        W20991   8.082  16.968   2.834 -0.0091 -0.2952 -0.3039
 4731W        W20992  11.805   5.203   1.931  0.1829 -0.0303 -0.2714
 4732W        W20993   8.149  12.040  10.008  0.0480  0.0823  0.2178
 4733W        W20994  12.371   1.718   4.274  0.0977 -0.1742  0.0728
 4734W        W20995  16.722   3.848  13.098  0.1149 -0.0980  0.0304
 4735W        W20996  16.536   4.760  10.967  0.1408  0.0715 -0.1465
 4736W        W20997  13.139   4.143   0.713  0.2765 -0.0482  0.0937
 4737W        W20998   2.496   2.480  12.715  0.0543  0.0066 -0.1727
 4738W        W20999  13.819  17.513  10.749 -0.0191 -0.1161  0.1249
 4739W        W21000   4.727  14.496   2.928  0.4542 -0.1335  0.0717
 4740W        W21001   8.629  17.512   1.293  0.0746 -0.0019 -0.3939
 4741W        W21002  12.655  13.415  14.592 -0.0257  0.1038 -0.0821
 4742W        W21003  17.036  12.135  12.195 -0.1126 -0.2135 -0.2706
 4743W        W21004  11.016   1.589  13.101 -0.3378  0.3865  0.1612
 4744W        W21005  12.331   2.847   3.602  0.2938 -0.1123  0.0203
 4745W        W21006  10.213  16.936   4.848  0.1906  0.0830 -0.0225
 4746W        W21007  12.256  10.603   3.875 -0.1165  0.1810 -0.0736
 4747W        W21008  10.584  17.448   3.775 -0.1104 -0.3762  0.2515
 4748W        W21009  18.582  13.683  15.120  0.0716 -0.0116 -0.0511
 4749W        W21010   3.022  11.372  14.628 -0.0487  0.3310 -0.1643
 4750W        W21011   2.536   9.043  10.626 -0.0522  0.1055  0.1226
 4751W        W21012  18.439  15.842  13.641 -0.2404 -0.0038 -0.1879
 4752W        W21013   3.648   4.783  14.493  0.3087 -0.0657  0.4620
 4753W        W21014   6.283   3.073   4.398 -0.1552 -0.3071 -0.2352
 4754W        W21015   3.589   2.460   4.929 -0.2940 -0.0801  0.1310
 4755W        W21016  11.172   6.919  13.379 -0.2507 -0.0414 -0.2206
 4756W        W21017   2.845  15.140  13.765 -0.0884 -0.0517  0.0030
 4757W        W21018   9.398  10.698   3.405 -0.0065 -0.2850  0.1157
 4758W        W21019  12.592  10.059   5.756  0.0746 -0.1349  0.0348
 4759W        W21020   4.314   5.138  12.479 -0.1560 -0.0107 -0.1863
 4760W        W21021  12.565   9.878   0.642 -0.1438  0.2632  0.1349
 4761W        W21022   4.022  17.222  12.478 -0.3421 -0.0864 -0.1484
 4762W        W21023  11.669   2.788   2.242 -0.1002  0.1173 -0.1057
 4763W        W21024  15.541   9.334   4.276  0.3107 -0.2907 -0.1279
 4764W        W21025  18.104   7.734   0.797  0.3188  0.1439 -0.0473
 4765W        W21026   4.354   7.453   4.696  0.0678 -0.0280  0.2408
 4766W        W21027  16.350  12.049   9.697 -0.2781  0.3458  0.1988
 4767W        W21028  14.207  15.772   4.739  0.0805  0.0172 -0.0190
 4768W        W21029   1.422  14.764   1.715 -0.0113  0.0971 -0.2569
 4769W        W21030   9.736  16.146   1.132 -0.1819  0.1833  0.1852
 4770W        W21031   3.428   6.197   4.642 -0.2066 -0.3352 -0.3285
 4771W        W21032   1.438  18.813  12.341  0.0502  0.0556 -0.0623
 4772W        W21033   4.299  17.422   0.407 -0.1858 -0.0217  0.2062
 4773W        W21034   8.320  10.365  10.809 -0.2998  0.0653  0.1118
 4774W        W21035   4.294  14.526  12.344 -0.3564  0.0824  0.2519
 4775W        W21036   7.335  16.185   4.596  0.1043  0.1558  0.2637
 4776W        W21037   4.953   1.292   0.484  0.2833  0.0403 -0.0058
 4777W        W21038  12.727  11.861   2.612 -0.1227  0.2167 -0.0852
 4778W        W21039  15.302   2.300  11.257 -0.0890 -0.2254  0.0815
 4779W        W21040   8.462  10.040  14.248 -0.0675 -0.0518 -0.1850
 4780W        W21041  15.022   8.038  13.858 -0.0421 -0.2832  0.0090
 4781W        W21042   6.410  17.667   0.808 -0.1069 -0.0443 -0.0199
 4782W        W21043   3.967   6.620   1.320  0.1032  0.1357  0.2594
 4783W        W21044   8.718  18.782   3.604  0.1622 -0.2661  0.1574
 4784W        W21045   8.016   2.962   4.749  0.2681  0.1945  0.0817
 4785W        W21046   2.894  12.105   2.638 -0.2583  0.1074 -0.0534
 4786W        W21047   0.680   9.595   0.985 -0.1267  0.1097  0.0183
 4787W        W21048  16.877  15.629  15.210  0.1389  0.0222 -0.1511
 4788W        W21049   0.584   8.498  14.299 -0.1575  0.1995  0.0178
 4789W        W21050  11.618  13.155  15.625  0.1535  0.0817  0.0197
 4790W        W21051   1.042  14.738   5.259  0.0151  0.0544 -0.0374
 4791W        W21052   5.509   1.742  13.416  0.2298  0.0258  0.3142
 4792W        W21053  13.946  10.890  13.691 -0.2475  0.0148  0.3562
 4793W        W21054   4.144   6.990  12.668  0.0817  0.0610  0.1425
 4794W        W21055  13.119  14.707   0.122 -0.0651 -0.1645 -0.0902
 4795W        W21056  13.550   7.904  14.307  0.1880  0.4694  0.2455
 4796W        W21057   0.889  13.765   5.625  0.3483 -0.2910 -0.0786
 4797W        W21058   1.348   6.701   0.897  0.4790  0.2421  0.1096
 4798W        W21059  12.633   8.918   4.730  0.2157 -0.1328 -0.1700
 4799W        W21060  14.968   3.292   2.872  0.2610  0.0464  0.0553
 4800W        W21061   5.498  11.620  14.116 -0.2775 -0.2058  0.1547
 4801W        W21062   3.257   5.261   2.704  0.1688 -0.2642 -0.1401
 4802W        W21063   8.966  14.057  12.191 -0.2563 -0.1501 -0.1014
 4803W        W21064   7.945   3.240  15.355 -0.0495 -0.0393  0.0449
 4804W        W21065  15.807  18.182  15.056 -0.1371 -0.1361  0.2114
 4805W        W21066  14.738   9.320   4.707  0.1525 -0.1172  0.3102
 4806W        W21067   6.249  18.217   3.979  0.0229  0.0669 -0.3099
 4807W        W21068   5.074   8.492  14.408 -0.2765  0.3242  0.1699
 4808W        W21069   3.087   6.669  12.819 -0.1920 -0.2080  0.0281
 4809W        W21070  17.842   0.414  13.819 -0.2958  0.1202  0.2129
 4810W        W21071   6.114  11.121   0.121 -0.0123  0.3379 -0.1597
 4811W        W21072   4.474  11.623  11.193  0.0378 -0.1325 -0.3938
 4812W        W21073  17.816  18.513  15.286  0.3588 -0.0948  0.4228
 4813W        W21074   9.988  18.055   1.063  0.3504 -0.0685 -0.1943
 4814W        W21075   8.943   5.101   2.810 -0.1443  0.1519 -0.2564
 4815W        W21076  12.858  17.780   2.100  0.1047 -0.3927  0.0765
 4816W        W21077   2.700  16.739   3.683 -0.1376 -0.1833 -0.0722
 4817W        W21078   2.443   6.441  13.188 -0.0297  0.0665  0.3188
 4818W        W21079   4.684  13.065  11.106 -0.2771  0.1205  0.0403
 4819W        W21080  18.072  13.144  10.562  0.0204  0.1925 -0.0060
 4820W        W21081  11.366   2.886  15.441  0.0802  0.0747  0.2093
 4821W        W21082  11.859   4.209   0.405 -0.0001 -0.0970 -0.0277
 4822W        W21083   5.472  12.272   5.015  0.4027  0.1993  0.2215
 4823W        W21084  11.370   9.047   3.463 -0.3632 -0.4240  0.0583
 4824W        W21085   8.329   1.029  10.974 -0.1086  0.2113 -0.0502
 4825W        W21086   8.329  11.199  10.465  0.1245  0.3682 -0.2428
 4826W        W21087  10.686   4.469  10.828  0.1901  0.1243  0.1061
 4827W        W21088   1.922   5.897   0.426 -0.0369 -0.2130  0.2793
 4828W        W21089   1.336   9.495   1.444 -0.3825 -0.1352 -0.0761
 4829W        W21090  13.015  10.121  14.421 -0.1611 -0.0833  0.1561
 4830W        W21091   4.815  16.976  10.991  0.0482 -0.1152  0.0674
 4831W        W21092  14.091   8.467  11.551  0.0097 -0.2530  0.0266
 4832W        W21093  14.539  17.453   2.748 -0.0611  0.0966  0.1094
 4833W        W21094   6.141  18.216   5.095  0.4202  0.0791 -0.1315
 4834W        W21095   3.504   5.312   1.614 -0.2889  0.2255  0.0105
 4835W        W21096   6.010  12.517   2.390 -0.1125  0.2046 -0.2914
 4836W        W21097  11.359  14.560   0.581 -0.3165  0.3221 -0.0826
 4837W        W21098   4.835  16.396   4.867  0.0161 -0.3491 -0.0776
 4838W        W21099   1.267   1.886   1.208 -0.3066  0.1976  0.2561
 4839W        W21100   2.610   2.799   3.503 -0.0059 -0.1018  0.3074
 4840W        W21101  17.399   4.511  11.345  0.0513 -0.0574  0.1141
 4841W        W21102  13.739  12.963   4.721 -0.0107 -0.0802  0.1229
 4842W        W21103   8.050   8.877  14.656 -0.0949 -0.0062  0.4405
 4843W        W21104   6.108  14.185  12.436 -0.2343  0.1548 -0.0708
 4844W        W21105   6.784  17.490  15.163  0.1250  0.2210 -0.3465
 4845W        W21106  18.812  12.499  15.570  0.1290  0.1985  0.1538
 4846W        W21107   8.322  13.542   0.628 -0.0301 -0.3676  0.2979
 4847W        W21108   4.840   5.317   1.028 -0.0410  0.0360  0.3037
 4848W        W21109   3.179   4.562  12.247 -0.0006  0.0978 -0.2945
 4849W        W21110   9.780   2.810   5.028 -0.0836  0.1820  0.0339
 4850W        W21111  12.542   1.864   2.424 -0.0016  0.0725  0.0905
 4851W        W21112   9.514  11.904  15.199 -0.1388 -0.1493  0.2766
 4852W        W21113  17.890   7.157   2.898 -0.2898 -0.1197 -0.1636
 4853W        W21114   3.464   8.561  13.515 -0.1278  0.3495 -0.0649
 4854W        W21115   4.952  10.683  11.234 -0.0236 -0.0647 -0.0620
 4855W        W21116   1.132   3.119  11.921  0.1678 -0.3506  0.2082
 4856W        W21117   2.386   1.826   0.115 -0.3996  0.1583  0.0695
 4857W        W21118  17.440  14.488   1.561  0.1617 -0.1484  0.0019
 4858W        W21119  13.117  18.479   2.354 -0.4914 -0.2182 -0.0075
 4859W        W21120   2.152  13.042   3.991 -0.2093 -0.1740 -0.0442
 4860W        W21121   0.860  14.701   1.152 -0.0428 -0.2444  0.0423
 4861W        W21122   1.515  12.898  12.206 -0.1037  0.0209 -0.1222
 4862W        W21123   7.084   1.235  11.071  0.0114 -0.1083 -0.1843
 4863W        W21124   6.772   6.784  12.408 -0.0666 -0.0168  0.2116
 4864W        W21125  13.101   8.725  14.925  0.1165  0.1750 -0.2143
 4865W        W21126  16.081  12.096  10.268  0.0542  0.2794  0.0684
 4866W        W21127  14.189  17.416   4.202 -0.2120 -0.0680 -0.0913
 4867W        W21128   0.240  15.457   1.921  0.0317 -0.2697 -0.0350
 4868W        W21129  17.727   8.180   3.671  0.4117 -0.2036  0.2966
 4869W        W21130  13.266   4.462  12.500 -0.0069  0.1394  0.0308
 4870W        W21131   5.468   4.410   4.676  0.0780 -0.0337  0.1220
 4871W        W21132   0.957   5.193  12.241 -0.0294  0.3400  0.0575
 4872W        W21133   8.362   8.355   0.092  0.2184 -0.7108  0.2225
 4873W        W21134  12.093  13.408   0.736  0.0754  0.1858  0.1567
 4874W        W21135  13.409   7.802  13.350  0.3465  0.1802 -0.2212
 4875W        W21136  13.415  16.250  15.391  0.2458  0.2487  0.0141
 4876W        W21137   0.980   0.061  10.595  0.0641  0.2607 -0.0302
 4877W        W21138  18.499  15.097  12.627 -0.2736 -0.0436  0.2439
 4878W        W21139   8.766  14.903  13.457  0.3444  0.1107  0.0002
 4879W        W21140  11.354  18.133   2.746 -0.0158 -0.1969  0.3023
 4880W        W21141  12.693  13.283   2.084 -0.0100  0.0365 -0.0686
 4881W        W21142   7.224   0.595   5.411  0.2309  0.0629 -0.1693
 4882W        W21143   2.236   6.915  13.459 -0.1149 -0.0858  0.1268
 4883W        W21144  14.365   4.226  10.726 -0.1596 -0.0732  0.3901
 4884W        W21145   9.869  10.340   5.393 -0.2305  0.2048 -0.0137
 4885W        W21146   4.797   4.623  12.960  0.2217  0.0857  0.1796
 4886W        W21147  12.520  11.788   4.809  0.2127 -0.3965  0.1161
 4887W        W21148   5.806   1.165  11.262  0.1237 -0.1436  0.0541
 4888W        W21149   6.173   2.092  14.304  0.3053  0.2769  0.0741
 4889W        W21150  13.651  13.636  11.729  0.2854  0.1010 -0.1428
 4890W        W21151   6.639   9.493  12.649  0.1937  0.2961 -0.2277
 4891W        W21152  10.003   4.030   5.808 -0.1328 -0.1048 -0.2990
 4892W        W21153  13.048   5.179  15.325 -0.1349 -0.1749  0.1541
 4893W        W21154  14.594   2.579   4.611  0.0942 -0.2046  0.1192
 4894W        W21155   6.678  12.065  11.051 -0.1306  0.0334  0.0862
 4895W        W21156  14.864   6.784  15.166 -0.0727  0.1061 -0.2571
 4896W        W21157   4.931  13.495  12.106  0.0667 -0.2165 -0.0874
 4897W        W21158   5.985   5.453   1.959  0.1805 -0.0506 -0.0646
 4898W        W21159   7.015   2.975   2.402 -0.1687 -0.0633 -0.0410
 4899W        W21160  14.510   3.256  13.314  0.0131  0.2457 -0.2510
 4900W        W21161  15.820  11.795   0.771 -0.1702 -0.0929 -0.2325
 4901W        W21162  16.392  12.446   4.567  0.2346  0.0040  0.0195
 4902W        W21163   1.344   6.081   1.262 -0.3143  0.0452  0.1910
 4903W        W21164  17.427   7.031   3.148  0.2617  0.4443 -0.0567
 4904W        W21165   4.923  15.078  13.947 -0.0067  0.3125 -0.0538
 4905W        W21166   2.894   7.686  13.672 -0.3463 -0.3381  0.0325
 4906W        W21167  18.260  13.457  13.316 -0.0505 -0.0465  0.1680
 4907W        W21168   8.063  12.195   3.813 -0.0928  0.2133  0.0070
 4908W        W21169   5.353  10.676  14.816  0.1037  0.0150  0.0168
 4909W        W21170   6.138  10.519   2.633  0.2396 -0.4382 -0.0519
 4910W        W21171  16.027   4.362   4.193  0.3450 -0.0333 -0.2961
 4911W        W21172   6.000   0.481   4.988  0.0440  0.0266 -0.2360
 4912W        W21173   0.709  12.735  13.834  0.1099  0.2743  0.2473
 4913W        W21174   7.641  12.025   1.033 -0.0240 -0.0930  0.4583
 4914W        W21175   4.392   8.724  13.118  0.2175 -0.1822  0.3439
 4915W        W21176  11.175   7.838  13.885 -0.4044 -0.0328  0.2351
 4916W        W21177  16.214   0.836   3.408  0.0680 -0.1438 -0.3092
 4917W        W21178  14.087   0.498   2.523  0.4477  0.0530  0.0197
 4918W        W21179   9.841   6.311   4.006  0.0814  0.0749 -0.0160
 4919W        W21180   3.025  14.839   1.658 -0.4125  0.1768  0.1178
 4920W        W21181   6.499  15.045  13.123 -0.0390 -0.0840  0.0322
 4921W        W21182   1.268  14.081   1.147 -0.2928 -0.0138 -0.2428
 4922W        W21183   5.250   3.781   2.052  0.1555 -0.0754 -0.0665
 4923W        W21184   9.188   4.671   2.993  0.2314  0.1476  0.3241
 4924W        W21185   9.721   7.549  12.239  0.1516  0.0449 -0.1495
 4925W        W21186  12.916  12.124   0.095  0.1465 -0.2460 -0.1977
 4926W        W21187  11.462  18.285  14.942 -0.1982  0.4079 -0.1415
 4927W        W21188  15.635  12.558  11.655  0.1405  0.1450  0.0273
 4928W        W21189  18.620  14.414   3.133 -0.1033  0.0937 -0.0061
 4929W        W21190   8.272   5.627   6.595  0.0383 -0.0478  0.2591
 4930W        W21191   1.382  16.874   4.037  0.3617 -0.2058  0.0329
 4931W        W21192  12.445   7.177   4.946 -0.1180 -0.1473  0.2426
 4932W        W21193   5.701   1.831   5.031 -0.1197  0.2337 -0.1958
 4933W        W21194   3.000  11.358   2.037 -0.0912  0.2490  0.0975
 4934W        W21195  16.750  15.612   0.445  0.0976 -0.1454  0.0491
 4935W        W21196   6.129   2.629   5.061  0.0539 -0.1049  0.0875
 4936W        W21197  17.802   8.700  12.903  0.0223  0.2168 -0.0507
 4937W        W21198  11.608  13.257   0.505  0.0957 -0.2286 -0.2057
 4938W        W21199   9.119   5.640   1.209 -0.2349 -0.0698 -0.2802
 4939W        W21200  14.078  14.487  14.729 -0.1110  0.2343  0.0447
 4940W        W21201   2.890   8.690  11.440 -0.1357 -0.2746 -0.2395
 4941W        W21202  14.595   5.442  11.109 -0.0667  0.0219 -0.1755
 4942W        W21203  17.679  14.732  15.508  0.1086 -0.0592  0.1438
 4943W        W21204  12.596   1.838   4.678  0.0290  0.0569 -0.1137
 4944W        W21205   2.822  14.784  11.107 -0.3215  0.0387  0.1270
 4945W        W21206   8.888   7.242   2.204 -0.2315  0.0920  0.0869
 4946W        W21207   9.221   4.605  12.981 -0.2342 -0.0746 -0.0468
 4947W        W21208  10.269  14.181  10.759  0.3318  0.0401 -0.0419
 4948W        W21209   1.223   5.914  13.416  0.2906  0.0986  0.0723
 4949W        W21210   0.210  10.650  12.363 -0.1029 -0.0676 -0.2277
 4950W        W21211  14.321  17.561  10.653 -0.1393  0.0931  0.1424
 4951W        W21212   1.075   8.406  12.303 -0.0685 -0.2056  0.1333
 4952W        W21213  16.878  10.645  12.128  0.0512 -0.0494  0.0531
 4953W        W21214  10.533  12.403  12.025 -0.0257 -0.1124  0.2511
 4954W        W21215   5.468  18.113  12.797 -0.0843  0.1106  0.3472
 4955W        W21216  13.840   5.641  12.593 -0.5872  0.2761 -0.0684
 4956W        W21217  15.672   2.189   2.676 -0.1001  0.0129  0.0152
 4957W        W21218   3.743   3.164   0.128 -0.3326  0.0433 -0.0281
 4958W        W21219  18.827   0.801  14.148  0.2447 -0.1743  0.0391
 4959W        W21220  18.201   7.931  14.285  0.0573  0.0390  0.1046
 4960W        W21221  13.625   3.846   0.604  0.0297 -0.0627 -0.2811
 4961W        W21222  14.429  12.884   1.655 -0.1378  0.0054 -0.1643
 4962W        W21223   7.978  16.746  12.036  0.0826  0.1224  0.0791
 4963W        W21224  10.236  14.937   4.536 -0.4866  0.2557 -0.2040
 4964W        W21225   1.340   0.662   4.784 -0.1332  0.2326 -0.1317
 4965W        W21226  11.246   5.802   0.680  0.2045 -0.0832 -0.0936
 4966W        W21227   1.703  10.523   2.194  0.0578  0.0022 -0.1872
 4967W        W21228   5.547  13.953   1.487 -0.0071  0.0895  0.2616
 4968W        W21229   6.003  17.080  12.258 -0.0492 -0.1362 -0.1200
 4969W        W21230   3.960  12.967   1.288 -0.3057 -0.0329 -0.0110
 4970W        W21231   1.474   2.698  11.005 -0.1149  0.1564 -0.3107
 4971W        W21232   1.533   1.563   3.566  0.2199 -0.0195  0.0170
 4972W        W21233   5.091   5.987  12.475  0.3645 -0.2462  0.0402
 4973W        W21234  17.803  10.288  13.994  0.0094 -0.0522 -0.3519
 4974W        W21235   0.170   8.455  14.781  0.0404 -0.1488  0.1489
 4975W        W21236  14.199  14.404   1.250 -0.1918  0.1671  0.2264
 4976W        W21237  18.529   2.512   0.522  0.3485 -0.2938 -0.0634
 4977W        W21238  15.349  16.729   1.606  0.0923 -0.3492 -0.0212
 4978W        W21239   5.988  11.288   2.227  0.2574  0.1722  0.0294
 4979W        W21240  14.387   8.590   0.656  0.2956 -0.1594  0.1780
 4980W        W21241   9.968  10.391  14.080  0.1523 -0.4381 -0.0520
 4981W        W21242   8.556  18.644  11.359  0.2485 -0.0587  0.2263
 4982W        W21243  17.556  16.269   0.801  0.0858  0.0896  0.1764
 4983W        W21244   4.958  17.569   5.552 -0.1337  0.0333  0.1948
 4984W        W21245   0.178   6.675   2.367  0.2785  0.1809 -0.1797
 4985W        W21246   6.028  16.099  11.354 -0.2214 -0.1175  0.0074
 4986W        W21247  11.163   4.223  12.319  0.2680  0.3893  0.0798
 4987W        W21248   8.833   0.974   3.325  0.1633 -0.0840 -0.0044
 4988W        W21249  11.095   0.743   5.850 -0.2648 -0.0393 -0.2330
 4989W        W21250  12.665   4.092  14.049  0.0124  0.1164  0.0094
 4990W        W21251   4.349  15.468  11.982 -0.0444  0.3429 -0.1589
 4991W        W21252  15.085   6.492   4.146 -0.2856  0.1735 -0.3075
 4992W        W21253   0.983  17.802  12.228 -0.2235 -0.0451 -0.1532
 4993W        W21254   9.245   9.263  12.160 -0.0841 -0.0133 -0.0284
 4994W        W21255  14.659   4.286  14.579 -0.1509  0.1589 -0.1044
 4995W        W21256  16.924   1.924   2.718 -0.0549 -0.0444  0.0010
 4996W        W21257  12.830  14.617   5.388 -0.4983 -0.0207  0.0515
 4997W        W21258   7.231   1.566  15.617 -0.0420  0.1302  0.0643
 4998W        W21259   5.372   8.872  14.755 -0.0227 -0.0064  0.0138
 4999W        W21260  16.884   3.990  14.821  0.2823  0.0706 -0.1925
 5000W        W21261   9.248   9.693   0.123  0.0569 -0.0861 -0.3425
 5001W        W21262   4.662   8.909   1.834  0.1459 -0.1150 -0.1123
 5002W        W21263  10.538   9.404  11.083  0.0742  0.1967  0.0342
 5003W        W21264  10.010  14.456  14.174 -0.1605  0.2838  0.0043
 5004W        W21265  17.587  10.569   5.173  0.2632  0.3329  0.1616
 5005W        W21266   7.704   0.236   5.776 -0.0787  0.2286 -0.1659
 5006W        W21267  11.829   0.540  12.089 -0.2295 -0.0269 -0.1297
 5007W        W21268  16.602   3.387   0.863 -0.3157 -0.1109 -0.0333
 5008W        W21269  17.953   4.331   5.115  0.0441 -0.0762 -0.0871
 5009W        W21270   3.959  15.851   3.172 -0.1264  0.0112 -0.4305
 5010W        W21271  16.047   9.647  15.116 -0.1273  0.1469 -0.1089
 5011W        W21272  13.085   7.199   3.918 -0.0472  0.0234  0.1151
 5012W        W21273   9.541  10.533  10.564 -0.1454  0.1197 -0.2788
 5013W        W21274  16.140  10.124  11.264  0.0522  0.1175 -0.0189
 5014W        W21275  15.952   8.126  12.634  0.1945 -0.0650 -0.1536
 5015W        W21276  13.959  17.221  13.569  0.0923 -0.1582  0.2094
 5016W        W21277  11.645   2.148  11.822 -0.0034 -0.0991  0.2356
 5017W        W21278   7.155   0.046   4.142 -0.0473  0.1878  0.0552
 5018W        W21279  10.205   3.956   4.469  0.2928  0.4719  0.0014
 5019W        W21280  17.484   3.348   4.123 -0.1668  0.1226  0.2620
 5020W        W21281   8.882  14.196   4.466 -0.1237  0.4099 -0.1857
 5021W        W21282  12.207   3.356   3.826  0.2058 -0.1821  0.2018
 5022W        W21283   8.556   7.192   3.245 -0.2324  0.1452  0.0244
 5023W        W21284   0.564   9.337   4.799 -0.1753 -0.0505  0.0210
 5024W        W21285   6.286  11.743  13.127  0.0734 -0.0142  0.0592
 5025W        W21286   6.981  14.878  14.995  0.1476 -0.1449 -0.1157
 5026W        W21287  10.851   9.770   5.126  0.1066  0.0226 -0.3516
 5027W        W21288  16.389   9.923   2.576 -0.0106  0.0907  0.0131
 5028W        W21289   9.846  13.911  11.694 -0.1105 -0.1830  0.0319
 5029W        W21290   3.136  14.341  14.829  0.0181  0.0705 -0.1490
 5030W        W21291   5.931   1.241  12.543  0.0809  0.2913  0.0591
 5031W        W21292  14.621  12.491  14.847 -0.1268 -0.1059 -0.1339
 5032W        W21293   9.983  13.849  11.204 -0.0713  0.0597  0.0990
 5033W        W21294  13.594   7.921  15.488  0.0519 -0.0652 -0.0511
 5034W        W21295   9.033  10.417   4.886  0.2403 -0.1513 -0.0173
 5035W        W21296   0.379  13.106   1.936  0.0882  0.1366 -0.1004
 5036W        W21297   9.388  15.896   5.098  0.0920 -0.0889 -0.1415
 5037W        W21298   1.808   4.717   4.811  0.0236  0.2227 -0.1357
 5038W        W21299  13.659  16.940  10.850  0.3149  0.1442 -0.0034
 5039W        W21300  13.619  13.141   2.348 -0.0786  0.1630  0.0369
 5040W        W21301  16.017  18.296  13.108  0.1220  0.0602  0.1078
 5041W        W21302   0.490  18.416  11.199  0.1953  0.2522 -0.2339
 5042W        W21303  13.948  16.889  11.983 -0.0598  0.1990 -0.0377
 5043W        W21304  17.284   7.839   2.547  0.0504  0.0524  0.1390
 5044W        W21305   1.219  15.327  10.908  0.1169 -0.2307  0.2187
 5045W        W21306  18.141   8.603   4.143  0.1839 -0.0439 -0.0252
 5046W        W21307   6.649   1.756  12.984  0.1122  0.0321 -0.0430
 5047W        W21308  14.123  12.086  13.238  0.3273 -0.0982  0.0903
 5048W        W21309   2.053   9.440   4.664 -0.2127  0.1241  0.2761
 5049W        W21310  11.129   1.197  11.416 -0.0700 -0.2163  0.0062
 5050W        W21311  11.168  10.732   2.147  0.0349  0.1314  0.2237
 5051W        W21312  10.601  11.122  13.070 -0.0904  0.4230 -0.2065
 5052W        W21313  10.952   7.016  12.160  0.0584 -0.1880 -0.3108
 5053W        W21314   8.037   7.116   0.789 -0.0274  0.1185  0.0479
 5054W        W21315  11.757   2.402   4.354 -0.0387 -0.0433 -0.0858
 5055W        W21316  12.066  15.228  12.158  0.3984 -0.1721  0.0393
 5056W        W21317   9.880  15.289  11.201  0.0698 -0.0546 -0.1847
 5057W        W21318   5.873  12.259   3.378  0.2789 -0.0129 -0.2447
 5058W        W21319   7.587   6.820   2.680 -0.0756  0.1681 -0.1790
 5059W        W21320  11.872  17.645  14.773  0.1008 -0.0211  0.0076
 5060W        W21321  12.345  15.050  11.717 -0.0218  0.1357 -0.1477
 5061W        W21322   5.246  10.592  13.697 -0.1017  0.1376 -0.1409
 5062W        W21323   6.650   4.804   3.827 -0.1707  0.1621  0.0454
 5063W        W21324   1.983  15.142  14.970 -0.1025 -0.1723  0.1388
 5064W        W21325  18.748   8.966  11.780  0.1706 -0.1937 -0.2282
 5065W        W21326   7.732  11.425  15.399 -0.4117 -0.2142  0.3350
 5066W        W21327   3.348   6.235  11.756  0.0944 -0.2081  0.2791
 5067W        W21328   4.080   0.387   2.262 -0.3794 -0.1049  0.1950
 5068W        W21329  12.705  16.160   3.076 -0.1883  0.0399 -0.0707
 5069W        W21330   5.231   6.705  15.543  0.0565 -0.0996 -0.0641
 5070W        W21331   7.937   7.013  12.463 -0.2110  0.0153  0.3038
 5071W        W21332  15.362  17.779   3.259 -0.1795  0.0667 -0.3894
 5072W        W21333   2.774  12.337   4.437  0.1637  0.0945  0.0638
 5073W        W21334   3.350  13.531  14.509 -0.0476  0.2557  0.1124
 5074W        W21335   7.646  10.230  12.740  0.0216 -0.6372  0.0684
 5075W        W21336   1.011  15.520   2.174 -0.1797 -0.1625  0.0501
 5076W        W21337  13.744   7.408  14.498 -0.1088 -0.2513 -0.0915
 5077W        W21338   9.776   1.257   0.210 -0.1734  0.0036  0.1647
 5078W        W21339  10.864  16.484  11.396 -0.1294 -0.0536 -0.1002
 5079W        W21340  13.090  15.181  15.584 -0.0065 -0.0523 -0.1237
 5080W        W21341  16.491  17.594   2.864 -0.1696  0.1064  0.0121
 5081W        W21342   5.547  12.569  15.410 -0.2576 -0.0757  0.0698
 5082W        W21343   3.092   4.365   3.577  0.1933  0.1777 -0.0301
 5083W        W21344  17.435   5.798  13.558 -0.1019  0.0505 -0.1032
 5084W        W21345   4.196   4.181   1.450 -0.0683 -0.1053  0.0967
 5085W        W21346  13.452  11.257   1.635 -0.3042 -0.4470 -0.4295
 5086W        W21347   8.478  14.747  13.816 -0.0731 -0.0653  0.1752
 5087W        W21348   3.584   1.523   4.496  0.0428 -0.1939 -0.2734
 5088W        W21349  10.497  14.387  14.607 -0.2039 -0.1040 -0.1400
 5089W        W21350   4.198   1.643  12.945 -0.3412 -0.1635 -0.1700
 5090W        W21351  14.247  15.020  11.617  0.4188 -0.0274 -0.0141
 5091W        W21352  13.656  17.884   0.798  0.0165  0.1848 -0.0082
 5092W        W21353   0.478   0.638  12.829 -0.0259 -0.1131 -0.1951
 5093W        W21354  13.656  17.480  14.638  0.3108  0.2134 -0.2872
 5094W        W21355   0.209   8.799   3.547  0.3624  0.1412 -0.1907
 5095W        W21356   7.723   2.863   2.142 -0.3343  0.2377  0.0181
 5096W        W21357  12.421   2.240   4.326 -0.4747  0.4753 -0.0219
 5097W        W21358   3.238   4.756  12.888 -0.1081 -0.1103  0.0229
 5098W        W21359   3.547   2.331   4.318 -0.3633  0.2342  0.0320
 5099W        W21360   6.917  16.697  14.567  0.0305 -0.1772  0.0376
 5100W        W21361  10.057  14.652  10.868  0.3035  0.2110  0.1141
 5101W        W21362   0.592   7.336  15.407  0.0392  0.3326  0.1423
 5102W        W21363  17.709   3.486   2.564 -0.1407 -0.0713 -0.1884
 5103W        W21364  16.584   5.779   1.785  0.2231  0.1510  0.3450
 5104W        W21365   9.385  15.887   2.840  0.2651  0.0842 -0.0989
 5105W        W21366  18.257  15.109   2.616  0.3024 -0.1715 -0.1463
 5106W        W21367   2.013   1.119   4.385 -0.2461  0.1260  0.2467
 5107W        W21368   8.513   1.941  13.841  0.2929 -0.0146  0.1956
 5108W        W21369  15.191  15.937  11.367 -0.0665 -0.0477  0.0852
 5109W        W21370   1.454  13.468   0.626 -0.3976  0.1445  0.1343
 5110W        W21371  12.541  13.775   0.812  0.1312  0.0641 -0.1838
 5111W        W21372  15.334   2.355   2.940  0.3816 -0.2058 -0.3647
 5112W        W21373  10.024   2.455   1.794 -0.1250  0.1735  0.0892
 5113W        W21374   4.422  12.619  15.384 -0.0102 -0.0376  0.0269
 5114W        W21375   8.578  11.682   4.804  0.0149  0.3252  0.0075
 5115W        W21376   0.349   2.887  12.464  0.2628 -0.3868 -0.1804
 5116W        W21377  12.321   3.114   1.652  0.0288 -0.0574  0.2183
 5117W        W21378  18.705  18.693  11.283  0.1833 -0.2021 -0.1089
 5118W        W21379  14.225  10.600  11.123 -0.2003  0.0052  0.1354
 5119W        W21380  14.077   1.199  12.633 -0.0018  0.0477  0.0902
 5120W        W21381  14.855   2.927  15.594 -0.0247 -0.1250 -0.3031
 5121W        W21382  14.974   0.484  12.250  0.2886 -0.2450  0.0100
 5122W        W21383   6.906   4.913   3.293  0.0704 -0.1220 -0.0546
 5123W        W21384   5.413   8.408   5.034  0.0548 -0.0661 -0.0983
 5124W        W21385   3.139   4.752  15.246  0.3166 -0.0694  0.1153
 5125W        W21386  17.666  15.601   1.513  0.1038 -0.2128 -0.1812
 5126W        W21387  14.533  17.779   1.194  0.0140 -0.0411 -0.2933
 5127W        W21388  10.250   2.109  14.500 -0.0334 -0.1330 -0.1631
 5128W        W21389   0.840   3.822   3.897  0.0229  0.0709 -0.1984
 5129W        W21390   8.777  10.303  10.979  0.1056  0.1112 -0.2410
 5130W        W21391  11.046   3.614   1.902  0.2877  0.1075 -0.2529
 5131W        W21392   8.458   5.548  12.303  0.1521 -0.0073  0.1948
 5132W        W21393  14.418   5.518   0.885 -0.1075 -0.0789  0.0031
 5133W        W21394  10.310   0.878  12.676  0.1808 -0.0286 -0.0683
 5134W        W21395   2.676  16.812   3.129  0.0975  0.0528 -0.3347
 5135W        W21396   6.664   4.110  14.638 -0.1219 -0.0293 -0.1924
 5136W        W21397  16.150   7.638   1.288  0.4629  0.3657  0.1316
 5137W        W21398  15.061   6.107  10.648 -0.0422 -0.1292  0.1062
 5138W        W21399  13.049  11.733   1.656  0.0438 -0.0712  0.2118
 5139W        W21400   6.173  18.775  13.892 -0.3736  0.0624  0.0323
 5140W        W21401  16.821   4.421   3.085 -0.0637  0.1933 -0.0824
 5141W        W21402  10.967  13.102   3.635  0.0484 -0.0380 -0.0771
 5142W        W21403   4.473   7.464   5.282 -0.0775 -0.3255 -0.2082
 5143W        W21404   4.595   8.458  12.267 -0.0933  0.0246 -0.3453
 5144W        W21405   2.757   1.262  14.030  0.0121  0.1266 -0.2379
 5145W        W21406  15.998  12.622   1.997  0.0952  0.1420 -0.1014
 5146W        W21407   6.025  18.187   1.899 -0.1877  0.1927  0.2057
 5147W        W21408   8.560   7.168   4.336  0.0012  0.0492 -0.1622
 5148W        W21409   6.674  12.957  11.965  0.1461  0.1593  0.2280
 5149W        W21410  12.792  12.544   1.095 -0.0146 -0.0868  0.1142
 5150W        W21411   0.975   2.319  11.069 -0.2735 -0.3330  0.0528
 5151W        W21412   6.686   1.408   4.394  0.0320  0.3297  0.1317
 5152W        W21413   8.526  13.160  11.763 -0.1238  0.1274 -0.1919
 5153W        W21414   4.566  17.254   3.674  0.0601  0.2453  0.1537
 5154W        W21415  10.191  11.804   4.890 -0.0161  0.1124 -0.0361
 5155W        W21416  11.860  13.725   5.362  0.1693  0.1225  0.2470
 5156W        W21417   6.677  15.783  14.172 -0.4122  0.3844  0.3066
 5157W        W21418  15.968   4.993  15.519  0.0203  0.1575  0.2047
 5158W        W21419   1.078   9.813  13.578 -0.1078 -0.0212  0.0769
 5159W        W21420   1.666  17.606  15.254 -0.0071 -0.1262 -0.1907
 5160W        W21421   3.177   0.512   1.178  0.2372  0.0608  0.1681
 5161W        W21422   7.899  18.317   4.582  0.2381 -0.0976  0.0729
 5162W        W21423   8.609   3.947   4.479 -0.1355 -0.0960 -0.1858
 5163W        W21424  14.385  11.513   2.968 -0.1855 -0.1641 -0.2402
 5164W        W21425   5.208   8.702   0.866  0.2060  0.0281  0.0559
 5165W        W21426   5.614  17.630   3.109 -0.0210  0.1246  0.0434
 5166W        W21427   2.635   1.226   1.603 -0.0600  0.1401 -0.0648
 5167W        W21428   0.933  14.778   1.667  0.2607 -0.0385 -0.1052
 5168W        W21429   0.901   6.596  14.966 -0.2344 -0.0316  0.1974
 5169W        W21430  16.435   3.835   1.573  0.0248  0.4629 -0.5379
 5170W        W21431  12.878   4.275  13.283 -0.0573  0.1056 -0.1635
 5171W        W21432   0.302  10.283  14.549  0.0065 -0.0096  0.1493
 5172W        W21433  10.409  12.523  15.507  0.0511  0.0665  0.3300
 5173W        W21434  14.418   8.609   4.759 -0.3519 -0.2626 -0.0680
 5174W        W21435  12.047   3.536  12.098 -0.0284  0.1560  0.1057
 5175W        W21436   0.544  15.087   4.594 -0.1045 -0.1275 -0.1516
 5176W        W21437   1.513   5.122   2.101  0.0988 -0.1970 -0.3333
 5177W        W21438   8.495  13.596  15.328  0.0757 -0.0370 -0.0755
 5178W        W21439  11.031   6.940   4.848 -0.1354  0.3960 -0.0533
 5179W        W21440  18.071   6.215  12.842 -0.2403  0.2004  0.1513
 5180W        W21441  10.495  14.909  14.489  0.0544  0.1625  0.1171
 5181W        W21442   5.661  15.430   1.405 -0.2921 -0.0826  0.1483
 5182W        W21443  12.347  15.555  13.316  0.3509 -0.1862  0.1538
 5183W        W21444  18.791   6.859   0.481 -0.0135 -0.2475  0.0756
 5184W        W21445  11.358  12.359   4.099  0.0987  0.0453 -0.2579
 5185W        W21446   4.426  10.765   3.150 -0.0296  0.0956  0.0901
 5186W        W21447  16.901  13.049   3.157  0.0002 -0.1762 -0.0192
 5187W        W21448   1.590   6.341   0.410  0.1636  0.1134 -0.0562
 5188W        W21449  12.874   3.039  14.884  0.0496 -0.1507 -0.2257
 5189W        W21450   0.495   1.175   2.180 -0.1975 -0.0222  0.1151
 5190W        W21451   1.442   7.788  15.460  0.0987 -0.0544  0.0144
 5191W        W21452   5.687   0.106  12.935 -0.2711  0.1848 -0.1317
 5192W        W21453   1.099  17.954  13.606  0.0941 -0.0617 -0.0523
 5193W        W21454  15.907   9.131  15.533 -0.1311  0.0068  0.2697
 5194W        W21455   5.005  13.404   2.857 -0.2557  0.1771 -0.2531
 5195W        W21456  12.273   0.540   2.813  0.1488 -0.1658  0.3231
 5196W        W21457  15.097   8.873   1.314  0.0109  0.1135 -0.2677
 5197W        W21458  10.915  13.217   4.826 -0.3312 -0.0276  0.1383
 5198W        W21459  12.008   5.058  14.283 -0.3835 -0.4870 -0.1133
 5199W        W21460   6.244   5.588   1.060  0.1866  0.0988 -0.2283
 5200W        W21461   4.065  13.263  15.242 -0.1407  0.1921  0.2377
 5201W        W21462   7.497   3.877  12.829  0.1306  0.0440  0.0544
 5202W        W21463   9.933  10.150  15.306  0.1482  0.1531 -0.0917
 5203W        W21464   2.292  16.064  11.920  0.3027  0.4519 -0.1657
 5204W        W21465   9.622  13.651  12.483 -0.2205  0.1390 -0.1458
 5205W        W21466  13.213  11.487  14.896  0.4271 -0.1204  0.1750
 5206W        W21467  11.967   7.016   2.417 -0.1382 -0.3964 -0.0028
 5207W        W21468   5.347   9.314   3.028  0.0030  0.2226  0.1529
 5208W        W21469  10.563   3.336   3.044 -0.3424 -0.1339 -0.1366
 5209W        W21470  13.710  13.391  10.848  0.2674 -0.4191  0.0372
 5210W        W21471  13.596  17.760   1.572  0.1374  0.0265  0.2547
 5211W        W21472   0.315  12.396   3.702 -0.1341 -0.2181 -0.0491
 5212W        W21473   7.582  15.551   1.769 -0.1146  0.2233 -0.2470
 5213W        W21474  17.885   3.026  14.514 -0.1134  0.4765 -0.1513
 5214W        W21475   4.884   0.304   0.149  0.0302  0.0928 -0.1633
 5215W        W21476  16.122   5.416  15.349  0.1588 -0.1252 -0.2372
 5216W        W21477   0.296  14.537   2.255  0.0518 -0.0347 -0.0787
 5217W        W21478  11.630   8.565   5.226 -0.0340 -0.2732  0.3460
 5218W        W21479  12.987  13.216  10.176 -0.0457  0.0097  0.0591
 5219W        W21480   5.081   8.314  13.920 -0.1464  0.0366 -0.1016
 5220W        W21481  17.752   9.078  15.220 -0.2306 -0.3378 -0.1373
 5221W        W21482  18.827  11.092  15.495  0.1630 -0.4195  0.1543
 5222W        W21483  17.047  11.348   1.270 -0.1525 -0.0641  0.3249
 5223W        W21484  11.632   4.057   5.255  0.1877  0.1267  0.1049
 5224W        W21485  10.876   5.290   4.954  0.1394  0.1999 -0.1924
 5225W        W21486   9.501   2.384   1.868 -0.2369 -0.0703 -0.1255
 5226W        W21487   0.908   1.449   2.140  0.2361 -0.1259  0.0967
 5227W        W21488  16.459   6.151  12.270  0.2612  0.0062  0.1515
 5228W        W21489   2.571  12.468   4.004 -0.0937  0.0019  0.1170
 5229W        W21490   4.723  11.445   1.564 -0.1197  0.2711  0.1016
 5230W        W21491   6.328   0.061  11.667 -0.0650  0.4780 -0.3750
 5231W        W21492   2.596  13.382   2.170 -0.0966  0.1041  0.3893
 5232W        W21493   5.183  16.850   0.569 -0.0190  0.5766  0.1386
 5233W        W21494   9.136  16.677   1.754 -0.0439  0.0114  0.1133
 5234W        W21495   9.352   4.103   2.324 -0.0323  0.2333 -0.1547
 5235W        W21496  15.911   3.734   5.004 -0.0684  0.1473 -0.0509
 5236W        W21497  15.871   2.488  12.078 -0.1119 -0.0262 -0.2275
 5237W        W21498  11.690   7.435  14.959 -0.1135 -0.1022  0.1228
 5238W        W21499   9.633  12.431   1.440  0.1445  0.1069 -0.2170
 5239W        W21500  12.452  10.323  11.703 -0.0705 -0.2249 -0.0093
 5240W        W21501  11.012  11.748  12.677  0.0166 -0.1234  0.0979
 5241W        W21502  12.182   2.254  11.739  0.0505  0.0971 -0.2366
 5242W        W21503  15.256  11.901   1.467  0.0015  0.2854 -0.3316
 5243W        W21504  10.606   5.221   4.247 -0.0479  0.2867  0.2411
 5244W        W21505  16.742  15.352   2.634  0.2358  0.2212  0.3380
 5245W        W21506  13.097  13.610  14.960  0.1253  0.2827 -0.2210
 5246W        W21507   4.093   2.202  14.947 -0.0216  0.2409 -0.1810
 5247W        W21508   2.477  10.076  15.126 -0.3081 -0.1998 -0.3247
 5248W        W21509   2.602   7.321   4.791 -0.3223  0.4136  0.1861
 5249W        W21510  13.235  10.667   0.173  0.3366  0.0445  0.1846
 5250W        W21511   3.556   2.422   0.631 -0.1184 -0.1263  0.0146
 5251W        W21512   0.518   4.796   0.691 -0.0599  0.0541  0.1265
 5252W        W21513   9.634  17.235  13.483  0.1575 -0.0463  0.0327
 5253W        W21514   3.108  10.141   3.333 -0.0357  0.0245 -0.1238
 5254W        W21515   9.820  10.921   3.269  0.3503 -0.3073 -0.0249
 5255W        W21516  12.742  12.799   2.920  0.2129  0.3181  0.1764
 5256W        W21517   9.195  15.579   5.482  0.0043 -0.0432 -0.2437
 5257W        W21518  18.781   7.177  12.752 -0.0798 -0.2299 -0.2170
 5258W        W21519   3.832  16.673  15.029  0.0215 -0.0962 -0.0756
 5259W        W21520   5.272   5.635  11.545 -0.1411  0.2523  0.2630
 5260W        W21521  18.132   6.687   4.347 -0.0489  0.0011  0.1493
 5261W        W21522   0.061   4.035   3.177  0.1385 -0.0805  0.0214
 5262W        W21523   9.427   2.842   4.135  0.1276  0.0942 -0.4079
 5263W        W21524   2.033   2.385  14.511  0.0687  0.1580  0.1574
 5264W        W21525   2.796   0.852   0.779  0.0283  0.2123  0.2100
 5265W        W21526  15.105   5.410   3.299 -0.2869  0.2485  0.2040
 5266W        W21527   2.264  13.119   3.195  0.0502  0.1728 -0.1594
 5267W        W21528  15.873  16.076  13.581 -0.4653 -0.3671 -0.1504
 5268W        W21529  12.240   6.494   0.568 -0.0298  0.2523 -0.1909
 5269W        W21530   0.874   5.353   3.466 -0.2169 -0.3370  0.0561
 5270W        W21531  10.464  13.603  13.709  0.0135  0.0402 -0.0821
 5271W        W21532   0.457   2.949   2.855  0.0644 -0.0080 -0.1228
 5272W        W21533  18.534  18.055   5.280  0.1929  0.0448 -0.5608
 5273W        W21534   0.870  11.420  14.795  0.0933  0.1537  0.1412
 5274W        W21535  16.252   5.362   1.713  0.0274  0.1707  0.2013
 5275W        W21536   3.056  11.512  13.593  0.1135  0.0110 -0.1310
 5276W        W21537  17.112   8.140  10.909 -0.3989 -0.0071 -0.1741
 5277W        W21538   5.922   3.533   0.175 -0.0264 -0.0527 -0.2831
 5278W        W21539   6.272   1.436   5.920  0.1357  0.0373 -0.1142
 5279W        W21540   5.440  10.423  15.391 -0.0474 -0.3472 -0.2144
 5280W        W21541   4.909   8.460  11.624 -0.1862 -0.0847 -0.3611
 5281W        W21542  17.108   9.780   1.065  0.2956 -0.1219  0.0411
 5282W        W21543   7.626   0.892   1.701  0.0923 -0.1332  0.0242
 5283W        W21544  11.020  13.885  12.549 -0.0737 -0.4552  0.0688
 5284W        W21545   9.656   7.963   3.592  0.0676 -0.1485  0.3344
 5285W        W21546   1.199  14.586  12.808  0.3064 -0.0636 -0.0952
 5286W        W21547  11.243  13.363  14.642  0.0747  0.1670 -0.0482
 5287W        W21548  14.557   1.738   2.087 -0.2660 -0.0599 -0.0178
 5288W        W21549  14.955  11.495  13.025  0.1434  0.0719  0.2285
 5289W        W21550   6.665   1.171   5.228 -0.1682  0.0449  0.3155
 5290W        W21551  17.623  12.385   5.090  0.1102  0.2376 -0.2285
 5291W        W21552   0.730  12.284   1.710 -0.0813 -0.1185  0.1011
 5292W        W21553   0.438   2.740   3.375  0.0006 -0.3953  0.2586
 5293W        W21554  10.665  14.422  11.347 -0.1486  0.1555 -0.1132
 5294W        W21555  14.387  16.616   2.363  0.0775  0.2554 -0.1024
 5295W        W21556   4.325   2.080  11.796  0.1008 -0.0510 -0.0705
 5296W        W21557  16.617  14.525   2.494  0.0132  0.0931  0.1287
 5297W        W21558  15.007   5.363  10.823  0.1344  0.2020 -0.1152
 5298W        W21559  17.761   7.437   2.464  0.5508 -0.1988 -0.1754
 5299W        W21560   0.003  15.393   5.385 -0.2125  0.2134 -0.1628
 5300W        W21561   7.994  10.954  15.268 -0.0388  0.0002  0.2351
 5301W        W21562  17.969  12.284   4.684  0.0875  0.0468 -0.1991
 5302W        W21563  10.683  16.333   1.756 -0.3612 -0.1971 -0.2588
 5303W        W21564   6.954   8.604   1.710  0.0866  0.1652  0.1826
 5304W        W21565  11.790   4.816  13.085 -0.2099 -0.1291 -0.0348
 5305W        W21566   1.236  15.052   2.083  0.3056 -0.0899 -0.2615
 5306W        W21567  17.674  15.766   5.215  0.1676  0.1124 -0.1176
 5307W        W21568   7.237   8.577  15.010 -0.2192  0.2786  0.0804
 5308W        W21569  10.996  10.847  10.904  0.3748 -0.2048 -0.0855
 5309W        W21570   0.483   1.026  11.580 -0.0439 -0.0554 -0.0105
 5310W        W21571   6.684   8.145   3.241 -0.0091 -0.2847  0.0802
 5311W        W21572   9.749   7.793   4.185  0.3152 -0.0686  0.0861
 5312W        W21573  16.241   2.890   4.563 -0.0091  0.1030 -0.2009
 5313W        W21574  10.956  17.790   1.106 -0.1152 -0.1982 -0.3348
 5314W        W21575  14.705   0.592  10.784 -0.2713 -0.4027 -0.0462
 5315W        W21576   4.873   1.712   3.611 -0.1533 -0.0604  0.1513
 5316W        W21577   0.261  15.630  12.057  0.1699  0.0304  0.1095
 5317W        W21578   0.333  14.417   4.521  0.1866 -0.1991 -0.1223
 5318W        W21579   0.041  16.902  11.858  0.0329 -0.2365 -0.0515
 5319W        W21580  13.966  18.515   0.066  0.2775  0.0362 -0.0277
 5320W        W21581   3.098   8.627  14.513  0.0994 -0.0965 -0.0061
 5321W        W21582   9.750  13.537   0.398  0.0044  0.0348  0.3318
 5322W        W21583  15.374  17.112  12.277  0.1288  0.1576  0.2222
 5323W        W21584  14.000   6.431  10.298 -0.2149  0.4323  0.0473
 5324W        W21585   9.756  18.669   0.264 -0.0797  0.0551 -0.2342
 5325W        W21586   4.086   4.174   3.974 -0.2069  0.1000 -0.2319
 5326W        W21587   6.520   2.044  13.399  0.2478 -0.2005 -0.0124
 5327W        W21588  14.193   9.975   3.361  0.0062  0.1720 -0.1617
 5328W        W21589   3.882   3.800   4.363  0.0849  0.1451  0.4802
 5329W        W21590   0.731   0.881  14.211 -0.1304 -0.0553 -0.0105
 5330W        W21591   3.511   6.849  13.045 -0.3632 -0.5380  0.0311
 5331W        W21592   6.331   6.544   5.203 -0.0560 -0.1791 -0.2638
 5332W        W21593  10.005   7.240   2.804  0.3181 -0.3401  0.0902
 5333W        W21594  12.563  14.414  14.924 -0.0272 -0.2570 -0.0003
 5334W        W21595   1.481   9.296  13.800 -0.2507 -0.2350  0.1196
 5335W        W21596   8.952   9.445   2.060  0.2458  0.1951  0.2808
 5336W        W21597  16.918  13.972  10.333 -0.0754  0.2561  0.1952
 5337W        W21598  15.239  14.264   0.868 -0.0578 -0.2009  0.3426
 5338W        W21599   1.259   3.332  15.278  0.0826 -0.0387 -0.0201
 5339W        W21600   2.062   3.373   3.674  0.0009  0.0602  0.0975
 5340W        W21601   1.973   3.023  11.714  0.1336 -0.5090 -0.0086
 5341W        W21602   2.681  14.874   3.277  0.0167 -0.0094  0.1885
 5342W        W21603   0.922   3.447   0.383 -0.0329 -0.3927 -0.0149
 5343W        W21604  17.198   1.558  12.506  0.0930 -0.7073  0.0602
 5344W        W21605  16.549  18.253  13.279  0.2252  0.3078  0.1790
 5345W        W21606   1.709  10.345   3.590  0.0702 -0.1640 -0.1572
 5346W        W21607   5.275  11.159  12.059  0.1490  0.0170 -0.0240
 5347W        W21608  14.312  18.585  10.737 -0.2395  0.2688 -0.1448
 5348W        W21609  18.470   4.818   0.625 -0.2326  0.2116 -0.0981
 5349W        W21610  12.705  12.254  15.125  0.2335 -0.1261  0.0410
 5350W        W21611  14.424   3.705   1.507  0.1196 -0.3169  0.0375
 5351W        W21612   8.923   4.341  15.595 -0.1198  0.0737  0.2524
 5352W        W21613  18.494   5.764  15.145  0.4612 -0.0058 -0.2063
 5353W        W21614  16.591   0.349   4.528 -0.1068 -0.0841  0.3749
 5354W        W21615  12.390   5.732  15.480 -0.2078 -0.4041  0.2850
 5355W        W21616  12.653  15.280  11.269 -0.3806  0.0172 -0.1300
 5356W        W21617  15.245  15.665  11.909  0.2098 -0.4819  0.0021
 5357W        W21618   5.592   1.379  15.462  0.0498 -0.1401 -0.1855
 5358W        W21619  13.035   8.538   4.510  0.1126  0.2137  0.0697
 5359W        W21620  14.181   8.359  14.799  0.5803  0.1274 -0.1168
 5360W        W21621  14.651  14.846  11.984 -0.1250 -0.5226  0.0162
 5361W        W21622   7.728  11.223  13.076 -0.0023  0.0633 -0.3159
 5362W        W21623   6.919   8.370   2.121  0.1555  0.0794 -0.1146
 5363W        W21624  17.686   7.204  13.271  0.1323  0.1465  0.1452
 5364W        W21625   3.167  18.044   2.641 -0.1203  0.2569 -0.0595
 5365W        W21626  10.714   7.731   2.365  0.0785  0.1278  0.3039
 5366W        W21627  11.370  16.873  14.540 -0.2499  0.1881  0.2130
 5367W        W21628  17.077   8.077   3.022 -0.2138 -0.1498 -0.2074
 5368W        W21629   0.381   8.071   5.175 -0.1592  0.2437  0.1364
 5369W        W21630  12.986  13.509   0.247 -0.0787 -0.0229 -0.0047
 5370W        W21631   2.231   3.961   5.001 -0.1632 -0.2736 -0.0717
 5371W        W21632  10.664   2.871   4.892 -0.1751 -0.0845 -0.2347
 5372W        W21633  14.797  13.287  10.676  0.0851 -0.0095  0.0503
 5373W        W21634  12.122   7.672  13.991 -0.0498  0.0252 -0.3902
 5374W        W21635  11.371  18.555  11.225 -0.3503  0.3343  0.3616
 5375W        W21636   6.739  11.745  14.694  0.0883 -0.2045  0.1695
 5376W        W21637  13.504   3.263   2.550  0.1577 -0.2131 -0.4673
 5377W        W21638   5.972   0.318  12.003 -0.0230  0.2954  0.0772
 5378W        W21639  13.039   4.296   4.383  0.2464  0.3588 -0.3489
 5379W        W21640   4.983   8.443  11.100  0.1861 -0.2341  0.2535
 5380W        W21641  16.322  14.212  14.875  0.1636 -0.1541 -0.1428
 5381W        W21642   7.238   8.219   0.863 -0.1069  0.0442 -0.1301
 5382W        W21643   4.114  17.203  11.993  0.2327  0.2715  0.0632
 5383W        W21644   6.260  17.816   2.790 -0.2228 -0.0015  0.0396
 5384W        W21645   1.373  14.491  14.569 -0.3892  0.0450  0.1486
 5385W        W21646   9.906   1.663  15.375  0.1061  0.1838  0.1710
 5386W        W21647  11.856  17.325   1.335 -0.2303  0.0933  0.0081
 5387W        W21648  11.855  13.438   3.650 -0.3063 -0.4975  0.0443
 5388W        W21649   3.578  13.112  15.375  0.0112 -0.2523  0.3613
 5389W        W21650  18.002  11.439   0.968 -0.0738  0.1678 -0.0291
 5390W        W21651  15.452   4.347   2.399 -0.1774 -0.1342 -0.2409
 5391W        W21652  18.690  16.617   2.904 -0.1205  0.0340  0.1290
 5392W        W21653  14.953   9.697  12.393 -0.2212  0.1100 -0.2707
 5393W        W21654   1.772   9.420   1.274 -0.1461  0.0307  0.1666
 5394W        W21655  15.204   5.497  15.038 -0.2602  0.0613 -0.0484
 5395W        W21656  10.645   8.352  11.702 -0.1016  0.0098  0.1561
 5396W        W21657  14.686  13.792   4.381 -0.1351  0.0558 -0.1825
 5397W        W21658  11.104   5.105   1.257  0.0503 -0.2449 -0.0802
 5398W        W21659   0.789  13.983  13.389  0.0811  0.2044 -0.1747
 5399W        W21660   8.597  14.736  11.886 -0.2229 -0.1345  0.4141
 5400W        W21661  16.210  18.089   3.195 -0.3272  0.0465 -0.2137
 5401W        W21662  14.200  11.801   0.226  0.0666 -0.1572  0.1710
 5402W        W21663  11.351   0.738  12.120 -0.0004  0.2188  0.0304
 5403W        W21664  15.217   1.596  13.523  0.3578  0.0843 -0.2405
 5404W        W21665   1.109   3.434  11.371 -0.1442  0.3422 -0.3207
 5405W        W21666  16.944   5.656   3.974 -0.3782  0.1123  0.0923
 5406W        W21667   2.421   3.616  13.421 -0.0190  0.0916  0.3174
 5407W        W21668   5.217   8.931  11.725 -0.0489 -0.0109 -0.2045
 5408W        W21669  15.487  17.555  12.500 -0.4179  0.0772  0.2772
 5409W        W21670  13.547  10.881  12.624  0.1208  0.1043  0.4291
 5410W        W21671   8.546   0.060   3.116 -0.2077  0.0327 -0.4427
 5411W        W21672   1.375  15.417   3.445  0.2205  0.4141  0.2037
 5412W        W21673  10.488   3.679  14.887  0.0324  0.2430 -0.0926
 5413W        W21674  15.999  17.129  11.136  0.2335  0.0495 -0.0959
 5414W        W21675   2.977  14.985   2.646 -0.1247  0.1300 -0.0082
 5415W        W21676  17.043   3.998  12.549 -0.0478  0.0963  0.0778
 5416W        W21677  11.387   4.274   5.774 -0.1151 -0.1720  0.1441
 5417W        W21678   2.992  18.562   4.382 -0.0276 -0.3265 -0.1268
 5418W        W21679   1.095  14.351  15.342 -0.3060  0.3649 -0.2824
 5419W        W21680   9.577  12.835  10.994 -0.2219  0.0176 -0.3616
 5420W        W21681  11.446   3.123   3.667  0.2002 -0.4234  0.0446
 5421W        W21682   1.878   3.347   2.992 -0.3456 -0.1637 -0.0622
 5422W        W21683  16.908  15.567  14.704 -0.0242 -0.1737  0.0780
 5423W        W21684  14.707  12.532   2.060 -0.2312  0.0325 -0.2947
 5424W        W21685  10.568  15.485  14.121  0.3201  0.5513  0.4415
 5425W        W21686   8.227   2.265   5.878 -0.3682  0.1462 -0.2428
 5426W        W21687  10.833   1.646  13.954  0.0428  0.2435  0.2079
 5427W        W21688  14.563  12.911   3.555  0.2186 -0.1947 -0.0312
 5428W        W21689   6.731   0.171   5.585 -0.0949  0.1662  0.1047
 5429W        W21690   9.065   7.176  12.561 -0.1390 -0.1120  0.3526
 5430W        W21691  14.386  12.155   1.355  0.2556 -0.0502  0.1425
 5431W        W21692   4.461   4.387  10.834  0.0835  0.0704  0.3700
 5432W        W21693  15.844  18.616  12.093 -0.4120 -0.1998  0.0754
 5433W        W21694   5.327  10.448  11.478  0.0563 -0.1435 -0.0984
 5434W        W21695   7.150   7.425   1.899 -0.1809  0.4775  0.1910
 5435W        W21696  10.535   4.762   1.801  0.2994  0.1510 -0.3637
 5436W        W21697   3.498   7.353   2.148  0.0440 -0.2095  0.2273
 5437W        W21698   7.893   2.936   3.891  0.0613 -0.1276  0.3584
 5438W        W21699  16.030  14.858  11.741  0.0545  0.0403 -0.1229
 5439W        W21700  12.434   0.629   2.143  0.0252 -0.1423  0.2472
 5440W        W21701   3.159   3.663   2.226 -0.0008 -0.2247 -0.2180
 5441W        W21702  15.845  11.703   4.536  0.3465 -0.2130  0.0777
 5442W        W21703  13.675   4.436  14.028  0.2268 -0.1652 -0.1950
 5443W        W21704  15.191   0.560  10.931 -0.0601 -0.2832  0.0751
 5444W        W21705   8.196   2.196   3.377  0.0829  0.1379 -0.2154
 5445W        W21706   6.646   2.530   3.690 -0.0986 -0.0282  0.1709
 5446W        W21707   2.634  10.575   1.527  0.1712 -0.2342 -0.4268
 5447W        W21708  12.410   9.504  12.794 -0.0125  0.4779  0.0936
 5448W        W21709  11.051   6.992   0.738  0.1323 -0.0141 -0.1082
 5449W        W21710  18.598  14.961  13.070  0.0160  0.0173  0.2182
 5450W        W21711   1.575  18.084  14.924  0.1099 -0.1635 -0.3272
 5451W        W21712  13.001   3.472  11.370 -0.2543  0.0675 -0.2086
 5452W        W21713  17.895  14.466   1.763  0.0911 -0.0476 -0.0948
 5453W        W21714   0.386   8.746  15.143  0.2391 -0.0256 -0.0725
 5454W        W21715   8.173  14.356  11.833 -0.1167 -0.3519 -0.1952
 5455W        W21716  15.757  11.587  11.977  0.0461 -0.0056 -0.1568
 5456W        W21717   7.558   4.587   1.118 -0.0190 -0.1330 -0.2949
 5457W        W21718   2.608  13.465  12.846 -0.2495  0.1480 -0.1393
 5458W        W21719   6.450   4.409   3.565  0.2786  0.2720  0.0583
 5459W        W21720  18.419  17.348  12.721  0.0139  0.1806  0.5919
 5460W        W21721   2.482  16.406  11.363  0.1437  0.0269 -0.1063
 5461W        W21722  16.888  14.470  14.056  0.3166  0.2174 -0.2467
 5462W        W21723   5.732  16.207  15.155 -0.0732  0.3532 -0.1720
 5463W        W21724   9.546   5.472  15.324  0.1697  0.0209 -0.3205
 5464W        W21725   5.713   9.627  11.664 -0.0385 -0.0910  0.2730
 5465W        W21726   0.578   9.948  10.508 -0.1107 -0.3301 -0.0201
 5466W        W21727  15.438   3.187  15.251  0.0599  0.1891  0.2068
 5467W        W21728   9.752   8.801   1.067 -0.4029 -0.0774  0.0600
 5468W        W21729   6.565   0.044   4.258 -0.1199  0.2652  0.0322
 5469W        W21730   2.106   2.075   0.695  0.1973  0.2476 -0.0501
 5470W        W21731   0.248   2.387   2.677 -0.1932  0.3230  0.0042
 5471W        W21732  13.590   9.024   1.629  0.2321 -0.2574  0.0244
 5472W        W21733   6.059   3.259   2.474 -0.2816  0.1043 -0.3298
 5473W        W21734  18.523  14.180   5.780 -0.2300  0.1579 -0.2552
 5474W        W21735   1.064   6.394   0.274  0.0119  0.0353 -0.2370
 5475W        W21736   7.382   5.570   1.414 -0.1445 -0.0483 -0.2096
 5476W        W21737   5.688   7.708   4.346  0.2252  0.2752  0.2544
 5477W        W21738   7.013   9.152   2.884 -0.0444 -0.3252  0.2896
 5478W        W21739  13.140  14.162   1.500  0.0029  0.2177  0.0212
 5479W        W21740   5.442  18.703   2.872  0.3304 -0.2513  0.4995
 5480W        W21741  10.713  13.739  11.635  0.0613  0.0648  0.1871
 5481W        W21742  18.108   4.373   4.487  0.0446 -0.2267  0.1453
 5482W        W21743   6.592  18.423  12.547  0.0232  0.0230 -0.0337
 5483W        W21744   9.492   3.911   5.072 -0.1720  0.0573  0.1248
 5484W        W21745  14.133   0.252   2.103 -0.1527  0.1912  0.0250
 5485W        W21746   5.329  10.613   4.454  0.0596 -0.0579  0.0490
 5486W        W21747  13.824  15.554   0.959  0.1182  0.1477  0.1263
 5487W        W21748  15.528  12.227  15.111 -0.2144 -0.0429  0.1458
 5488W        W21749  17.986   6.900  14.082 -0.0064 -0.0479  0.0859
 5489W        W21750   3.402   2.788  12.769  0.3672 -0.0973  0.2043
 5490W        W21751   8.149   6.382   2.965  0.2099 -0.1005  0.1462
 5491W        W21752   8.933  13.277   1.350  0.0238 -0.0424 -0.3024
 5492W        W21753   8.464   7.422  13.836 -0.2256 -0.0842 -0.1960
 5493W        W21754  10.048  10.814  11.979 -0.1134 -0.1657 -0.1551
 5494W        W21755   6.688  16.439  12.495 -0.0385 -0.0112  0.4453
 5495W        W21756   8.914  10.894   4.605  0.4197  0.1250  0.0279
 5496W        W21757   6.783   8.234  15.017 -0.2809 -0.0934 -0.0484
 5497W        W21758  16.421  10.425   1.156  0.2372  0.0396  0.1595
 5498W        W21759  16.265   3.890  10.534 -0.1848  0.0279  0.0945
 5499W        W21760  13.125  14.281  13.055 -0.1237  0.0588  0.1283
 5500W        W21761   5.456  16.118   1.743  0.0875  0.0557  0.5468
 5501W        W21762   2.748  15.033  11.921 -0.2878  0.0522 -0.5667
 5502W        W21763  18.004  14.700   2.303 -0.0087 -0.1085  0.1605
 5503W        W21764   2.241   4.370   3.759 -0.0055 -0.0892 -0.1735
 5504W        W21765  12.558   5.451  11.722  0.0011 -0.1977 -0.0690
 5505W        W21766  15.099  17.149   0.921  0.1253  0.0673  0.2211
 5506W        W21767  10.059  12.105  13.500  0.0117 -0.1294 -0.0272
 5507W        W21768  12.008  13.513  13.427 -0.0460  0.0471  0.3157
 5508W        W21769  17.974   1.480   4.717 -0.0920 -0.2773  0.1446
 5509W        W21770   2.013   2.088  11.553 -0.0382  0.1095 -0.0028
 5510W        W21771  13.874   8.762   4.703 -0.1136  0.0336 -0.2173
 5511W        W21772  18.445   1.409   3.651  0.0160 -0.1385 -0.3805
 5512W        W21773   4.781   6.855  12.833 -0.0375 -0.0152  0.3541
 5513W        W21774   8.521  14.854   5.811 -0.0271  0.0285 -0.3112
 5514W        W21775  12.883   1.584  12.401 -0.0312  0.0808 -0.2177
 5515W        W21776  12.265  12.832  13.010 -0.2108  0.0205  0.3517
 5516W        W21777  17.994   6.214  14.625 -0.2215  0.2483 -0.1842
 5517W        W21778  13.497  13.669  13.673 -0.1972  0.0270 -0.2743
 5518W        W21779   8.662   3.040   4.482  0.4112 -0.2145 -0.1725
 5519W        W21780  14.461   3.938   2.566 -0.2362 -0.0622 -0.1236
 5520W        W21781  17.564  13.876  13.050 -0.1207  0.0239  0.2027
 5521W        W21782  17.279  17.190   5.002  0.0970 -0.0263  0.1743
 5522W        W21783   7.676   8.963  14.950  0.0451 -0.1314 -0.3935
 5523W        W21784  10.939  12.881   0.482 -0.1854 -0.0520 -0.1547
 5524W        W21785   0.368   7.747  12.373  0.0593  0.0213 -0.0367
 5525W        W21786   7.783  10.496  11.548 -0.2582  0.2303  0.1361
 5526W        W21787  11.230  15.905   3.922 -0.1194  0.1700  0.2401
 5527W        W21788  10.754   4.342  13.626 -0.0625 -0.3647 -0.1438
 5528W        W21789   3.464   6.786  11.573 -0.2564  0.1211 -0.0092
 5529W        W21790  16.184   9.164  14.748 -0.2176 -0.0117  0.0696
 5530W        W21791   0.980  12.955   3.209  0.0975  0.0932 -0.3279
 5531W        W21792  11.038  11.060   3.926 -0.1156  0.1581  0.0632
 5532W        W21793  13.643   4.434  14.540  0.1449  0.2239 -0.0034
 5533W        W21794   7.906  12.122   3.245 -0.0193 -0.2569 -0.1169
 5534W        W21795   8.829   1.193   4.907 -0.3602 -0.3402 -0.2199
 5535W        W21796   8.036  14.863  11.997 -0.1318  0.0746  0.0205
 5536W        W21797  11.669   2.144  14.824 -0.0247 -0.0092 -0.0521
 5537W        W21798   3.624   4.255  14.478 -0.7002 -0.2272 -0.1766
 5538W        W21799  12.966   2.081   2.940 -0.0861 -0.1436  0.4270
 5539W        W21800  18.208  13.273   2.832 -0.0999  0.1246 -0.1981
 5540W        W21801   8.842   8.788   0.163 -0.1389 -0.2208  0.2886
 5541W        W21802  14.688   1.968  12.058 -0.1432  0.0535 -0.3665
 5542W        W21803  15.492  15.355  12.240  0.1084 -0.3270 -0.0830
 5543W        W21804  14.574   7.018  14.663 -0.2542  0.1042  0.3021
 5544W        W21805  11.651  10.753   2.373  0.3233 -0.0680 -0.0278
 5545W        W21806   9.502   5.037  12.759  0.2203  0.2704 -0.0165
 5546W        W21807   6.058  10.452   1.677 -0.0085  0.1117  0.0962
 5547W        W21808  10.367  10.013  10.981 -0.2575 -0.1183 -0.0221
 5548W        W21809   6.066  11.698  10.086  0.2248  0.2208  0.0929
 5549W        W21810  10.907   8.945   6.068  0.1985  0.1578 -0.3209
 5550W        W21811   2.569   1.126  12.542  0.0205  0.0105 -0.3147
 5551W        W21812  15.642  11.551   1.218 -0.2052  0.0813 -0.2716
 5552W        W21813   8.733  16.857   1.417  0.2851 -0.1346  0.1299
 5553W        W21814  13.159  14.070  13.629 -0.5384  0.2554 -0.1709
 5554W        W21815  15.398   4.028  13.039 -0.2365  0.4428  0.0641
 5555W        W21816   2.208   6.682   0.080 -0.1457  0.0364 -0.0141
 5556W        W21817  10.233  14.831  12.809 -0.3903  0.0821 -0.2614
 5557W        W21818  12.548  15.780   4.261 -0.0832 -0.1698 -0.2394
 5558W        W21819  17.066   7.304   4.696  0.0566  0.1714 -0.3375
 5559W        W21820   9.380  11.079   2.965 -0.2180 -0.2014  0.1435
 5560W        W21821  15.221  18.318   0.312  0.0537 -0.1196 -0.4246
 5561W        W21822   5.355  15.497  13.148  0.3093  0.1033 -0.2825
 5562W        W21823  12.479   5.392   0.363  0.3052 -0.0767 -0.1764
 5563W        W21824   5.953  10.194  15.433  0.2407  0.2373  0.3306
 5564W        W21825   4.486   5.072   3.706 -0.0757  0.1684  0.2899
 5565W        W21826   3.012   6.629  14.574  0.0599  0.4225  0.0498
 5566W        W21827   7.501  13.315  14.182 -0.0881 -0.0218  0.1177
 5567W        W21828   4.174  16.335  12.218  0.0830  0.2015 -0.0306
 5568W        W21829  10.117  17.418   4.660  0.1573  0.1456 -0.0773
 5569W        W21830  10.524   6.889  14.124 -0.0009  0.0903 -0.2475
 5570W        W21831  16.825  11.016  11.025 -0.1417 -0.0834 -0.2402
 5571W        W21832   2.069   5.488  15.154  0.0758 -0.0389 -0.0190
 5572W        W21833  13.565  14.225  13.419  0.1436  0.1699  0.1224
 5573W        W21834   3.353   9.786   3.084  0.0664  0.0151 -0.1560
 5574W        W21835  10.067  12.906  13.382  0.3315  0.0486 -0.0604
 5575W        W21836   8.771   5.926  15.205 -0.1143 -0.1800  0.1170
 5576W        W21837  11.319   3.765   5.605 -0.3121 -0.0044  0.1936
 5577W        W21838   8.980  14.659  12.320 -0.1090 -0.0492  0.0164
 5578W        W21839   7.019  18.430   4.337 -0.1560 -0.2475 -0.0382
 5579W        W21840   4.508  10.771   1.487  0.1862 -0.0140  0.2305
 5580W        W21841   7.080  11.248   1.540 -0.1865  0.1326 -0.1125
 5581W        W21842   1.129   8.682  14.911 -0.1523 -0.3157  0.1970
 5582W        W21843  12.616   7.605   0.339  0.0676  0.0132  0.0867
 5583W        W21844  13.640  15.848  14.966  0.0265  0.2809 -0.3767
 5584W        W21845   6.659  18.780   2.074  0.1129  0.2004 -0.0080
 5585W        W21846  15.036   5.964   4.426  0.0075 -0.1094  0.2889
 5586W        W21847   7.237   9.967  14.636  0.0055 -0.1308  0.0330
 5587W        W21848  17.086  11.960  14.984 -0.1817 -0.1622 -0.0117
 5588W        W21849  10.999  16.314   3.143 -0.0807  0.1234 -0.1327
 5589W        W21850   7.189   4.294   0.922 -0.0993  0.1199 -0.0982
 5590W        W21851  11.959  11.533  12.317 -0.2536  0.1981  0.0836
 5591W        W21852  13.121  18.299   0.134  0.0683 -0.1581  0.1856
 5592W        W21853  15.848  12.104  15.513 -0.2347 -0.0128  0.0296
 5593W        W21854   8.546  11.704  14.859  0.2332  0.0964 -0.1904
 5594W        W21855  14.355  13.702  14.923  0.1086 -0.0897 -0.0389
 5595W        W21856  17.572   1.171  13.710 -0.0476 -0.1560  0.0371
 5596W        W21857  11.746  11.557   4.398  0.1053 -0.0464 -0.1814
 5597W        W21858   4.407  15.756   0.939 -0.1171  0.2287  0.2402
 5598W        W21859  10.485  16.796  14.545  0.2109 -0.1501  0.2973
 5599W        W21860  11.087   8.441   2.100  0.2128  0.1077  0.1043
 5600W        W21861   0.153  10.390   1.953  0.1142 -0.2321  0.0210
 5601W        W21862   1.194   5.575  13.899  0.0295 -0.4431  0.2149
 5602W        W21863  17.275  17.053   4.454  0.1821 -0.1620  0.2141
 5603W        W21864  16.298   0.753   0.192 -0.0663 -0.1556  0.0753
 5604W        W21865   9.536   6.721   1.000  0.2926 -0.2353 -0.2783
 5605W        W21866   0.674   1.898  14.270  0.5589  0.0074  0.1430
 5606W        W21867   8.534  11.013  14.290 -0.3652 -0.1228  0.0708
 5607W        W21868   7.780   2.395   2.504  0.1330 -0.2749 -0.0957
 5608W        W21869  12.060   5.902  14.657 -0.0379 -0.1716 -0.0417
 5609W        W21870   3.505  11.099   0.572  0.3684  0.0736 -0.2253
 5610W        W21871  13.587  18.201  11.424  0.0034 -0.4284 -0.1777
 5611W        W21872   7.632  15.186  13.851  0.0599  0.0075  0.0730
 5612W        W21873   4.609  12.154   3.404 -0.3881 -0.0639  0.0722
 5613W        W21874  17.174  14.747   1.947 -0.1959 -0.2896  0.1029
 5614W        W21875  14.743   4.949   5.094  0.0875  0.1186 -0.1934
 5615W        W21876   6.211   1.571   1.134 -0.1567  0.2726  0.1684
 5616W        W21877  12.356  17.142  12.552 -0.0918  0.2868 -0.0434
 5617W        W21878   7.941   4.997  13.314  0.1828 -0.1757 -0.1051
 5618W        W21879  12.245   8.062  14.386 -0.1613 -0.2630  0.1612
 5619W        W21880   1.138  12.147   0.178  0.0309 -0.2487 -0.1538
 5620W        W21881  12.317   1.704  14.091 -0.0699 -0.1242 -0.0184
 5621W        W21882   4.016  12.370   2.435  0.3455  0.0208  0.0809
 5622W        W21883  17.463   8.399  11.258 -0.0344  0.0664  0.0274
 5623W        W21884   0.641   5.641  14.702 -0.1240  0.0778  0.1578
 5624W        W21885   6.821   1.189   1.083 -0.0532  0.0046  0.0769
 5625W        W21886   9.994  14.928   5.551  0.1195 -0.0509  0.2074
 5626W        W21887  18.743   0.589  15.586  0.1341 -0.0679 -0.0136
 5627W        W21888   8.161  17.896   1.155 -0.3297  0.1388  0.3883
 5628W        W21889   9.396   9.932   2.664 -0.0935 -0.2771 -0.1105
 5629W        W21890  17.028  13.645  13.104 -0.0535  0.0558  0.0152
 5630W        W21891   1.075   4.254   3.931 -0.0933 -0.1251 -0.1846
 5631W        W21892  18.655   2.807  14.732 -0.0158 -0.0961 -0.1454
 5632W        W21893  13.433  14.196  11.256 -0.0170  0.1642  0.2783
 5633W        W21894  15.414  15.908   4.521  0.2281 -0.2911  0.0255
 5634W        W21895  17.197   2.264  15.211  0.1350 -0.1282 -0.0050
 5635W        W21896  11.898   8.530  14.306 -0.1285 -0.1305  0.2788
 5636W        W21897   2.802  18.655   0.799  0.1213  0.0448 -0.3084
 5637W        W21898   0.089   5.280   0.122  0.4811  0.1873 -0.1328
 5638W        W21899   3.798  10.644   3.543  0.2100  0.2047  0.2229
 5639W        W21900   9.877   7.241  11.832 -0.2226  0.0459  0.1207
 5640W        W21901  10.717  18.340   5.506 -0.1079 -0.3589 -0.0169
 5641W        W21902   6.543  18.667  15.069  0.0791  0.1847  0.1594
 5642W        W21903   4.197  16.932  12.878  0.0332 -0.1316  0.0206
 5643W        W21904  13.019  13.020   0.324 -0.1785  0.0298  0.1586
 5644W        W21905   5.020  13.995  15.244 -0.0633 -0.0279 -0.1856
 5645W        W21906   8.997  15.906  11.727 -0.0583  0.0472 -0.1582
 5646W        W21907   6.801  10.998   2.384  0.0672  0.1387 -0.2043
 5647W        W21908  10.715  11.624   1.294  0.0438 -0.2393  0.1355
 5648W        W21909  11.606   0.395   0.462  0.4105 -0.5566  0.0288
 5649W        W21910  11.664   1.587  15.449  0.1326 -0.0405 -0.1103
 5650W        W21911   7.032  16.310  13.317 -0.0374  0.2812  0.0179
 5651W        W21912   6.947  15.493  11.923  0.1808  0.1764  0.1598
 5652W        W21913   6.234  17.161   2.615 -0.1190  0.1100 -0.0314
 5653W        W21914  12.709  12.681   1.671  0.2689 -0.4946  0.2581
 5654W        W21915  13.044   0.117   4.911 -0.0502  0.1822  0.0745
 5655W        W21916   1.820   6.087   4.376  0.2622  0.2710 -0.0807
 5656W        W21917   7.597   6.784   4.694 -0.0563 -0.0520  0.2430
 5657W        W21918   7.946   4.600  10.554 -0.2812  0.1737  0.3678
 5658W        W21919  11.787   3.920   4.120  0.2089  0.3198  0.2055
 5659W        W21920   4.905   4.390   4.170  0.2873  0.0908  0.0698
 5660W        W21921   1.916  10.777  14.185  0.1502  0.0038 -0.0978
 5661W        W21922  13.163   9.498   4.427 -0.1255  0.3165 -0.2162
 5662W        W21923   2.416  11.221   1.073 -0.2417  0.1924  0.2061
 5663W        W21924  18.122   9.142  15.582 -0.1081  0.1401  0.0508
 5664W        W21925  16.559  17.614   1.815  0.2670 -0.6750  0.0262
 5665W        W21926  17.782  15.554   0.071 -0.0114 -0.1586 -0.0480
 5666W        W21927   0.866   1.068  12.886 -0.0851 -0.0351  0.0595
 5667W        W21928   6.643  16.079   1.273  0.1028 -0.0005 -0.1472
 5668W        W21929   0.672   6.735  11.266  0.1004  0.2481 -0.2500
 5669W        W21930   2.277  15.363  13.952  0.1816  0.0496 -0.0553
 5670W        W21931  11.056  15.415  14.087 -0.0958 -0.0188 -0.3666
 5671W        W21932   3.840  15.900   4.893 -0.1132  0.1790  0.0936
 5672W        W21933   4.474   8.395  13.545 -0.3554  0.1942 -0.2286
 5673W        W21934   2.673   8.572  13.054 -0.0795 -0.0499  0.2955
 5674W        W21935   4.805   3.592   2.997 -0.4307 -0.1416  0.2295
 5675W        W21936  17.878   2.236   2.101  0.0493  0.0010  0.1413
 5676W        W21937   8.348   3.876   1.092 -0.0877  0.0799 -0.3271
 5677W        W21938   8.097   3.334   5.607  0.1650 -0.2774  0.0244
 5678W        W21939  15.470  11.199   2.986 -0.0110  0.2962 -0.1821
 5679W        W21940  13.500  14.954   1.823  0.0419  0.0178  0.5774
 5680W        W21941   6.653   6.474  15.320  0.0643 -0.0097  0.2377
 5681W        W21942  17.217   9.829   2.983 -0.0756 -0.2374 -0.0553
 5682W        W21943  13.382  16.006   4.358  0.1332  0.2989  0.1658
 5683W        W21944  14.610   2.554  10.709 -0.1158  0.0688  0.2430
 5684W        W21945  10.917  13.656  14.333 -0.0318 -0.4204  0.0382
 5685W        W21946   1.713   8.699   5.489 -0.1901 -0.2200  0.0915
 5686W        W21947   1.022  12.659   4.770  0.2869 -0.2823 -0.0937
 5687W        W21948  11.062   4.921   0.766 -0.1357 -0.0195 -0.0796
 5688W        W21949  15.211  17.217   5.557 -0.1126  0.0336 -0.0797
 5689W        W21950  12.744  16.529  15.004 -0.2452  0.4818  0.0255
 5690W        W21951   8.843  12.931   1.721 -0.3655 -0.0069  0.1400
 5691W        W21952   8.481   7.999   2.784 -0.0559  0.1211  0.2434
 5692W        W21953   2.715  12.201  14.884  0.0449  0.5315  0.2482
 5693W        W21954  12.731   3.522   1.319 -0.1037  0.0683  0.1580
 5694W        W21955  16.543   0.594  10.746 -0.0347  0.1637 -0.1427
 5695W        W21956   3.163  14.851   4.520 -0.0464 -0.1499  0.0129
 5696W        W21957  11.611   0.299  12.519 -0.1349  0.0379 -0.2744
 5697W        W21958   7.420  17.925   5.199  0.1442  0.0416  0.4761
 5698W        W21959   5.930  13.609  15.337 -0.1588  0.2848 -0.1195
 5699W        W21960  17.447   4.004   1.776  0.0889 -0.3133  0.0386
 5700W        W21961   5.035   0.841   4.128  0.1651  0.0035 -0.1431
 5701W        W21962   2.792   5.796   4.526  0.1817 -0.1871  0.0715
 5702W        W21963   5.458  13.381  15.433  0.1399 -0.4299 -0.1045
 5703W        W21964  13.657  18.357   2.849  0.1476 -0.0271  0.1487
 5704W        W21965   8.378  11.578   1.337 -0.0580  0.0805  0.2000
 5705W        W21966  16.855  11.736   3.868  0.0061  0.2290  0.1475
 5706W        W21967   9.578   3.678   4.475 -0.0237  0.2326 -0.1287
 5707W        W21968  13.651   9.760   5.354 -0.2459  0.3271  0.1574
 5708W        W21969   5.492   0.355  11.759 -0.3483 -0.2216  0.0652
 5709W        W21970  11.513   0.540  15.175  0.2388  0.0989 -0.0640
 5710W        W21971   0.035  12.269   2.632 -0.4561  0.1073  0.1237
 5711W        W21972  15.558  16.009  13.199 -0.0599 -0.0892 -0.0795
 5712W        W21973   4.820   5.005   2.260  0.3977  0.0711 -0.2347
 5713W        W21974  11.945   6.218  12.046 -0.0355  0.1733  0.1066
 5714W        W21975   1.747   8.953  12.047  0.0611  0.1470 -0.2120
 5715W        W21976   7.952   4.261   2.986  0.1691 -0.2898  0.0231
 5716W        W21977   5.417  14.289  15.371  0.1523 -0.3672 -0.0241
 5717W        W21978   5.154  18.658   2.406 -0.2033  0.0568  0.2330
 5718W        W21979   7.032  14.225   4.986 -0.0005  0.0830  0.0838
 5719W        W21980   4.090  11.181   2.198  0.0152  0.2541  0.0450
 5720W        W21981   0.256  17.191  12.269 -0.0004  0.1301  0.2530
 5721W        W21982  16.156  18.063  13.560  0.1230 -0.0817 -0.1972
 5722W        W21983  15.363   9.731  11.391  0.1470  0.1719  0.0424
 5723W        W21984  10.812  14.142  12.920 -0.3973  0.2815 -0.1300
 5724W        W21985  12.371   1.746  11.251 -0.0891  0.0305  0.0832
 5725W        W21986   9.293  17.861   0.381 -0.1323  0.2707  0.0777
 5726W        W21987   1.595  14.375   0.748  0.1763 -0.4372 -0.0497
 5727W        W21988   0.620  15.921   3.591 -0.2764  0.3384 -0.3824
 5728W        W21989  12.653  14.849  10.361  0.0212 -0.2912 -0.2226
 5729W        W21990   8.008  18.678   4.201  0.0092 -0.0647 -0.2442
 5730W        W21991  17.138   0.177   4.377  0.1305 -0.1544 -0.0766
 5731W        W21992   6.028   0.983  14.330 -0.2665 -0.2030  0.0530
 5732W        W21993   9.044  18.659   4.077  0.0043 -0.1772  0.1692
 5733W        W21994  18.668   8.055  14.125  0.1018 -0.3433 -0.1834
 5734W        W21995  18.014   9.231   4.658  0.2074 -0.2455  0.0453
 5735W        W21996  13.677   1.671  11.331  0.0072  0.1797 -0.1177
 5736W        W21997   0.803   3.308   2.887  0.1276  0.2585 -0.0409
 5737W        W21998   1.151   0.851  13.864 -0.6035  0.3031 -0.0159
 5738W        W21999  15.993  14.739  12.526 -0.3665 -0.2671 -0.4016
 5739W        W22000  17.485   8.511   3.120  0.0638  0.0686  0.3977
 5740W        W22001   4.411  14.231   4.477  0.3285 -0.2568 -0.1435
 5741W        W22002  13.097   5.821  13.722 -0.1641  0.1502 -0.0903
 5742W        W22003  15.006   2.358   4.440 -0.3150 -0.2210  0.0167
 5743W        W22004   9.955   2.452  15.593 -0.0163  0.1458 -0.2008
 5744W        W22005  15.322  18.203  15.377 -0.1943 -0.1226 -0.1233
 5745W        W22006  16.860  16.693  14.142 -0.4373 -0.1847 -0.0240
 5746W        W22007   0.396   3.461  10.880  0.2933  0.0332  0.0274
 5747W        W22008  12.573   0.485  14.318 -0.0698 -0.0012  0.5883
 5748W        W22009   0.912   0.477   5.790 -0.3659 -0.2152  0.1201
 5749W        W22010   4.165  14.361   4.021  0.1438  0.1234  0.0160
 5750W        W22011  16.394   2.761  11.896  0.3291 -0.2863 -0.1957
 5751W        W22012  15.593  16.397   1.376  0.1096 -0.0223  0.0458
 5752W        W22013  10.493   9.320  11.582 -0.1859 -0.0438 -0.4570
 5753W        W22014  12.263   7.746   0.852  0.0988  0.1682 -0.0400
 5754W        W22015  12.127  12.939   0.548 -0.1789 -0.0532 -0.0555
 5755W        W22016  11.532  10.287  12.146  0.1482  0.0718  0.2509
 5756W        W22017   9.152   7.761   3.668  0.0861  0.0203  0.0340
 5757W        W22018   3.477   5.540   0.536  0.0807 -0.2062  0.2194
 5758W        W22019  15.265   5.595   5.056 -0.1652  0.3930 -0.0333
 5759W        W22020  17.758  11.806   3.269 -0.1140  0.1673 -0.0586
 5760W        W22021   3.060   6.361  13.652 -0.0143 -0.2450  0.2556
 5761W        W22022  17.162   0.494   5.015  0.0877  0.0348 -0.2203
 5762W        W22023   6.408   6.286   1.738  0.1295 -0.5768 -0.1349
 5763W        W22024   0.875   0.074  15.430  0.0273  0.2396 -0.0294
 5764W        W22025  14.962  17.766   4.360  0.1484  0.2362  0.2895
 5765W        W22026   7.075  15.562  14.463 -0.1092  0.2313 -0.5558
 5766W        W22027   5.063  12.552   1.492  0.1861 -0.0678  0.0893
 5767W        W22028   1.524   5.484  13.452 -0.1562 -0.2382  0.2941
 5768W        W22029  12.494   0.468   1.597 -0.0544 -0.2279  0.2823
 5769W        W22030   5.052  12.428  15.283  0.0971  0.1338  0.2741
 5770W        W22031  12.669  11.088  11.838  0.1320 -0.3734 -0.1165
 5771W        W22032  10.510   2.892  14.957  0.1086  0.1194 -0.0132
 5772W        W22033   9.227   4.741   0.031  0.0060  0.3420 -0.2321
 5773W        W22034   0.196   2.029   1.826  0.0487  0.0168 -0.0854
 5774W        W22035  11.217  13.769   4.288 -0.1289 -0.2422  0.0349
 5775W        W22036   8.151  11.166   2.405  0.1286 -0.0029 -0.1145
 5776W        W22037   1.529   2.790  15.104  0.0504 -0.0590 -0.0650
 5777W        W22038  12.270   3.425   1.246  0.2052 -0.1029 -0.0751
 5778W        W22039   1.269   2.314  15.182 -0.2959  0.1242 -0.1588
 5779W        W22040  18.088   0.267   3.581  0.1742 -0.0633  0.2225
 5780W        W22041  10.112   8.570  14.520  0.0978 -0.0134  0.1894
 5781W        W22042  10.976   9.370   1.947 -0.3456  0.2765 -0.1641
 5782W        W22043   4.772   8.568   1.230 -0.2918  0.1914 -0.0826
 5783W        W22044   0.152  12.489  12.860  0.1244 -0.1593  0.0335
 5784W        W22045   5.392  11.507  12.853 -0.0281 -0.0439  0.0620
 5785W        W22046   9.218  11.327   1.826 -0.0909  0.3697 -0.0260
 5786W        W22047   0.532   0.972  12.419 -0.0451 -0.0872 -0.4972
 5787W        W22048   3.868  12.538   4.201  0.0242  0.1877 -0.0851
 5788W        W22049  14.404   2.763   1.787  0.3611 -0.1361 -0.0477
 5789W        W22050  13.952  12.867  13.453  0.1420 -0.1777 -0.0207
 5790W        W22051   7.234  16.629  15.480 -0.2969 -0.3281  0.0100
 5791W        W22052   5.167  15.333   1.661 -0.1920  0.2138  0.0142
 5792W        W22053   6.133  10.107  14.584 -0.0467 -0.1042 -0.2455
 5793W        W22054  15.098   5.457  13.553 -0.0301  0.1508  0.2574
 5794W        W22055  13.508   7.515  10.958 -0.1731 -0.0940  0.3597
 5795W        W22056   9.660   8.442   0.172  0.1974  0.0155 -0.1476
 5796W        W22057  11.031  14.697  11.511  0.1203 -0.0358 -0.0044
 5797W        W22058  10.974   5.953  11.860 -0.1314  0.2980 -0.3347
 5798W        W22059  17.260   1.568  13.526 -0.0288 -0.2242 -0.1084
 5799W        W22060  15.183  11.129   2.570  0.0890  0.1229  0.0098
 5800W        W22061   5.622   8.427  13.382  0.0677 -0.2777 -0.2079
 5801W        W22062   3.669   7.071   2.506  0.1753  0.0678 -0.0620
 5802W        W22063   7.334   8.740   0.809 -0.1147 -0.0396  0.1560
 5803W        W22064  11.572  17.120   3.037  0.0398 -0.0925  0.0351
 5804W        W22065  18.294  10.326   1.143  0.1475 -0.3476  0.1391
 5805W        W22066  18.643   5.474  11.732 -0.0460  0.0101 -0.0666
 5806W        W22067  13.750   3.026   3.325 -0.1395 -0.0625  0.0012
 5807W        W22068   5.923   8.307   3.770 -0.1467  0.1862 -0.1517
 5808W        W22069  12.496   3.467  11.269  0.0331  0.3149  0.2553
 5809W        W22070   3.301   5.521   3.254  0.0582 -0.1686  0.0798
 5810W        W22071   2.161  13.484   2.753 -0.0930  0.0954 -0.0591
 5811W        W22072   8.233   5.809   1.454  0.2551  0.1586 -0.2212
 5812W        W22073  16.374   2.437  10.535  0.1209 -0.1125  0.2884
 5813W        W22074   0.579  14.703  12.730  0.0231  0.0678 -0.2195
 5814W        W22075  17.025  17.093   3.573 -0.1957 -0.1290 -0.0776
 5815W        W22076   7.055  10.875   4.536 -0.0378 -0.1566  0.2726
 5816W        W22077   8.182  18.475  13.452  0.0641 -0.0782  0.1389
 5817W        W22078  16.564  14.742  14.492  0.2963 -0.0615  0.0761
 5818W        W22079   7.091  17.164   2.718  0.2039  0.0859 -0.2207
 5819W        W22080   3.300   3.657  14.435  0.1789 -0.1656 -0.0164
 5820W        W22081  16.748   1.225  13.224 -0.1984  0.0841  0.0576
 5821W        W22082  14.978   3.597  12.605  0.1242 -0.3114  0.0589
 5822W        W22083   1.784  10.491  15.377 -0.4468 -0.2107 -0.1182
 5823W        W22084   6.839  14.699   0.623 -0.2316 -0.1758  0.2470
 5824W        W22085   0.082   3.558   3.358 -0.0209 -0.1046  0.1482
 5825W        W22086  11.830   2.161  13.167  0.1466  0.0639  0.2229
 5826W        W22087  10.335   3.192  11.836 -0.1805  0.1358 -0.1031
 5827W        W22088   9.151   2.224  12.436 -0.2272  0.0514  0.0706
 5828W        W22089   4.839   4.076  13.132  0.2087 -0.0431 -0.2594
 5829W        W22090  11.878   2.038  13.944  0.0050  0.0601  0.2055
 5830W        W22091  16.477   0.848   5.343 -0.0602 -0.2185  0.1842
 5831W        W22092   7.148  16.368  15.032  0.3567  0.1263 -0.3548
 5832W        W22093   7.810  17.070  12.414  0.0786 -0.2095 -0.1252
 5833W        W22094  12.291  15.347   3.109  0.0580 -0.2046  0.3106
 5834W        W22095  18.071   2.970  11.125  0.0175 -0.0605 -0.1710
 5835W        W22096  11.957   5.079   4.448  0.0126 -0.1345  0.0985
 5836W        W22097  16.480   4.984  15.273 -0.3038 -0.0521 -0.0828
 5837W        W22098  12.076  17.896  11.380 -0.4176 -0.0944  0.0586
 5838W        W22099  13.066  13.768   4.633 -0.1562 -0.0303  0.3014
 5839W        W22100   9.678   7.450   5.541 -0.0314 -0.0471 -0.0404
 5840W        W22101   7.095  11.200   2.050  0.1277  0.3137 -0.0557
 5841W        W22102  13.239  10.648   3.897  0.2795  0.0289 -0.1825
 5842W        W22103   3.384   0.105  15.555  0.1316 -0.1856 -0.0631
 5843W        W22104   0.327  14.153  13.785  0.0458  0.3015  0.2617
 5844W        W22105  10.484   8.695   5.099  0.0843  0.2284 -0.1707
 5845W        W22106   2.944   1.500  15.009 -0.0696 -0.2076 -0.1627
 5846W        W22107   8.021  11.243  12.713 -0.1092 -0.3995 -0.1191
 5847W        W22108   0.495  15.604   0.149 -0.1424  0.1183 -0.0345
 5848W        W22109  13.578   0.983  11.925 -0.1261  0.1266 -0.0639
 5849W        W22110   5.466  16.546  10.705 -0.0406 -0.0419 -0.1410
 5850W        W22111   4.851   8.629  15.355  0.0841 -0.0885  0.3951
 5851W        W22112  13.948   8.000   5.153  0.0339 -0.1986 -0.1307
 5852W        W22113   5.162   8.594   4.177  0.1487 -0.0518 -0.0768
 5853W        W22114  14.941   4.500   4.185  0.0601  0.0422 -0.1805
 5854W        W22115  12.760  14.085  10.144 -0.2933  0.1131  0.0308
 5855W        W22116   7.699  12.109   5.494 -0.1517  0.0514  0.1962
 5856W        W22117  10.399   0.559   0.665  0.2285  0.5021 -0.2431
 5857W        W22118  17.004   8.563   3.309  0.2830  0.1399  0.0101
 5858W        W22119   2.700   8.247   3.183 -0.0751  0.0088  0.2503
 5859W        W22120  14.371  12.378   2.392  0.0702 -0.1388 -0.0822
 5860W        W22121   8.198   0.370   2.871  0.0027 -0.1275 -0.0220
 5861W        W22122   6.218  17.863  14.521 -0.0735  0.0277  0.0439
 5862W        W22123   4.013   9.291   0.081 -0.0492  0.0179 -0.2839
 5863W        W22124   4.120   1.418   2.981 -0.0495  0.1322 -0.0013
 5864W        W22125   4.654  13.872   1.188 -0.0793 -0.2445 -0.2300
 5865W        W22126  10.547   8.176   1.120  0.0026 -0.2243  0.0732
 5866W        W22127  17.179  18.797   3.937  0.1853  0.1231 -0.1328
 5867W        W22128   8.572  17.058  11.053 -0.2256  0.0870  0.0272
 5868W        W22129   2.020  13.190  15.401 -0.1044 -0.0252 -0.0043
 5869W        W22130  11.266  10.393  14.732  0.1333  0.2504  0.3410
 5870W        W22131   8.326  18.308   4.361  0.1268 -0.2411 -0.0372
 5871W        W22132   9.284   0.672  14.147  0.0998 -0.1347 -0.3095
 5872W        W22133  11.184  13.550  13.899  0.1469  0.2558  0.4884
 5873W        W22134   7.341   8.497   3.432 -0.1898  0.0889 -0.0859
 5874W        W22135  11.275   9.045  13.053  0.4416 -0.3125  0.0959
 5875W        W22136   8.867   3.936   2.433 -0.3605  0.1759 -0.2011
 5876W        W22137   1.965  17.558   0.179 -0.1061  0.1500  0.1634
 5877W        W22138  14.592   0.823   2.673 -0.0403  0.0670  0.0438
 5878W        W22139  17.311  15.152   3.050  0.1034  0.0784 -0.0741
 5879W        W22140  12.323  11.093   2.214  0.0306  0.0892 -0.0746
 5880W        W22141  12.033  10.985  11.068 -0.0998  0.2225  0.1899
 5881W        W22142   9.181   3.548   6.576 -0.1962 -0.0943 -0.0258
 5882W        W22143   7.932  15.764  15.025  0.1187  0.4053  0.0264
 5883W        W22144  10.338  12.445  14.998  0.0271  0.0528 -0.1858
 5884W        W22145   2.683  15.353   0.793 -0.1120  0.1683  0.3892
 5885W        W22146  11.821  12.021  13.990  0.0474  0.0441  0.0665
 5886W        W22147   5.689   9.391  13.010  0.0778  0.0443  0.0878
 5887W        W22148   7.663  12.995  11.786 -0.0774 -0.0038 -0.1435
 5888W        W22149   2.042  18.658  10.731 -0.1452  0.0987  0.3389
 5889W        W22150  12.348   9.796   3.800 -0.2018  0.4260 -0.0966
 5890W        W22151   3.791   8.008  12.731 -0.2810  0.1241 -0.0682
 5891W        W22152   6.700   8.492  11.658 -0.2456  0.0546 -0.2947
 5892W        W22153   5.168  12.963  13.921  0.1296  0.2409  0.1318
 5893W        W22154   8.377  13.972   4.371 -0.4080 -0.2693 -0.1676
 5894W        W22155  12.442  16.852   3.835  0.0185 -0.1598 -0.1203
 5895W        W22156  17.767  15.772  14.735  0.0975 -0.1662  0.0996
 5896W        W22157  16.498   2.590   1.016 -0.0319  0.4342 -0.0569
 5897W        W22158  15.027   8.996  15.555  0.2063 -0.5379  0.0545
 5898W        W22159   5.971  18.328   4.605 -0.2720  0.1735 -0.3363
 5899W        W22160   5.390  14.147   4.143 -0.4471  0.0646  0.2896
 5900W        W22161   0.393  16.370  13.940  0.0089 -0.2846  0.1458
 5901W        W22162  16.998   9.265   1.068  0.2060  0.1826  0.1596
 5902W        W22163   0.365  13.611   1.056 -0.0366 -0.0656 -0.1982
 5903W        W22164   0.884   4.293   4.999  0.0859  0.0148  0.1165
 5904W        W22165  13.501   4.120   1.061 -0.2110  0.0622 -0.1262
 5905W        W22166   8.595   9.864  15.111  0.0208  0.0214  0.1769
 5906W        W22167   6.221  16.736   4.723  0.3111  0.0820 -0.3636
 5907W        W22168   0.247   0.925  11.977 -0.3440  0.4326 -0.5094
 5908W        W22169  11.889   5.084   2.914 -0.4519 -0.0607 -0.1630
 5909W        W22170  10.481   6.071   3.391  0.2750 -0.2086  0.1577
 5910W        W22171  12.782  15.407  13.118  0.3575 -0.0712 -0.0715
 5911W        W22172  15.348  18.300  11.911 -0.0981  0.1585  0.1561
 5912W        W22173   5.602  18.438   1.938 -0.0724 -0.1632  0.1446
 5913W        W22174  16.984   2.828   3.836  0.2303  0.2304 -0.1201
 5914W        W22175   4.625  16.127  13.220  0.5229  0.1288 -0.0964
 5915W        W22176  15.087  18.479   4.150 -0.3094 -0.1393 -0.0075
 5916W        W22177   8.233   4.932  12.894 -0.1232  0.0444 -0.2401
 5917W        W22178   2.077   0.188   5.283 -0.0105  0.0340  0.0839
 5918W        W22179  16.412  18.734   4.917 -0.3082 -0.0001  0.0089
 5919W        W22180   0.323  11.242   4.102  0.3153  0.2810 -0.0579
 5920W        W22181  15.468   6.567   2.794 -0.0638  0.0074  0.0627
 5921W        W22182  14.143  17.772   4.550 -0.2537  0.0938 -0.0746
 5922W        W22183   1.082  12.768  11.987  0.1694  0.0062  0.4822
 5923W        W22184   3.335   8.755   2.133 -0.1249  0.0356  0.2193
 5924W        W22185  13.570   0.940   1.463 -0.1114  0.6207 -0.2300
 5925W        W22186  18.256   4.011   3.310  0.0400 -0.1904  0.1490
 5926W        W22187  17.972  16.866   2.812  0.2890 -0.0249 -0.0612
 5927W        W22188   6.669   3.734   1.380  0.1074  0.0799 -0.1415
 5928W        W22189  10.093  10.783   2.339 -0.1263  0.0149 -0.4576
 5929W        W22190   9.048  16.550  12.943  0.0942 -0.2409  0.1658
 5930W        W22191  18.550  14.486   3.684  0.1446 -0.1315 -0.2543
 5931W        W22192   3.236   7.342   0.888 -0.0369  0.2722 -0.2266
 5932W        W22193  10.818  16.122  11.831 -0.0135  0.0079 -0.0499
 5933W        W22194  17.970  11.184  13.010  0.1904  0.2264 -0.0999
 5934W        W22195  12.897  15.769   0.039 -0.3388 -0.2500 -0.2163
 5935W        W22196   2.998   9.627   4.573  0.0799 -0.1265 -0.1450
 5936W        W22197  15.464   6.138  15.370 -0.1623  0.1476  0.1842
 5937W        W22198   6.606  17.512  13.405  0.2638  0.0039 -0.1660
 5938W        W22199  16.004   3.822  14.756  0.0028 -0.0662 -0.1875
 5939W        W22200  17.023   0.893  10.824  0.2303  0.1271  0.1356
 5940W        W22201   5.223  14.827   1.780 -0.1082 -0.1203  0.3226
 5941W        W22202   7.610  17.536   2.281  0.0353 -0.1098  0.0732
 5942W        W22203   3.529   1.893   4.130  0.1672  0.1674 -0.1303
 5943W        W22204  17.657   7.595   1.609 -0.3174  0.1347  0.0809
 5944W        W22205  18.486   1.870   3.449  0.0400  0.1916 -0.1570
 5945W        W22206  17.627   0.141  11.333  0.5199  0.0699 -0.0394
 5946W        W22207  17.029   3.363  14.076  0.0171 -0.0650  0.2347
 5947W        W22208   1.190   7.720  11.669 -0.0270  0.0781  0.0070
 5948W        W22209  18.592  12.229   4.902 -0.0414  0.1771  0.1695
 5949W        W22210   6.356  12.615   4.692  0.1314 -0.0241 -0.0984
 5950W        W22211   1.318  10.282   4.537 -0.0957  0.0980  0.2611
 5951W        W22212  16.506   5.495   0.802  0.0416 -0.0718  0.2649
 5952W        W22213   4.746   6.097  14.614 -0.0986 -0.1343  0.0278
 5953W        W22214   4.549   3.376   2.584  0.2970  0.1016  0.3431
 5954W        W22215   3.537  15.811   1.926 -0.0073 -0.0532  0.0062
 5955W        W22216   8.366  16.445  10.192  0.0596  0.4859  0.1423
 5956W        W22217   3.518  14.210   0.436  0.0836 -0.0251  0.1205
 5957W        W22218  10.849  18.081   0.739 -0.0870 -0.2877  0.1182
 5958W        W22219   7.288  17.456   4.924 -0.1463  0.2315  0.2331
 5959W        W22220   3.601   9.616  12.487 -0.1762 -0.0657 -0.2739
 5960W        W22221  10.964   3.051  11.866  0.1138 -0.0489 -0.0087
 5961W        W22222   0.915  16.290   1.674  0.1919 -0.1468  0.1419
 5962W        W22223   1.754  14.097  13.716  0.2071 -0.3414  0.0839
 5963W        W22224  10.192  15.724   1.442 -0.1081  0.1262 -0.0902
 5964W        W22225  16.713   0.179  11.008 -0.0378 -0.2020  0.0034
 5965W        W22226  13.986   3.414  11.905  0.1000  0.1051 -0.0137
 5966W        W22227  13.347  16.364   4.007  0.0466  0.2260  0.1499
 5967W        W22228   7.494  11.627  14.993 -0.2235 -0.0214 -0.2783
 5968W        W22229   3.809  14.878  10.929  0.2288 -0.1300 -0.2931
 5969W        W22230   1.932  15.044  12.150  0.1147 -0.2161 -0.1637
 5970W        W22231  17.393   8.025   0.373 -0.0878  0.1206 -0.1056
 5971W        W22232  15.146   1.781  12.167 -0.2318 -0.2230  0.0780
 5972W        W22233   5.637   9.185  11.902  0.1703  0.1470  0.1605
 5973W        W22234  11.199  17.610   0.062 -0.0202 -0.2985 -0.1968
 5974W        W22235  17.629   0.408  14.763  0.3503  0.0151 -0.1452
 5975W        W22236   0.613  13.389  12.300 -0.1866  0.0973  0.0233
 5976W        W22237  16.975  11.596  11.540  0.2217  0.1350  0.0091
 5977W        W22238   5.259   8.576   1.928  0.1129  0.1176  0.1054
 5978W        W22239   0.958  18.811   2.143 -0.2742  0.0087 -0.2516
 5979W        W22240   5.292  18.529  13.053 -0.1329 -0.2896  0.0465
 5980W        W22241  17.084   8.942   2.958  0.1403 -0.1766 -0.1099
 5981W        W22242   3.186  11.456   0.793 -0.2961  0.4008 -0.1029
 5982W        W22243  11.964  14.427  15.199  0.3192  0.1646 -0.0837
 5983W        W22244  17.454   7.012  12.523 -0.1279  0.0897 -0.4715
 5984W        W22245   7.623  14.121  15.181  0.0141 -0.1817 -0.0667
 5985W        W22246  12.398   2.209  15.155 -0.3215 -0.3375  0.0668
 5986W        W22247  11.297   3.425   3.059 -0.2567 -0.3646 -0.0550
 5987W        W22248  16.237  12.860  14.034  0.1940 -0.0537  0.2936
 5988W        W22249  14.074   3.752  12.249  0.2107  0.0110  0.1580
 5989W        W22250  12.161   9.116   0.235 -0.2284  0.0868  0.0928
 5990W        W22251   8.332   9.795  13.831 -0.0052  0.0414  0.3828
 5991W        W22252  14.676   8.883   0.353 -0.1657 -0.0369  0.0235
 5992W        W22253  17.876   8.007   1.782  0.0178  0.1285 -0.0543
 5993W        W22254   0.628  11.862   0.824  0.2037 -0.0004  0.2166
 5994W        W22255   9.940  14.967   0.630  0.1033 -0.2392 -0.1453
 5995W        W22256  16.894   2.923   0.963  0.0000 -0.0373 -0.1006
 5996W        W22257   8.910  18.224   0.698 -0.0847  0.0366  0.0722
 5997W        W22258  13.499  18.345   4.550 -0.3113 -0.0086 -0.0474
 5998W        W22259  13.951   2.031   2.343  0.0039 -0.1706 -0.1144
 5999W        W22260   0.104  10.707  14.372  0.1699  0.2372 -0.1535
 6000W        W22261   3.355   3.205   3.040 -0.0998 -0.0017 -0.1738
 6001W        W22262   1.781  16.695  15.637  0.0665  0.2330  0.0539
 6002W        W22263   3.442  16.581  15.429 -0.1539 -0.1897 -0.1107
 6003W        W22264   0.741  18.570  14.987 -0.3239  0.1285 -0.1227
 6004W        W22265   3.034  10.865  15.503 -0.0028  0.1094 -0.1877
 6005W        W22266   6.503   9.819  11.328 -0.3455 -0.1447 -0.0655
 6006W        W22267  10.807  11.728  11.227 -0.0764  0.2292  0.1709
 6007W        W22268  13.486  12.321   4.197  0.0862 -0.6369  0.0322
 6008W        W22269   9.230   0.402  12.637 -0.0405 -0.1046  0.1730
 6009W        W22270   8.843   6.876  14.671  0.1254 -0.0299 -0.0642
 6010W        W22271   9.174  16.239   2.349  0.0909 -0.0843  0.0583
 6011W        W22272  14.466   5.399   0.354  0.0184 -0.1042  0.1486
 6012W        W22273  11.394   3.092  14.981  0.2982 -0.0428  0.0045
 6013W        W22274   9.781  14.650   4.725 -0.2379  0.0846  0.1726
 6014W        W22275  17.191  14.134  11.143 -0.0155 -0.0717 -0.0407
 6015W        W22276   5.641   8.942   2.166 -0.3257 -0.0512  0.0736
 6016W        W22277   1.010   4.937  12.698  0.0156  0.1213  0.0997
 6017W        W22278  13.249   3.974  11.484 -0.2358  0.0758 -0.2931
 6018W        W22279  10.024  11.425   4.483  0.0884  0.1507 -0.1657
 6019W        W22280  12.835  10.971   2.098 -0.3133 -0.0189 -0.4473
 6020W        W22281   2.766   0.181  14.652 -0.2345 -0.0481  0.2182
 6021W        W22282  16.943  15.220   5.625  0.0456 -0.2454 -0.1339
 6022W        W22283  16.806   3.194  14.956  0.2698 -0.0805  0.0985
 6023W        W22284   4.668   4.520   1.456  0.2711 -0.0254  0.1709
 6024W        W22285   8.438   7.445   0.674 -0.0647  0.2000  0.2342
 6025W        W22286  11.849  17.273  15.600  0.0783  0.2647 -0.0406
 6026W        W22287   7.793   8.695  13.414 -0.0190  0.0279  0.2035
 6027W        W22288  15.776   1.518   2.699 -0.1831  0.0176 -0.1330
 6028W        W22289  14.188   5.912   1.126  0.2248  0.1942  0.1178
 6029W        W22290  13.970  14.235   1.684 -0.1877 -0.0186 -0.3141
 6030W        W22291   0.122  12.354  10.129  0.1478 -0.1661 -0.1461
 6031W        W22292  16.480  13.054  11.888 -0.2120 -0.1866  0.1256
 6032W        W22293  14.884  11.105   3.166  0.1980 -0.0061 -0.1127
 6033W        W22294   6.793   2.576   2.646  0.0594 -0.1371  0.1899
 6034W        W22295   2.454  15.717   1.889 -0.2264 -0.0247 -0.5632
 6035W        W22296   2.307   1.622   2.423 -0.0596  0.1742  0.2541
 6036W        W22297   9.053   9.011  11.118  0.0633  0.0381 -0.1584
 6037W        W22298   5.139   9.364  12.963 -0.0499  0.0815  0.0579
 6038W        W22299   4.012  10.128  14.810 -0.0287 -0.2031  0.0404
 6039W        W22300   4.680  12.693   2.363  0.3798  0.0424 -0.0864
 6040W        W22301   9.673  13.028   0.446  0.2973  0.3337 -0.1327
 6041W        W22302  14.307  13.950   5.209 -0.0692 -0.1663 -0.2586
 6042W        W22303  17.282   9.087  13.196  0.0378  0.0977  0.1122
 6043W        W22304   6.588   1.592   4.916 -0.3712  0.0535 -0.1492
 6044W        W22305  14.584   9.341  12.937 -0.3385  0.2786 -0.0164
 6045W        W22306   6.427   2.199  14.949 -0.0520  0.0315  0.0501
 6046W        W22307  12.809  15.556  11.679  0.0898 -0.1591  0.0026
 6047W        W22308   6.791  17.700  14.274 -0.1083  0.0311  0.0424
 6048W        W22309  13.893   2.458  10.722 -0.3983 -0.1284 -0.2822
 6049W        W22310   6.013   4.898  13.014  0.0742 -0.2437  0.0015
 6050W        W22311   3.379   0.607   3.261 -0.1662 -0.1812  0.1614
 6051W        W22312  15.373  16.644  15.035 -0.1734 -0.0121 -0.0516
 6052W        W22313  17.500   3.724  11.831  0.0264 -0.1552  0.0850
 6053W        W22314  13.041  18.619  14.740  0.2859 -0.0957  0.1982
 6054W        W22315  15.494  14.016   1.649  0.0796  0.3026 -0.1119
 6055W        W22316   1.643   6.239  12.929 -0.2028  0.1077 -0.1332
 6056W        W22317  13.190   7.103   5.341 -0.2502  0.1440  0.0075
 6057W        W22318   8.413   8.306  14.039 -0.1352  0.0645  0.4602
 6058W        W22319  10.993   7.063  14.511  0.0297  0.0248  0.1044
 6059W        W22320   1.465  14.200   5.162 -0.1230 -0.2031 -0.0834
 6060W        W22321  17.295  13.498  15.541  0.0096 -0.1970 -0.1056
 6061W        W22322  18.322  11.522  11.317 -0.4694 -0.0842  0.0437
 6062W        W22323   2.794  15.286  10.916 -0.1215  0.1708 -0.2705
 6063W        W22324  14.947  15.066   0.066 -0.0708 -0.0169  0.0329
 6064W        W22325  16.975  17.637   0.702  0.1245 -0.1182 -0.0314
 6065W        W22326   7.779   1.639   2.519  0.0644 -0.1035 -0.0625
 6066W        W22327   3.162  13.197  12.238 -0.1442 -0.0295 -0.1931
 6067W        W22328  18.487  13.713  12.003  0.2970  0.1099 -0.0688
 6068W        W22329   2.435   9.591  12.996  0.0128  0.0185  0.1010
 6069W        W22330  18.830   9.066   1.849  0.1488  0.2286 -0.3024
 6070W        W22331  10.018  16.956  13.719 -0.3726 -0.0393 -0.2726
 6071W        W22332  12.403  16.035  12.448 -0.0148  0.0260  0.0238
 6072W        W22333  16.760   1.970  14.252 -0.0727 -0.3959 -0.2681
 6073W        W22334   7.511  16.099  14.954 -0.2049  0.0058 -0.0299
 6074W        W22335  12.223  10.754   1.159  0.2160  0.1016  0.4539
 6075W        W22336  11.129   9.634  12.068  0.0435 -0.0866 -0.0705
 6076W        W22337   2.451   6.108   4.330  0.3369 -0.0581  0.1494
 6077W        W22338  14.180  17.133  14.709  0.2830  0.1841 -0.1208
 6078W        W22339   4.441  15.918  15.412  0.2923  0.1513 -0.1451
 6079W        W22340   1.189   6.255  11.674  0.1121  0.1641  0.1589
 6080W        W22341   8.608   5.234   2.093 -0.0908 -0.2735  0.0374
 6081W        W22342   0.739  10.178  14.746  0.1877 -0.0988 -0.1493
 6082W        W22343  10.627  16.239  13.719 -0.2301 -0.0358 -0.0641
 6083W        W22344   6.071  12.984   4.908 -0.0482 -0.0601  0.0059
 6084W        W22345   3.289  15.912  12.113 -0.0019 -0.0392 -0.0831
 6085W        W22346   6.818   4.432  15.061 -0.1266 -0.3430  0.1162
 6086W        W22347   0.602   4.879   2.955 -0.2222 -0.1333  0.2928
 6087W        W22348  13.375   4.013  13.422  0.2178  0.2667 -0.0682
 6088W        W22349   9.543  12.225  12.168  0.1603  0.3081  0.1193
 6089W        W22350  12.226   0.890  14.717 -0.1505  0.1315  0.0185
 6090W        W22351   3.465   2.807   1.604  0.2524 -0.1141  0.1240
 6091W        W22352  14.604   3.638   0.555  0.1609 -0.3563  0.2849
 6092W        W22353   4.018  16.954  11.247  0.3324  0.3390 -0.0943
 6093W        W22354   3.930  18.397  15.065  0.0518 -0.2155 -0.0651
 6094W        W22355   5.126   9.684   4.090 -0.3322 -0.3477 -0.0092
 6095W        W22356   9.521   4.203  12.932 -0.2680  0.0035  0.1056
 6096W        W22357   1.565  17.127   3.557  0.1269 -0.2393  0.0714
 6097W        W22358  15.996  13.139  15.012  0.0299  0.0316  0.1298
 6098W        W22359  16.020   6.205   4.275 -0.2778  0.0179 -0.5053
 6099W        W22360  13.215  12.031  10.712  0.2214  0.1852  0.1892
 6100W        W22361   8.747   5.911   2.426  0.1303 -0.1091 -0.0822
 6101W        W22362   9.681   8.105  14.558  0.1647  0.0271 -0.0908
 6102W        W22363   8.104  18.697  14.519 -0.1617  0.2762 -0.0944
 6103W        W22364  17.358  11.054   0.855 -0.0564  0.6204 -0.1039
 6104W        W22365   6.543  16.527   1.693  0.0352 -0.2239 -0.2083
 6105W        W22366   0.329   4.729   3.690  0.0646 -0.1804 -0.0965
 6106W        W22367  18.513  16.371   4.478  0.0502 -0.0061 -0.4752
 6107W        W22368   3.134   6.830   5.252 -0.1189 -0.0056  0.2208
 6108W        W22369   5.322   5.238  12.736 -0.2466  0.1353  0.0263
 6109W        W22370  17.242   5.267  14.376  0.0382 -0.0272 -0.0009
 6110W        W22371   8.093  11.941   1.184 -0.4582 -0.2956  0.2741
 6111W        W22372   9.871  13.377  12.089 -0.0518  0.0261 -0.2613
 6112W        W22373   6.244  12.080  12.714 -0.4095  0.0620  0.2841
 6113W        W22374  17.143   8.182  15.320  0.2650 -0.1874  0.3067
 6114W        W22375   4.123  16.488   1.296 -0.2037 -0.3971  0.1813
 6115W        W22376  10.008  16.769   0.180  0.1547  0.1073 -0.0869
 6116W        W22377   5.770  17.973  12.458 -0.0735 -0.1299 -0.1281
 6117W        W22378  11.437   4.252  12.812  0.4984  0.1859  0.3243
 6118W        W22379   2.158  11.196  11.392 -0.0380 -0.1233  0.0614
 6119W        W22380  15.791  10.505  13.846 -0.1691  0.1852 -0.1297
 6120W        W22381   3.392  10.623   3.111 -0.1458  0.0421  0.0434
 6121W        W22382   8.287   9.261  14.379  0.0634  0.1933 -0.0480
 6122W        W22383  14.690  10.057  10.284 -0.1405  0.2269 -0.1186
 6123W        W22384   9.315  14.483   1.703 -0.2835 -0.0879  0.0242
 6124W        W22385   4.243   1.279   2.256  0.1088  0.0453 -0.1414
 6125W        W22386  10.003   1.690   1.547  0.0552 -0.0874 -0.0130
 6126W        W22387   6.233   2.056   5.425  0.1257  0.1591 -0.2468
 6127W        W22388  18.312   7.486  11.626  0.0506  0.0158  0.0336
 6128W        W22389  15.200  13.547  12.536  0.3157  0.0756 -0.0899
 6129W        W22390   6.912   8.069   5.909  0.1243  0.0044 -0.1553
 6130W        W22391  11.988  14.225  13.812 -0.0772 -0.2873  0.2085
 6131W        W22392  11.149   5.143  13.413  0.3000 -0.0961 -0.0362
 6132W        W22393   7.832   9.631   0.594 -0.0915 -0.2291  0.1091
 6133W        W22394   9.001   3.034  14.420  0.0764  0.5756 -0.0950
 6134W        W22395   3.891  14.000  14.917  0.0595  0.2836  0.0805
 6135W        W22396  13.938  17.758  14.330 -0.0980  0.0616  0.3769
 6136W        W22397   1.949   3.720  12.179  0.1084 -0.0286 -0.0263
 6137W        W22398  10.525  12.049   1.020 -0.0488 -0.0628  0.1388
 6138W        W22399   5.996   8.033  15.499  0.2505  0.3926 -0.0939
 6139W        W22400   8.543   1.232   2.334 -0.0780  0.1377 -0.1049
 6140W        W22401   8.594  17.419   1.865  0.1040 -0.0023 -0.0484
 6141W        W22402   2.892  13.272   5.044 -0.2379  0.1806  0.3004
 6142W        W22403  18.764  12.275  10.568  0.0842 -0.2496 -0.1677
 6143W        W22404   4.295   8.736  12.615  0.1510 -0.0320  0.2163
 6144W        W22405  16.244   7.173   2.492 -0.3021 -0.1159  0.0562
 6145W        W22406   4.435   2.735   1.730 -0.3013 -0.0894 -0.1566
 6146W        W22407  12.965   8.070  10.681  0.0042 -0.0529 -0.0799
 6147W        W22408   0.924  13.764   9.762  0.1267 -0.3698  0.0320
 6148W        W22409  11.704  16.079  14.884  0.2430  0.0455 -0.0305
 6149W        W22410   5.157   1.345   3.906  0.2297 -0.4266  0.2257
 6150W        W22411  10.261   4.624  14.962  0.1817  0.0150  0.2329
 6151W        W22412   3.728   7.075   1.379  0.0513 -0.2271 -0.0426
 6152W        W22413   9.812   7.662   1.012  0.2741  0.0311  0.1938
 6153W        W22414   1.767  13.868   0.931 -0.0125  0.0504  0.1584
 6154W        W22415   2.779  15.733  13.307  0.5492 -0.1059 -0.0254
 6155W        W22416  10.382   6.388   2.464  0.1405  0.0957  0.0653
 6156W        W22417  12.963  15.243  12.186  0.3784  0.4247 -0.1967
 6157W        W22418   6.578   0.372   3.273  0.2374 -0.0136 -0.0067
 6158W        W22419  11.351   8.193  11.707  0.2084  0.1302 -0.0412
 6159W        W22420   9.233   1.539   4.033  0.1351  0.2850 -0.1730
 6160W        W22421   3.642  15.206  10.615  0.1467 -0.0591 -0.0017
 6161W        W22422   0.267  11.759  14.761 -0.1096 -0.0911  0.0544
 6162W        W22423  10.949   9.580  11.654  0.0482 -0.1603 -0.1192
 6163W        W22424  18.629   5.144   1.477  0.1422  0.0407 -0.1812
 6164W        W22425   1.052  11.656   1.048  0.2903 -0.0434 -0.0648
 6165W        W22426  12.532  10.523  13.351  0.1085 -0.0456 -0.0403
 6166W        W22427   3.241  10.451   3.735 -0.0347  0.2715  0.4797
 6167W        W22428  16.051   4.833   5.453  0.3077  0.2443  0.1785
 6168W        W22429  16.399  14.257  15.351  0.1232 -0.4355 -0.0911
 6169W        W22430   1.740  17.943   0.637  0.1104 -0.0837 -0.3548
 6170W        W22431   5.724   2.684  12.475 -0.0352 -0.1865  0.1481
 6171W        W22432  11.636   3.639   2.715  0.3550 -0.0008 -0.3658
 6172W        W22433  14.595  18.190   4.518  0.0913 -0.2600  0.0303
 6173W        W22434  17.153  15.250   0.437  0.0357  0.0135  0.0045
 6174W        W22435   9.649   8.560   5.805  0.0562 -0.0677  0.3113
 6175W        W22436   0.604   9.603   0.494  0.1682 -0.1082  0.1705
 6176W        W22437   7.109  14.643  11.828  0.2915  0.1752  0.0080
 6177W        W22438   9.582  15.354  11.662 -0.0311 -0.1954  0.1330
 6178W        W22439  13.551  12.748  15.437 -0.1028 -0.1154  0.1234
 6179W        W22440   5.029  12.283   4.476  0.2024  0.2849 -0.0074
 6180W        W22441   8.575  12.852  10.822 -0.0995 -0.0435  0.2728
 6181W        W22442   7.054  16.379  12.187  0.0534 -0.0999  0.2522
 6182W        W22443   2.286   1.123  13.295  0.2798 -0.1537 -0.2267
 6183W        W22444   1.783   8.916   4.533 -0.0137  0.1012 -0.0299
 6184W        W22445   9.729   5.843  11.780 -0.1723 -0.1426 -0.0251
 6185W        W22446   0.696  12.168   3.497 -0.2208 -0.0831  0.1671
 6186W        W22447   3.800   5.191   2.918 -0.1359 -0.1726 -0.0373
 6187W        W22448   8.656  10.854   0.368 -0.2600  0.0296 -0.0187
 6188W        W22449  12.041  16.596  12.672 -0.1500 -0.3052 -0.0458
 6189W        W22450   4.338  15.515  14.497 -0.3723  0.3066 -0.1980
 6190W        W22451  12.892  16.054   1.701 -0.1143  0.0437 -0.2319
 6191W        W22452   8.550   7.607   2.419 -0.0181 -0.0230 -0.1107
 6192W        W22453   8.657   5.663   4.875  0.1425  0.0507 -0.1071
 6193W        W22454   3.827   7.800  14.708  0.2305  0.3256 -0.2681
 6194W        W22455   9.147  17.986  12.973  0.2914  0.0857 -0.0656
 6195W        W22456   2.402   8.349  15.170  0.2149 -0.1055  0.2419
 6196W        W22457   5.703   2.697   0.282 -0.1824  0.2828  0.1946
 6197W        W22458   0.688  11.697   3.234  0.2253 -0.0639  0.2539
 6198W        W22459  13.252   9.091   2.009 -0.0697  0.0377 -0.2539
 6199W        W22460   9.681   6.445   5.421 -0.0147  0.1976  0.1139
 6200W        W22461   7.211   9.440  12.690  0.1512  0.3180 -0.0332
 6201W        W22462  13.066  14.898   1.008  0.2976 -0.0128 -0.1136
 6202W        W22463  10.486  14.928   0.866 -0.1359  0.0231 -0.2667
 6203W        W22464   3.407   2.053  14.329 -0.3401  0.0510  0.2293
 6204W        W22465   6.178   8.479   1.157 -0.1316  0.1544 -0.1068
 6205W        W22466   7.573   9.025   4.346  0.0102  0.1863  0.0957
 6206W        W22467   4.699  12.299   4.136 -0.2353 -0.3147 -0.1833
 6207W        W22468   4.380   4.289  14.979 -0.3075 -0.2409  0.0863
 6208W        W22469   1.394   3.898   2.493 -0.0825 -0.0407  0.0533
 6209W        W22470   3.819   7.828  10.815  0.1930  0.3766 -0.0631
 6210W        W22471   0.662   4.224   0.752  0.0662 -0.2140 -0.1864
 6211W        W22472   8.725   1.921   3.656  0.0104  0.0522 -0.2959
 6212W        W22473  18.760   9.343   0.954  0.1076  0.1162 -0.1171
 6213W        W22474   0.143   1.013   0.091 -0.1196 -0.4806 -0.2229
 6214W        W22475   9.870   6.675   5.813 -0.2635 -0.0144  0.0219
 6215W        W22476  15.441   1.710  14.138 -0.0665  0.1557  0.0992
 6216W        W22477   9.124  16.283   5.327  0.3194  0.0470 -0.1947
 6217W        W22478  10.628  16.913   1.704 -0.1798  0.2341  0.1736
 6218W        W22479   6.675  17.444   2.710  0.2750 -0.0466 -0.1331
 6219W        W22480   3.278   5.941   0.977  0.0784  0.0122 -0.1088
 6220W        W22481   2.355   8.951   1.288  0.0706  0.2259  0.0864
 6221W        W22482   6.174   4.015  13.617 -0.1944 -0.2909  0.0216
 6222W        W22483  17.573  10.946  12.679  0.1751  0.2295 -0.0966
 6223W        W22484   8.827  18.707  12.318  0.0373  0.1982 -0.0847
 6224W        W22485   6.811   8.751  14.893  0.2485 -0.1350 -0.1876
 6225W        W22486   1.594   1.541   1.548 -0.2260 -0.3676  0.1222
 6226W        W22487  14.801   8.743  13.971  0.1004 -0.4733  0.2193
 6227W        W22488   9.735   9.037   0.608 -0.1579 -0.0491  0.0297
 6228W        W22489  16.975   3.017  13.648  0.0839  0.2073 -0.5553
 6229W        W22490   2.823  15.862   0.525 -0.1934 -0.0399 -0.1762
 6230W        W22491   7.692   3.307   4.878  0.2843 -0.0441  0.1206
 6231W        W22492   1.999  10.979   3.526  0.1483 -0.2911 -0.0808
 6232W        W22493  14.602   3.020   5.804  0.0266  0.1248  0.0862
 6233W        W22494   1.928   1.245  13.645  0.0430  0.0595 -0.2132
 6234W        W22495   4.753   7.066  13.843 -0.1885  0.0088  0.1161
 6235W        W22496  16.126  12.165   1.822 -0.0374  0.2071 -0.0690
 6236W        W22497   1.886  12.713   0.741 -0.0992  0.0180  0.1348
 6237W        W22498   6.164   7.330  12.351 -0.2645 -0.1308 -0.2201
 6238W        W22499   9.248  11.920  11.260 -0.0332  0.1588 -0.4180
 6239W        W22500  10.273   1.043   3.584 -0.1753  0.3300 -0.1981
 6240W        W22501   1.924  17.426  14.455  0.2088  0.0483  0.1194
 6241W        W22502   9.975   7.372   1.365 -0.1378  0.0189  0.1128
 6242W        W22503   5.585   5.907  14.770  0.0749  0.1622  0.2841
 6243W        W22504   5.158   0.550  11.338 -0.2024  0.0218 -0.1067
 6244W        W22505   5.114   2.095  10.573 -0.3047 -0.2945  0.2054
 6245W        W22506   7.900  15.474   0.274  0.2952 -0.0823 -0.2333
 6246W        W22507   7.791   7.601  12.685  0.3761 -0.1943  0.0889
 6247W        W22508   0.498   4.871   4.249  0.1135  0.0005  0.1799
 6248W        W22509   9.478   5.125   4.862 -0.2294 -0.0254 -0.3548
 6249W        W22510   0.478   8.963   5.139  0.0434  0.3425 -0.0251
 6250W        W22511   2.519  10.578  12.234  0.1741  0.1120 -0.0978
 6251W        W22512   7.496  10.045   0.557  0.2089  0.1570 -0.0481
 6252W        W22513  18.159  14.038   1.563 -0.1945  0.3746 -0.1199
 6253W        W22514   0.821   2.478   3.766 -0.1101 -0.3958  0.1399
 6254W        W22515   6.060   1.922  12.310 -0.0032 -0.0407 -0.1212
 6255W        W22516   1.307   3.053  14.748  0.1903 -0.0200 -0.0912
 6256W        W22517   7.093   9.939   2.131 -0.1555  0.0633  0.0591
 6257W        W22518   4.181  12.112   4.226 -0.0518 -0.2448  0.3524
 6258W        W22519   0.104   2.820  15.261  0.1868  0.0008 -0.2961
 6259W        W22520   9.996   6.569   1.684  0.0453  0.1557  0.1653
 6260W        W22521   4.861  11.906   2.408 -0.1722  0.2612 -0.1500
 6261W        W22522  12.552   3.151  15.504 -0.1006 -0.2470  0.0297
 6262W        W22523  13.271   0.143  13.341 -0.0037 -0.2632  0.0177
 6263W        W22524  14.926  15.238   3.652 -0.0294  0.1339  0.1090
 6264W        W22525  15.314  14.229  13.098  0.3332 -0.1100  0.3157
 6265W        W22526  10.184   6.576   3.654  0.3221  0.1947  0.0562
 6266W        W22527  14.302   8.903  11.408 -0.0941 -0.0662  0.1537
 6267W        W22528  11.608   0.859  12.479 -0.0478  0.2564  0.1606
 6268W        W22529   7.383  13.262  10.863 -0.0047  0.2797  0.0003
 6269W        W22530   7.540   6.708  12.539  0.1547  0.1159 -0.1356
 6270W        W22531  13.997   6.826   5.751  0.1463 -0.3713  0.2057
 6271W        W22532  12.799  18.088  12.493  0.0516 -0.2578 -0.0257
 6272W        W22533  16.802   9.711  14.493 -0.0470 -0.1668  0.4757
 6273W        W22534  10.138  13.986   0.194  0.0075  0.0321 -0.0611
 6274W        W22535  10.440   9.062   4.706  0.1281 -0.1591  0.0762
 6275W        W22536   1.454   5.865   4.722  0.3857 -0.0299  0.1556
 6276W        W22537  11.531  13.199  11.160 -0.0844 -0.0362 -0.1968
 6277W        W22538   0.259   6.849  13.272 -0.0173  0.1724  0.2434
 6278W        W22539  18.495   3.327  10.421  0.1180  0.0553  0.0580
 6279W        W22540   9.577  11.906   3.266  0.4086 -0.0098  0.0481
 6280W        W22541  14.401   5.752  14.593 -0.2972  0.2680  0.0929
 6281W        W22542   2.645  17.223   3.795 -0.0432 -0.0799  0.2548
 6282W        W22543  11.983  15.045  12.609 -0.1893 -0.2819  0.0221
 6283W        W22544  12.276  15.265   1.142  0.5756 -0.0391  0.0697
 6284W        W22545   6.235  15.255   1.113  0.0113 -0.0370 -0.1712
 6285W        W22546   9.239   9.181   0.819 -0.1240  0.1421 -0.0885
 6286W        W22547   2.888   9.234   0.481  0.0587 -0.1459 -0.2190
 6287W        W22548   5.437   3.640  15.531  0.0270 -0.1475 -0.3028
 6288W        W22549  11.431   3.839   0.685 -0.1704  0.0122  0.2416
 6289W        W22550   1.168  14.772  11.645  0.2686 -0.0980  0.1581
 6290W        W22551  16.214  13.837   0.021  0.1242  0.2000  0.0311
 6291W        W22552   2.973  16.518   1.612  0.0743  0.1410  0.0684
 6292W        W22553   5.338  15.545   4.286 -0.2177 -0.0952  0.1989
 6293W        W22554  17.959  17.722  10.701  0.0134 -0.0939  0.1025
 6294W        W22555   2.354   5.872  12.445 -0.5618  0.5819  0.0149
 6295W        W22556   1.962  14.671  10.807 -0.1178 -0.3973 -0.0921
 6296W        W22557   2.903  16.889   0.243 -0.1948 -0.0185  0.1999
 6297W        W22558   2.754  17.197  13.915  0.1351 -0.1562 -0.0515
 6298W        W22559  13.354  14.552   2.233  0.2561  0.0501 -0.1114
 6299W        W22560  14.037   3.517   2.464 -0.1889  0.0272  0.0693
 6300W        W22561   0.196   1.106   1.413  0.2297 -0.3143 -0.2219
 6301W        W22562  10.371  18.758   1.514  0.2524  0.0087 -0.0236
 6302W        W22563  11.666  18.621   3.671 -0.4880 -0.1564  0.0578
 6303W        W22564   5.521  14.832  12.866  0.1058  0.0524  0.0518
 6304W        W22565  16.540  17.642  14.131 -0.1928 -0.0081  0.1363
 6305W        W22566  17.760  13.400  10.982  0.2274 -0.1143  0.0285
 6306W        W22567  10.856  12.932  15.615  0.0827  0.2477 -0.0180
 6307W        W22568  12.360  12.567   4.161 -0.1406 -0.0741  0.0308
 6308W        W22569  15.339   8.397   2.575 -0.3440  0.0931  0.2641
 6309W        W22570   7.793  15.700  13.680 -0.2095 -0.1616 -0.2733
 6310W        W22571   1.894  10.216   0.196  0.0856  0.2090 -0.1125
 6311W        W22572  18.521   9.919  13.807  0.2334 -0.2848  0.0854
 6312W        W22573   7.240   4.867  14.388 -0.4294  0.4899 -0.2708
 6313W        W22574   8.519  10.910   2.067 -0.0478 -0.1124 -0.3213
 6314W        W22575   5.785   3.900   2.999  0.2922 -0.2641  0.1265
 6315W        W22576  14.519   0.166  12.528  0.1294 -0.2280  0.0710
 6316W        W22577  13.561  17.128  15.412  0.1786 -0.1650  0.0058
 6317W        W22578  12.998  14.237   3.160 -0.0980 -0.1290 -0.1971
 6318W        W22579  10.656   6.092  12.466  0.3280  0.1120  0.1055
 6319W        W22580   3.540  15.093   3.789  0.1997 -0.2754  0.0108
 6320W        W22581   2.546   0.523  11.062  0.0375  0.0042 -0.2315
 6321W        W22582  10.466  13.078   0.404  0.2388  0.0133  0.0988
 6322W        W22583  18.589   3.281  14.035 -0.2143 -0.1883 -0.2207
 6323W        W22584  17.570  14.594   3.691 -0.1608  0.2128 -0.3013
 6324W        W22585   7.342   4.721   2.151 -0.1163 -0.0653  0.0632
 6325W        W22586  17.127  15.187  12.214 -0.2076 -0.4426  0.0110
 6326W        W22587   4.272  12.876  14.937 -0.0234 -0.1723 -0.4155
 6327W        W22588   9.386  17.830  13.498  0.0558  0.1835 -0.0468
 6328W        W22589   7.314   0.731  15.627  0.1633  0.3430  0.2554
 6329W        W22590  15.865   7.661  12.515  0.0083 -0.0872 -0.1151
 6330W        W22591  16.758   2.339  13.842  0.1369  0.0454 -0.0101
 6331W        W22592  10.480   7.779  13.370 -0.2387 -0.0787 -0.0454
 6332W        W22593   2.515   5.301  12.360 -0.1768  0.1850 -0.2937
 6333W        W22594   4.188   9.426  13.113 -0.0878 -0.0614  0.1860
 6334W        W22595   4.020  12.728  11.517 -0.0954 -0.2621 -0.0526
 6335W        W22596  11.841   6.926   2.915  0.0302  0.0069  0.2674
 6336W        W22597   1.619   9.899   1.923 -0.1701  0.0170  0.2630
 6337W        W22598  17.153   1.147  14.020  0.1874  0.0547  0.0162
 6338W        W22599   0.376  16.287   1.699 -0.0627  0.1153  0.3035
 6339W        W22600   0.503   7.324  13.807 -0.2862 -0.0058  0.0999
 6340W        W22601   4.459   5.352   0.240  0.0466 -0.0192  0.0415
 6341W        W22602  12.342  17.758  14.989 -0.1473 -0.2791 -0.2196
 6342W        W22603   8.155   8.965  15.210 -0.0900  0.1120 -0.0961
 6343W        W22604  12.774   1.457   3.758 -0.1074  0.1175 -0.0923
 6344W        W22605   8.274   4.748  14.257  0.0770  0.3331 -0.1192
 6345W        W22606  14.219  17.026   2.752 -0.0966  0.1522 -0.0374
 6346W        W22607  17.372  15.490   4.853  0.0026  0.2148 -0.2071
 6347W        W22608  17.149  16.170   3.556 -0.0857 -0.1597  0.2479
 6348W        W22609   1.392   3.576  10.484 -0.0521  0.0010  0.1200
 6349W        W22610  17.502   3.208   2.155 -0.2455  0.0344 -0.2054
 6350W        W22611   5.068   4.644   0.550  0.1048  0.1139  0.0883
 6351W        W22612   7.513  12.645  10.917  0.1695  0.1842  0.2909
 6352W        W22613   8.606   5.935   4.076 -0.0222  0.4195 -0.2935
 6353W        W22614   4.307   4.049   5.465  0.2364 -0.2196  0.0247
 6354W        W22615   6.141   9.103   0.244 -0.1894 -0.0430 -0.1694
 6355W        W22616  14.580   1.028   4.260  0.1306 -0.0968 -0.0553
 6356W        W22617   1.367  16.489  10.657  0.1437 -0.0550  0.1816
 6357W        W22618  11.836   1.869   0.618  0.1769  0.0001  0.1059
 6358W        W22619   4.105  11.843   1.004  0.0295  0.2017  0.1440
 6359W        W22620  11.244   0.870  13.779 -0.1419  0.1950  0.0661
 6360W        W22621   8.557  16.007   4.317 -0.0854  0.0790  0.1380
 6361W        W22622  16.468  12.503   4.045 -0.0759 -0.2116  0.2218
 6362W        W22623  11.345  13.833   2.343  0.0428 -0.1096  0.1606
 6363W        W22624   6.903  10.137   3.069 -0.2075 -0.0027  0.0629
 6364W        W22625   7.120  14.899  10.764 -0.0784  0.1841 -0.0030
 6365W        W22626   7.955   3.475  12.276 -0.0338  0.3071 -0.1198
 6366W        W22627  16.864  12.142   5.311  0.0454  0.2191  0.1158
 6367W        W22628  15.149  10.300  11.443  0.1769  0.0787  0.1783
 6368W        W22629  10.837   3.800  12.415  0.0653 -0.3476  0.1529
 6369W        W22630  13.821   7.331   3.456 -0.1097  0.1034  0.0859
 6370W        W22631   1.819   6.805   3.478  0.3534  0.0192 -0.2381
 6371W        W22632  10.899  17.028  15.633 -0.1404  0.3745  0.1153
 6372W        W22633  13.158  16.965   0.004 -0.1539  0.1921  0.0984
 6373W        W22634  13.045  14.720   3.189  0.0444  0.1237 -0.1727
 6374W        W22635   6.413   0.056   2.559 -0.2824  0.2827 -0.0580
 6375W        W22636   9.414  11.796   1.914  0.0247 -0.0573 -0.2527
 6376W        W22637   6.620  11.217   4.839  0.3038  0.0247  0.0441
 6377W        W22638  10.724   7.146  13.289  0.1226 -0.1191  0.1389
 6378W        W22639  17.752   9.199  12.941 -0.0369 -0.0770  0.0161
 6379W        W22640  18.060  12.110  12.099 -0.0671  0.0104  0.4494
 6380W        W22641   5.059  13.708   4.521  0.0814 -0.1037  0.0805
 6381W        W22642   2.014   2.343  12.598 -0.1494  0.1962 -0.3881
 6382W        W22643  18.456   8.450   9.996 -0.1015 -0.0726  0.0829
 6383W        W22644   8.233  16.520  11.635  0.0356 -0.2360  0.1475
 6384W        W22645   5.775   7.468  10.271 -0.0735 -0.3162  0.1480
 6385W        W22646   7.562   1.086   6.434 -0.0969 -0.4481 -0.1628
 6386W        W22647  17.758   1.552   2.880 -0.1419 -0.5171 -0.0273
 6387W        W22648  11.681  14.006  12.502 -0.0462 -0.0851 -0.0097
 6388W        W22649   3.914   2.207  11.495  0.5773  0.0459  0.3350
 6389W        W22650   9.479  13.269  11.250 -0.0129 -0.2759 -0.2591
 6390W        W22651  17.064  10.518   4.732  0.0304  0.2685  0.0200
 6391W        W22652   8.870  18.288  11.811  0.0494  0.0980  0.0184
 6392W        W22653   9.082  17.365   1.986 -0.3817  0.5938 -0.5440
 6393W        W22654  17.145   8.136  14.611  0.1325  0.2170  0.1540
 6394W        W22655  17.201   7.551  13.965 -0.0605  0.1148 -0.2480
 6395W        W22656  13.536  10.234   3.993 -0.1197  0.1195 -0.0065
 6396W        W22657   7.937  11.190   0.636  0.1435 -0.3770  0.1463
 6397W        W22658   1.728  14.708   0.270 -0.1883  0.2661 -0.1687
 6398W        W22659  13.663  15.921   1.271 -0.0296  0.2656 -0.3672
 6399W        W22660   9.517  10.232  14.913 -0.2484  0.2301  0.3226
 6400W        W22661  15.513   6.161   4.396 -0.5165 -0.2780 -0.1794
 6401W        W22662   4.569   3.236  12.077  0.0523  0.4483  0.1126
 6402W        W22663  13.408   9.149  11.157  0.1602  0.2846 -0.2095
 6403W        W22664  15.706   8.476   4.004  0.1845  0.2241 -0.0993
 6404W        W22665  10.410  12.118   0.118  0.0916  0.3189  0.4970
 6405W        W22666  16.299  17.950   1.569 -0.0962  0.0557 -0.0594
 6406W        W22667   4.243   7.405  11.962  0.2213 -0.2163  0.0737
 6407W        W22668  17.024   6.530  14.761 -0.2769  0.1533 -0.0071
 6408W        W22669  15.609  16.572  11.709  0.1481 -0.0122 -0.1500
 6409W        W22670   0.988  12.249   4.368  0.3454 -0.1165 -0.0160
 6410W        W22671   1.149   6.242   1.767 -0.2250 -0.2261 -0.2845
 6411W        W22672  18.002   4.889   0.913  0.2584  0.0871  0.0342
 6412W        W22673  10.980  18.468  15.082  0.2116 -0.0196  0.4941
 6413W        W22674   0.320   8.856  14.491 -0.1639 -0.1973  0.3718
 6414W        W22675   9.120   8.834   9.941  0.1087 -0.1465 -0.2051
 6415W        W22676  17.899   4.582   0.431  0.3431  0.0265  0.1188
 6416W        W22677  10.868  11.469   4.192 -0.0560 -0.1752 -0.0003
 6417W        W22678  16.880  14.799   5.820  0.1161 -0.2207 -0.0808
 6418W        W22679   3.286  18.118   3.838 -0.1500 -0.1416  0.0497
 6419W        W22680   2.787   8.784  11.966 -0.0095 -0.0965 -0.0274
 6420W        W22681  18.263   4.962  15.294 -0.0709  0.1670 -0.3427
 6421W        W22682  15.655  14.624   0.038 -0.3041  0.3512 -0.2733
 6422W        W22683   9.477   1.140   4.226 -0.2435 -0.0944  0.2653
 6423W        W22684   0.883  10.438   1.391 -0.0556  0.0545 -0.2212
 6424W        W22685  14.998   2.495   0.983 -0.1083 -0.1373  0.0019
 6425W        W22686   9.624  15.886   0.128 -0.0602 -0.2845 -0.0122
 6426W        W22687  14.233  15.886  11.062  0.0620  0.0833  0.2834
 6427W        W22688   3.755  18.435   2.979  0.2014 -0.0581 -0.0025
 6428W        W22689   4.220   6.160   0.934  0.2540  0.0762 -0.1405
 6429W        W22690   5.500  10.262  12.281  0.1516 -0.0424  0.0490
 6430W        W22691  10.098  10.973  12.462  0.5367  0.0806  0.1632
 6431W        W22692   2.335   4.417   4.781 -0.3096 -0.2210 -0.2045
 6432W        W22693  15.091  16.006  13.452 -0.0443  0.0588 -0.1500
 6433W        W22694  16.367  18.293  12.024  0.0449  0.0121 -0.1082
 6434W        W22695   2.922   2.186  14.188 -0.0136  0.2976 -0.1958
 6435W        W22696   0.367   5.747   1.973  0.0544  0.2580  0.1011
 6436W        W22697  14.394  13.843  12.307  0.0241  0.1992  0.0141
 6437W        W22698   2.839   4.959  12.154  0.1901  0.3731 -0.1896
 6438W        W22699   0.197   0.851  11.019 -0.3612 -0.2136  0.1752
 6439W        W22700  17.458  17.712   1.085 -0.1910  0.2951 -0.0141
 6440W        W22701   0.684   2.146  12.947  0.0743  0.0874 -0.1762
 6441W        W22702   3.513  16.076   4.313 -0.2469 -0.2444  0.0068
 6442W        W22703  12.377   7.510   1.735 -0.1441 -0.0531 -0.0441
 6443W        W22704  15.039   0.572  14.544 -0.1137  0.2357  0.5204
 6444W        W22705  10.951  10.468  14.286  0.1651  0.1986  0.2244
 6445W        W22706  12.628   3.584   3.070 -0.3566 -0.0332  0.1568
 6446W        W22707   2.780   3.035   0.346 -0.1733 -0.0319  0.0158
 6447W        W22708   3.577  16.594   1.344  0.2495  0.0127  0.1146
 6448W        W22709   0.591   9.466  11.960 -0.2013  0.2657 -0.4122
 6449W        W22710  13.229   8.599   3.513 -0.1486 -0.3310  0.2446
 6450W        W22711   2.986   7.185   5.683  0.2434 -0.3029 -0.1177
 6451W        W22712   8.993  11.211   9.704 -0.2580  0.2465  0.0832
 6452W        W22713   6.894  15.896   1.654 -0.2126 -0.2608  0.2129
 6453W        W22714   7.555   7.919   2.658 -0.1565  0.1638  0.0190
 6454W        W22715   0.390   7.760  15.248 -0.0982 -0.1281  0.0497
 6455W        W22716  16.025   8.504   3.598  0.4073  0.1119  0.1012
 6456W        W22717  14.695  12.173   4.143  0.1875 -0.1087  0.3278
 6457W        W22718   8.539   0.761  12.973  0.2025 -0.0699  0.1810
 6458W        W22719  18.710  18.594  13.575 -0.0894 -0.0790 -0.3848
 6459W        W22720   3.579  10.492  12.249  0.0388  0.0877 -0.3866
 6460W        W22721   8.594   9.402  13.994  0.2183 -0.1295 -0.0424
 6461W        W22722   9.186   0.278  11.506 -0.0756 -0.1299  0.1458
 6462W        W22723   3.798  16.751  13.155 -0.2136  0.3109 -0.1087
 6463W        W22724  11.753   7.944  15.134 -0.1088  0.2992  0.2783
 6464W        W22725   0.272   1.365   4.579 -0.0600  0.2787  0.1429
 6465W        W22726  18.807  14.647  12.653 -0.1391 -0.0069 -0.0023
 6466W        W22727   2.827   5.584   4.015  0.3037  0.0315 -0.0141
 6467W        W22728   0.734   6.466  11.788 -0.2740  0.1457 -0.3210
 6468W        W22729  16.329   1.754   1.571 -0.5236  0.0048 -0.3561
 6469W        W22730  11.654  12.495  10.349 -0.0015  0.1637  0.2064
 6470W        W22731   6.301  16.508   6.180  0.1118 -0.0251  0.1558
 6471W        W22732   6.706   9.857  13.799  0.0083 -0.0308 -0.0015
 6472W        W22733  16.681  14.100   4.332 -0.0178 -0.1174  0.0533
 6473W        W22734   2.586  17.157   4.289 -0.1545 -0.0280  0.4556
 6474W        W22735   3.921  15.129   5.686 -0.1054  0.1559 -0.0689
 6475W        W22736   7.123  10.570   2.672  0.0376  0.0410  0.1778
 6476W        W22737  16.235   6.326  15.442  0.3680 -0.2376  0.1842
 6477W        W22738  13.312   9.718  13.442  0.0289  0.0640 -0.2007
 6478W        W22739  14.300  10.115  11.761 -0.1793  0.1899 -0.0418
 6479W        W22740  14.667  18.723   0.664 -0.1620 -0.1000 -0.2117
 6480W        W22741   8.742  18.546   2.134 -0.0377  0.0713 -0.0423
 6481W        W22742  12.390   9.105   3.141  0.1083  0.0481  0.1300
 6482W        W22743   2.446   1.613   1.915 -0.1000  0.1452  0.3247
 6483W        W22744  16.435  10.326  10.849  0.0983  0.0091  0.0161
 6484W        W22745  15.654  17.305  11.956 -0.0170  0.1861 -0.0210
 6485W        W22746  17.355   3.693  13.742  0.2873 -0.2442  0.0150
 6486W        W22747   4.454  11.716   4.336 -0.1793  0.0690  0.0329
 6487W        W22748  14.027  11.343  13.419  0.0557  0.0587  0.2522
 6488W        W22749  17.040   7.157  14.976  0.2515  0.1376 -0.0802
 6489W        W22750  18.055  17.347  14.466 -0.0070  0.0628  0.1798
 6490W        W22751   3.945   5.177   4.453 -0.0218 -0.1184 -0.0563
 6491W        W22752   1.547  12.405  11.208  0.0192 -0.0013 -0.1538
 6492W        W22753   8.764  14.867   5.344  0.0911 -0.2604  0.1045
 6493W        W22754  13.278   7.564   5.674  0.0310  0.0817 -0.0162
 6494W        W22755  17.596  14.569   4.668  0.5460  0.4163  0.1939
 6495W        W22756  16.432   9.946  15.463  0.0571 -0.0200  0.1880
 6496W        W22757   2.201   2.461  11.232  0.3585 -0.0963  0.0771
 6497W        W22758   7.926   2.714   0.121  0.3054 -0.0270  0.0204
 6498W        W22759  17.179  13.960  12.701 -0.1292  0.0804 -0.0018
 6499W        W22760   6.267   8.993   5.237 -0.1773 -0.0478 -0.1779
 6500W        W22761  18.217  11.953  14.571  0.2364 -0.1085 -0.1522
 6501W        W22762   7.359   8.558  15.629 -0.0454  0.2774 -0.0469
 6502W        W22763  10.525   1.049   1.163 -0.3906 -0.4290  0.1810
 6503W        W22764   3.375   3.046  13.336  0.1157 -0.0035 -0.3100
 6504W        W22765   3.023  18.531  15.509  0.2527 -0.0984  0.0703
 6505W        W22766   3.271  15.459   3.552  0.0569 -0.1710  0.3510
 6506W        W22767   3.852  13.062  14.715 -0.1259  0.2630  0.3666
 6507W        W22768  13.224  15.755  13.162  0.1932  0.3926 -0.0265
 6508W        W22769  13.775   3.459  10.835 -0.1750  0.2217 -0.0770
 6509W        W22770   1.798   6.320   3.419 -0.1513 -0.0528  0.0670
 6510W        W22771   4.070  11.608  15.310 -0.1354 -0.2499 -0.0881
 6511W        W22772   5.387   9.406   5.088 -0.0352  0.0265  0.1672
 6512W        W22773  14.840   8.186  15.205  0.1690 -0.0122  0.3201
 6513W        W22774  12.678  15.369   3.450 -0.2480  0.1404  0.0125
 6514W        W22775   3.838   2.638   3.547  0.2776 -0.1315  0.2449
 6515W        W22776  14.047   1.299  11.701  0.3605  0.0049  0.2090
 6516W        W22777   8.558   5.080  14.909 -0.3910 -0.3175 -0.3622
 6517W        W22778   9.433  10.599  11.791 -0.1703  0.0606  0.4640
 6518W        W22779   9.853  15.430   3.625 -0.2548 -0.1240 -0.2914
 6519W        W22780   3.189  17.987  15.379 -0.3531  0.1621 -0.0921
 6520W        W22781  13.096   9.375   0.446  0.0397 -0.3429  0.1655
 6521W        W22782  18.570  11.949   3.083  0.0623  0.2220  0.0346
 6522W        W22783  17.539  11.325   0.088  0.1144 -0.1022 -0.1071
 6523W        W22784  14.533  12.031   3.694 -0.2312 -0.3211  0.3188
 6524W        W22785  12.709   0.431  11.702 -0.1592  0.1928  0.2211
 6525W        W22786  10.998   8.318   9.789 -0.2262  0.0436 -0.2433
 6526W        W22787   7.599   3.345   6.041  0.2103 -0.1509  0.1826
 6527W        W22788  15.639  11.034   5.299 -0.0484  0.1346 -0.3570
 6528W        W22789  12.217  16.672  10.165 -0.1679 -0.1428 -0.1473
 6529W        W22790   3.403   2.497   2.002  0.3553 -0.0897 -0.2532
 6530W        W22791  14.908  15.570  15.607  0.1427 -0.1300  0.2834
 6531W        W22792  14.220  11.742  11.403  0.0324 -0.0756 -0.1107
 6532W        W22793  17.038  18.373  13.358  0.0129 -0.1680  0.0957
 6533W        W22794   2.695   1.933  12.952 -0.1690 -0.2123 -0.1798
 6534W        W22795   3.421  13.113  13.010 -0.0367  0.1286  0.0279
 6535W        W22796   6.155   9.197  13.508 -0.1533  0.0227  0.2837
 6536W        W22797  13.277   4.123  14.434 -0.2370  0.0146  0.0313
 6537W        W22798   5.242  10.745  12.342  0.4625  0.2850 -0.1567
 6538W        W22799   8.941   0.572  15.602  0.0186  0.1275  0.2091
 6539W        W22800  17.196  16.265  15.280 -0.1158  0.2129 -0.2095
 6540W        W22801   4.785  17.953  11.645 -0.2845 -0.0963  0.1076
 6541W        W22802  17.889  17.447  14.956  0.1579 -0.0339 -0.2916
 6542W        W22803  12.430   3.518   5.508 -0.2318 -0.2914  0.2873
 6543W        W22804  13.854  12.084  12.130  0.1616 -0.1299 -0.2227
 6544W        W22805  17.024   4.780   0.386  0.1024  0.0103 -0.0125
 6545W        W22806  12.313   9.553   1.775  0.0588 -0.0093  0.0734
 6546W        W22807   5.749  13.991   0.565 -0.2067  0.0888  0.0759
 6547W        W22808   9.561  17.289   1.394  0.0546 -0.1996  0.0102
 6548W        W22809  13.579  14.404  14.889  0.0050 -0.2481 -0.0879
 6549W        W22810   6.382   5.957   0.566 -0.1152 -0.4494  0.0183
 6550W        W22811  14.907   1.741  13.849 -0.0696  0.1521 -0.2254
 6551W        W22812  11.145  11.356   3.263 -0.1892  0.0979 -0.1909
 6552W        W22813   9.223  11.154  10.886  0.1737 -0.2814  0.0071
 6553W        W22814  14.194   6.702   3.072  0.2324 -0.2661 -0.1696
 6554W        W22815  13.231   6.700   4.010  0.2255 -0.1411 -0.1869
 6555W        W22816   6.359  15.698   4.796  0.0415  0.2391  0.2779
 6556W        W22817  13.643   3.020   5.565 -0.0244  0.0721 -0.2537
 6557W        W22818  13.634  15.120  12.141  0.1846  0.2345  0.0866
 6558W        W22819   1.008   3.838   2.893  0.2704 -0.3129 -0.1019
 6559W        W22820   7.295   6.459   4.056 -0.1522  0.0058 -0.1129
 6560W        W22821  17.306   3.048  14.910 -0.0468  0.0879  0.1564
 6561W        W22822  11.531  13.455  14.238 -0.0868  0.1595  0.1171
 6562W        W22823   7.006  13.169   1.558  0.0435  0.1889 -0.1943
 6563W        W22824   9.721   5.885   0.446 -0.1255 -0.0328  0.0037
 6564W        W22825   4.406  17.123   4.557  0.2058  0.1639  0.0102
 6565W        W22826  11.325   2.117  10.991  0.4030  0.2152  0.0314
 6566W        W22827   8.943  12.092   5.506  0.1628  0.1571  0.0742
 6567W        W22828  16.668  11.316  15.086  0.1896 -0.0585  0.1263
 6568W        W22829   5.478  10.991  12.776  0.0191  0.0533  0.1434
 6569W        W22830   6.630  10.470  11.978  0.2587 -0.1598 -0.1053
 6570W        W22831   5.211   6.738  13.732  0.3538 -0.3871 -0.2955
 6571W        W22832  18.648   1.227   2.618  0.3053 -0.0507 -0.0469
 6572W        W22833  17.002  11.242   4.026  0.4499 -0.1156  0.5134
 6573W        W22834   7.378   7.813   1.156  0.0817  0.0976 -0.0898
 6574W        W22835   1.107   9.599  13.127 -0.0466  0.1738 -0.0824
 6575W        W22836  12.936  18.746  13.645  0.1675  0.1462 -0.0080
 6576W        W22837   5.689   7.573  15.550  0.0605  0.0333  0.0460
 6577W        W22838   1.501  15.373   5.408 -0.2007  0.0145 -0.0096
 6578W        W22839   9.870   7.842  15.520  0.2002 -0.2027 -0.2780
 6579W        W22840   2.544   7.649   1.605 -0.0452 -0.2122  0.1044
 6580W        W22841   1.937   0.920   5.537  0.5047  0.0749  0.2001
 6581W        W22842   3.986   4.403   3.285 -0.0010 -0.0257  0.2582
 6582W        W22843   0.189  14.603  11.294  0.0115  0.0501 -0.2337
 6583W        W22844   1.825  15.444  11.716 -0.1403 -0.1002  0.2260
 6584W        W22845  12.085   7.292  12.135 -0.0279 -0.3034 -0.0286
 6585W        W22846  12.431   2.924   3.043 -0.2920 -0.1481 -0.0035
 6586W        W22847   1.571  15.576  13.823  0.2963  0.0253  0.0047
 6587W        W22848   3.866  12.721  15.215 -0.1235  0.0686 -0.0369
 6588W        W22849  17.541  13.921  14.804  0.0138  0.2439  0.4026
 6589W        W22850   2.056   2.875  15.307 -0.3583 -0.2377  0.0700
 6590W        W22851   4.849   0.710  13.933 -0.0176  0.2236  0.1605
 6591W        W22852  13.218   5.707   0.107 -0.0030 -0.0858  0.0418
 6592W        W22853   9.606   8.820  13.204  0.2145 -0.0750 -0.0351
 6593W        W22854   9.487  12.245  13.468 -0.0713 -0.1912  0.2369
 6594W        W22855  15.720   7.904   4.757  0.1033  0.1171  0.1405
 6595W        W22856  13.853  14.148  12.945  0.0536 -0.2728  0.0648
 6596W        W22857   9.446  12.752  14.712 -0.0872 -0.0526 -0.2585
 6597W        W22858  17.589   7.834  11.282  0.0427 -0.3295 -0.1241
 6598W        W22859   4.572  15.369   0.652  0.2182  0.0056  0.3703
 6599W        W22860  15.246  17.726  13.128 -0.0946 -0.1166  0.1131
 6600W        W22861  10.604   4.207  15.439  0.0200 -0.3199  0.1445
 6601W        W22862  11.867   8.420   4.748 -0.6592 -0.0206  0.0216
 6602W        W22863   5.802   8.703   5.290 -0.0822 -0.0771 -0.2053
 6603W        W22864   3.723   7.554   1.167 -0.2492  0.1090 -0.1066
 6604W        W22865  15.857   0.397   3.827  0.1993 -0.2264  0.0283
 6605W        W22866   0.727   7.814  15.638 -0.0192 -0.2563 -0.0384
 6606W        W22867  12.359  14.711  12.573 -0.2423 -0.0892  0.0411
 6607W        W22868  16.448   3.670  11.750  0.3564  0.2782  0.1828
 6608W        W22869   8.857   5.580   2.878  0.1669  0.1994  0.5089
 6609W        W22870   7.584   1.015   2.187  0.2149  0.1494 -0.0396
 6610W        W22871   4.844  13.532  12.637 -0.1194 -0.4262 -0.0199
 6611W        W22872  16.866  14.279   3.537  0.2733 -0.0607 -0.1809
 6612W        W22873   0.231  15.340   0.884 -0.0666  0.0158  0.2268
 6613W        W22874   7.725   5.408  15.191  0.0780  0.0208  0.4261
 6614W        W22875   0.471   0.649   2.337  0.1944 -0.2632  0.0507
 6615W        W22876  16.921   0.894  14.910 -0.4554  0.1689  0.1364
 6616W        W22877   5.038  17.242   2.411  0.1164 -0.1725 -0.0911
 6617W        W22878   3.870  18.122  11.893  0.0064 -0.1282 -0.3335
 6618W        W22879   6.514  17.800  11.479 -0.0794 -0.1509 -0.3835
 6619W        W22880  17.943   9.019  11.361 -0.1215  0.0700 -0.1657
 6620W        W22881  13.351   8.696  15.380 -0.1094  0.0235 -0.0704
 6621W        W22882  17.998   4.259   2.470 -0.0685  0.0760  0.0218
 6622W        W22883  16.950  17.960  13.054  0.1640 -0.1187  0.0683
 6623W        W22884   0.166  18.236   0.926  0.2561 -0.1844  0.2711
 6624W        W22885  15.634   6.994  13.257  0.1213 -0.0194  0.3045
 6625W        W22886   0.941  16.226  13.725  0.3072 -0.3571  0.2080
 6626W        W22887   2.979   5.100   5.248 -0.0939  0.0039  0.0606
 6627W        W22888   0.798   6.007  13.659  0.2875 -0.2334  0.0352
 6628W        W22889   6.100  11.718  15.000  0.1672  0.0782 -0.2185
 6629W        W22890  17.046   5.804   3.471  0.1044 -0.0436 -0.0336
 6630W        W22891   0.329   0.817   1.856  0.0661 -0.1154 -0.3476
 6631W        W22892   0.620  10.453  11.217  0.3270  0.0998 -0.2563
 6632W        W22893   1.463   4.648  12.698  0.1539  0.0246  0.0993
 6633W        W22894   7.381   6.972   0.341 -0.1906 -0.2043 -0.5001
 6634W        W22895  12.532  10.512  10.550  0.1697 -0.2143  0.1014
 6635W        W22896  13.157   0.662   1.303  0.1873 -0.5357  0.2193
 6636W        W22897  18.205  13.810   2.688 -0.0553 -0.0801  0.1527
 6637W        W22898   7.624   5.247  12.311 -0.3598 -0.3700  0.3365
 6638W        W22899  16.722  12.937  15.005  0.2190 -0.0427 -0.1376
 6639W        W22900   5.504  16.263   3.532  0.1919  0.0318 -0.1114
 6640W        W22901   2.085   6.561  14.305  0.0525  0.0250  0.0938
 6641W        W22902   9.203   7.134   5.429 -0.0526 -0.2575 -0.2868
 6642W        W22903  15.268   1.353   2.838  0.3240  0.2592  0.1765
 6643W        W22904  16.875  12.831  15.505 -0.1976  0.1730  0.3006
 6644W        W22905   4.961   4.144   2.708  0.2601 -0.0256 -0.1579
 6645W        W22906  18.214  10.133   4.489 -0.1422  0.0363  0.0000
 6646W        W22907  10.618  12.124  13.758 -0.0671 -0.0082 -0.2468
 6647W        W22908   0.222  14.182  14.305  0.2374 -0.0629 -0.0254
 6648W        W22909   8.440  16.509   1.180 -0.0470  0.1737  0.0788
 6649W        W22910   8.770  16.912   1.972  0.0561 -0.1053  0.2444
 6650W        W22911   5.096   0.834   2.192 -0.2906 -0.2321 -0.0401
 6651W        W22912  13.050  10.088   3.104 -0.0175  0.4232 -0.1316
 6652W        W22913   9.726  14.344  15.189 -0.2936 -0.0972 -0.1001
 6653W        W22914  13.916   0.248   5.734  0.0591 -0.0679  0.2678
 6654W        W22915   8.860   3.781  12.995  0.1185  0.0332  0.1100
 6655W        W22916  17.531   3.567   4.564 -0.1287 -0.3002 -0.3267
 6656W        W22917  16.414   9.384   0.575 -0.2266 -0.1225 -0.1769
 6657W        W22918   2.058   1.029  14.205 -0.1005 -0.2157  0.0782
 6658W        W22919  11.044  18.257   1.243  0.1459 -0.1196  0.0725
 6659W        W22920   3.593   4.982   4.034  0.1873 -0.0984  0.0718
 6660W        W22921  10.497  10.619  13.601 -0.1937  0.1838 -0.2213
 6661W        W22922   2.606  12.207  12.984 -0.0734  0.2925 -0.3109
 6662W        W22923   4.298  17.807   3.031  0.1645  0.3089  0.2236
 6663W        W22924   7.469   8.288   2.300 -0.3278  0.0162  0.0179
 6664W        W22925  14.010   3.337  12.547 -0.1646 -0.1170  0.1117
 6665W        W22926  11.571  15.379  14.141  0.0632 -0.0988  0.2154
 6666W        W22927   7.888   1.526   0.027 -0.2078 -0.0918  0.1330
 6667W        W22928   1.728  16.819  10.780  0.0993 -0.2734 -0.0044
 6668W        W22929  15.987  18.663  14.744  0.1803  0.2700  0.0427
 6669W        W22930  14.329  14.801  10.300  0.2508 -0.0110 -0.0332
 6670W        W22931  18.535   7.421  15.010  0.0866  0.2869  0.0685
 6671W        W22932  13.509  17.214  12.637  0.1399  0.2239 -0.0462
 6672W        W22933  13.864  14.499   3.533 -0.1562  0.0794 -0.0068
 6673W        W22934  12.117  14.489   3.460 -0.3087  0.1517 -0.2899
 6674W        W22935  10.318   2.865   5.255 -0.0248 -0.0250  0.0615
 6675W        W22936   4.406  14.731   1.480 -0.0712 -0.2244  0.1399
 6676W        W22937   3.423  11.629   0.305 -0.1824 -0.1224 -0.0071
 6677W        W22938   6.838   9.657  14.607 -0.1051  0.0846 -0.0497
 6678W        W22939  12.609   8.807  15.102 -0.1291 -0.2597 -0.2236
 6679W        W22940  12.354  14.920  11.070  0.0161  0.2913  0.1665
 6680W        W22941  18.056   4.511  10.647  0.1261  0.0221 -0.0886
 6681W        W22942  11.866  15.961   1.905 -0.2844 -0.0030  0.2385
 6682W        W22943   7.631   9.710  14.291 -0.0086 -0.1644 -0.1116
 6683W        W22944  17.696  12.640   9.725 -0.1627  0.1020  0.0326
 6684W        W22945   5.111   1.129  13.511 -0.0201  0.4830  0.3050
 6685W        W22946  14.937   4.685  14.463  0.2320  0.2072 -0.2558
 6686W        W22947  11.958   5.739   4.134  0.1989 -0.2709  0.1398
 6687W        W22948   8.992   8.490   1.530  0.0260  0.0512  0.3142
 6688W        W22949  16.188   8.938   3.429 -0.4089 -0.1310 -0.1064
 6689W        W22950  16.756  18.653   4.292 -0.0182 -0.0349 -0.6598
 6690W        W22951  17.858  16.496   3.235 -0.0871 -0.2290  0.1015
 6691W        W22952  16.407   5.279   3.234 -0.3032 -0.0290 -0.3489
 6692W        W22953   0.981  16.206   3.002 -0.1395  0.0219 -0.3409
 6693W        W22954  16.860   4.714   5.593  0.0244 -0.3150  0.0511
 6694W        W22955   2.633   8.854   4.262  0.1146 -0.4683  0.0899
 6695W        W22956  13.849   9.141   3.738  0.0535 -0.0454  0.3576
 6696W        W22957  17.993   4.375  13.678 -0.2693  0.1993 -0.1482
 6697W        W22958   1.119   8.205  15.492  0.1490 -0.2306 -0.0745
 6698W        W22959   8.594  14.941   4.350  0.2671  0.1859 -0.3251
 6699W        W22960   3.335   8.314  14.105  0.0416 -0.0610 -0.1197
 6700W        W22961   2.875  13.257  10.981  0.0433 -0.0416  0.2657
 6701W        W22962  14.744  14.406   2.830 -0.0291  0.0770 -0.3172
 6702W        W22963   5.219   1.840   4.297  0.3264  0.1015 -0.1913
 6703W        W22964  18.685  12.260   3.516  0.0720  0.2255 -0.1846
 6704W        W22965  12.578  17.416  14.206  0.1681 -0.3417  0.2511
 6705W        W22966  13.912  16.832   2.435 -0.1773 -0.1317 -0.1930
 6706W        W22967  12.145   9.505  11.087  0.4834  0.0605 -0.1049
 6707W        W22968  11.527  11.248   1.586 -0.0976 -0.1786  0.3736
 6708W        W22969   9.490  18.192   6.111 -0.0992  0.0713  0.1589
 6709W        W22970   3.837   2.043   3.624  0.1482 -0.1042 -0.0291
 6710W        W22971  14.713   9.257  12.100 -0.4285 -0.0637  0.0226
 6711W        W22972   9.923   0.126   5.974 -0.1211 -0.1462 -0.0639
 6712W        W22973  15.523  11.388  11.126 -0.3688  0.0474 -0.4583
 6713W        W22974  13.177  11.575   2.658 -0.2534 -0.1879  0.0546
 6714W        W22975  16.095   1.677  14.725 -0.0651 -0.0374 -0.0958
 6715W        W22976   3.083  15.200  11.428 -0.0346 -0.0573  0.2427
 6716W        W22977   5.134  13.177   4.263  0.0897  0.0455 -0.1444
 6717W        W22978   0.133  12.022  12.626  0.2846  0.0460  0.0529
 6718W        W22979  15.740  11.378   4.932 -0.1242 -0.1208 -0.1100
 6719W        W22980  16.399   0.055  14.509  0.1362  0.3550 -0.1201
 6720W        W22981   5.447  12.391  12.148 -0.0315  0.4080  0.0304
 6721W        W22982  17.788  17.614  14.027  0.0526 -0.0162 -0.1354
 6722W        W22983   5.691  12.788   2.666 -0.0941 -0.0142 -0.4286
 6723W        W22984  12.066  13.019   3.493 -0.0237 -0.4897 -0.2609
 6724W        W22985   5.052   4.853   1.610 -0.3980  0.0936  0.1212
 6725W        W22986  13.252  10.246   2.668 -0.0275  0.0598  0.2821
 6726W        W22987   3.413   9.184  12.869 -0.1239 -0.0593  0.2284
 6727W        W22988   3.900   1.474  13.884 -0.4594 -0.0020  0.1361
 6728W        W22989   0.590   9.950  12.716  0.0728  0.1506  0.1472
 6729W        W22990  17.942  18.182   3.032  0.0377 -0.3349 -0.0037
 6730W        W22991   8.945   4.276  14.649 -0.0272 -0.3174 -0.1474
 6731W        W22992   2.218  14.046   0.200 -0.2061 -0.0003 -0.1848
 6732W        W22993   2.862  13.672  14.080 -0.0182 -0.0367 -0.0964
 6733W        W22994   0.952   4.533   4.509 -0.3314  0.1468 -0.0354
 6734W        W22995   8.213   9.691   4.111  0.0655 -0.0429 -0.0216
 6735W        W22996   7.312   6.832  14.214 -0.2698 -0.1370 -0.0257
 6736W        W22997   3.619  13.553  15.033 -0.1065 -0.0251  0.3676
 6737W        W22998  16.657   5.495   4.349 -0.2580 -0.0262  0.4623
 6738W        W22999  14.075  12.897   2.507  0.3045  0.1251 -0.1541
 6739W        W23000   9.258  15.052   5.317 -0.2642  0.0385 -0.1472
 6740W        W23001  13.120  16.564   2.974  0.5055  0.0742  0.1356
 6741W        W23002  10.044   6.224  14.063 -0.1510  0.0182 -0.0086
 6742W        W23003  17.061  12.316  13.877 -0.1447 -0.0201  0.1681
 6743W        W23004  17.677   5.538   1.425  0.0819 -0.0888  0.0763
 6744W        W23005  12.238   5.337   1.635 -0.0445  0.0534  0.2903
 6745W        W23006  12.314  16.377   1.170 -0.2785 -0.5087  0.3186
 6746W        W23007   7.473   9.236   3.163 -0.3387  0.0721 -0.1627
 6747W        W23008   0.671  10.178   4.447 -0.0051  0.0532  0.2821
 6748W        W23009   2.619   2.521   1.953 -0.0327 -0.5323  0.0623
 6749W        W23010   8.517   5.145   3.676 -0.1256  0.0908  0.2835
 6750W        W23011  14.274   4.549  13.755  0.0497 -0.3660  0.3555
 6751W        W23012   7.686   3.073   4.371 -0.2681 -0.1946 -0.1384
 6752W        W23013  12.792   4.649   3.318  0.0603 -0.2751 -0.0320
 6753W        W23014   9.610  14.794  14.161 -0.0490 -0.0245  0.2592
 6754W        W23015   7.244  15.838  15.271 -0.0736  0.1351 -0.0145
 6755W        W23016  12.302  17.742   2.098  0.0198 -0.1532 -0.3436
 6756W        W23017  14.096  17.820   1.640  0.6256 -0.1118 -0.1731
 6757W        W23018   4.608  14.702  11.920 -0.2601  0.2809 -0.0144
 6758W        W23019  15.803   7.597   1.727  0.0058  0.0594 -0.1958
 6759W        W23020  18.536  11.837   2.576  0.0744  0.3014  0.1971
 6760W        W23021   7.158   8.818  14.060  0.1344  0.1383  0.0819
 6761W        W23022  17.452  18.367   3.914 -0.2706  0.0615 -0.2682
 6762W        W23023  15.423   1.944   9.663  0.3091  0.1015  0.5005
 6763W        W23024  18.772  15.552   0.083 -0.0882  0.0857  0.1096
 6764W        W23025  15.709  16.090  11.660 -0.0976  0.0130  0.0025
 6765W        W23026   7.458  15.132   0.163  0.0021 -0.1587  0.0508
 6766W        W23027   7.695   6.209   3.082  0.0939  0.2574 -0.2255
 6767W        W23028   8.959  13.806  11.727  0.1355 -0.0770  0.1142
 6768W        W23029   5.638   1.768   2.836  0.0009  0.0325 -0.0469
 6769W        W23030   4.813  17.459   0.420  0.2858 -0.1769 -0.3598
 6770W        W23031  15.978   5.813  14.054  0.2160  0.0214 -0.4120
 6771W        W23032  17.532  17.889  12.535 -0.0086 -0.1304 -0.2590
 6772W        W23033   5.253   6.899  12.609  0.1696 -0.3988 -0.2649
 6773W        W23034   9.599   2.004  14.497  0.2734  0.1297  0.2596
 6774W        W23035   0.430  13.076   2.438 -0.0239 -0.0528 -0.1574
 6775W        W23036  17.420   9.667  11.439  0.2041  0.2746  0.0229
 6776W        W23037   3.999  15.071   1.590  0.3301 -0.1769 -0.1595
 6777W        W23038  14.110  14.507  11.807 -0.0801  0.3542  0.0882
 6778W        W23039  13.355   8.456  10.583 -0.0635 -0.0208  0.0546
 6779W        W23040   9.453  11.369   2.401  0.0678 -0.0605 -0.0624
 6780W        W23041  16.887   9.447  12.511  0.0856 -0.1132 -0.0402
 6781W        W23042   4.108   5.608  14.030  0.3094 -0.0014  0.2257
 6782W        W23043   0.162   1.498  14.284  0.0185 -0.2621  0.0499
 6783W        W23044  15.041  13.442   0.415  0.3406  0.1551 -0.1149
 6784W        W23045   5.645   1.613   1.218  0.0941 -0.1864 -0.0267
 6785W        W23046  16.358   1.579   3.710  0.1457 -0.1287  0.1391
 6786W        W23047  16.603  15.228  12.740  0.2002  0.1334  0.3164
 6787W        W23048   7.032   0.971   4.286 -0.0330  0.0967 -0.1972
 6788W        W23049  13.899  16.826   1.960  0.0876  0.2122 -0.3195
 6789W        W23050   0.371  16.917  13.085  0.1048 -0.1033 -0.1332
 6790W        W23051  15.399   9.901   3.663  0.2624  0.0706  0.1219
 6791W        W23052   1.170  14.173  12.045 -0.5432  0.2527  0.0874
 6792W        W23053   7.618  10.657  14.998  0.1218  0.1837  0.0225
 6793W        W23054   5.616  18.332  10.982 -0.0792 -0.3145  0.1978
 6794W        W23055  10.561  14.798   5.379  0.0752 -0.2938  0.1317
 6795W        W23056   7.746   3.958   2.537 -0.2830 -0.1774  0.2446
 6796W        W23057   7.449  11.884  14.225  0.2143 -0.1898 -0.0901
 6797W        W23058   7.958  17.104  14.406  0.3225  0.0460 -0.0722
 6798W        W23059   5.866   9.805  12.516  0.3815  0.0476 -0.3187
 6799W        W23060  10.474  13.557   4.867  0.0051 -0.0613  0.3998
 6800W        W23061   3.430   8.508   3.724  0.1590  0.1479  0.0368
 6801W        W23062   2.637   1.733  12.334 -0.1845 -0.2355 -0.2104
 6802W        W23063  13.362  18.491   1.607  0.2094 -0.2280  0.1767
 6803W        W23064  10.144  13.382   2.655  0.0123 -0.1886  0.0371
 6804W        W23065   6.875  13.427   5.608 -0.0746 -0.1895 -0.1631
 6805W        W23066  18.283  15.207   3.981 -0.0016 -0.0540  0.1531
 6806W        W23067  10.198   4.868   4.441  0.1072  0.0079  0.1155
 6807W        W23068  14.489   0.409   1.165  0.2548  0.2815  0.0351
 6808W        W23069  16.747   1.294  12.308  0.1151  0.0344  0.3637
 6809W        W23070   7.078   1.567  14.121 -0.1586  0.1444  0.1162
 6810W        W23071   5.323   3.900  13.087  0.1452  0.0465 -0.1425
 6811W        W23072   8.724   9.931  12.900 -0.0281  0.2134  0.2100
 6812W        W23073   6.418  13.271   0.727 -0.0770 -0.1193  0.0371
 6813W        W23074   4.004  14.119   0.533 -0.4686  0.2398  0.0641
 6814W        W23075   7.622   7.160  14.424  0.1345 -0.1810 -0.0955
 6815W        W23076  11.916   7.997   4.472 -0.1683  0.2324 -0.2345
 6816W        W23077  11.082   7.392  14.099  0.2748  0.1227 -0.2477
 6817W        W23078  12.753  18.416   3.169 -0.1149 -0.2624  0.0319
 6818W        W23079  11.325  17.770   3.083 -0.2296 -0.1495  0.0221
 6819W        W23080   9.555   4.666   5.995  0.0174  0.1054 -0.1783
 6820W        W23081  13.253  16.575   0.893 -0.0162  0.0578 -0.0946
 6821W        W23082  12.748  16.750   4.669  0.0510 -0.0218 -0.2311
 6822W        W23083   3.877  18.579   0.369  0.3609  0.1150  0.0600
 6823W        W23084   9.551   4.359   2.706 -0.2223 -0.2832  0.1600
 6824W        W23085   4.696   2.831   5.648 -0.1655 -0.1279 -0.0629
 6825W        W23086  17.560  13.831   0.863  0.4418  0.0311  0.1822
 6826W        W23087   3.303  13.677   0.399 -0.2377 -0.0871  0.3184
 6827W        W23088  13.559   8.983  14.976 -0.0789 -0.0396  0.0197
 6828W        W23089  13.633  16.730  12.389  0.0030 -0.1954 -0.0469
 6829W        W23090   6.198   4.977   3.675  0.1311 -0.3095 -0.0715
 6830W        W23091   0.944   2.656   1.537  0.3545 -0.0395 -0.2707
 6831W        W23092  11.090   1.634  14.703 -0.0727 -0.2043 -0.0449
 6832W        W23093  11.502  15.218  12.263  0.0449  0.0379 -0.1895
 6833W        W23094  11.376   6.174   4.702  0.1243 -0.1862 -0.0232
 6834W        W23095  17.788  17.258   4.418  0.0607  0.0794  0.0006
 6835W        W23096   9.552   4.552   4.495 -0.2734 -0.0929  0.1327
 6836W        W23097   9.189  12.417  11.880 -0.0659  0.1482  0.0600
 6837W        W23098  13.912   5.790  14.388  0.1080  0.1967  0.1007
 6838W        W23099   9.261   1.191   3.002 -0.2991  0.2570  0.0492
 6839W        W23100  11.851  16.302   2.587  0.1130  0.0519 -0.2236
 6840W        W23101   3.618   4.605  12.003 -0.0663 -0.2231 -0.0828
 6841W        W23102   5.572  10.321  11.003 -0.2602  0.0807  0.0254
 6842W        W23103   5.899  17.337   0.325  0.3726 -0.2736  0.2496
 6843W        W23104   5.888   1.572   1.979 -0.0253  0.0896 -0.1969
 6844W        W23105  10.836   0.793   3.622  0.1066 -0.1617  0.1290
 6845W        W23106  16.465  14.221   1.859 -0.0812  0.1617  0.2281
 6846W        W23107  13.730  10.293  14.518  0.0029 -0.3390  0.0380
 6847W        W23108   0.437  10.674  13.505 -0.0814  0.1760  0.1323
 6848W        W23109  10.455   8.756  12.295 -0.0521  0.0350  0.4437
 6849W        W23110  12.941  16.058   4.129  0.5301 -0.3062 -0.1254
 6850W        W23111   4.513   0.057  13.681 -0.3167  0.5599  0.3730
 6851W        W23112   5.191   4.558   5.088  0.3506 -0.3727 -0.1537
 6852W        W23113   2.895   3.767  11.742  0.0758 -0.2108  0.0734
 6853W        W23114   7.750  10.760  14.519  0.1915  0.1665  0.1362
 6854W        W23115  16.092   9.942  14.652 -0.0220  0.1827 -0.0517
 6855W        W23116  16.168  12.461  11.734 -0.0675  0.2045 -0.1049
 6856W        W23117  14.375   3.870  14.504 -0.0559 -0.1668 -0.0282
 6857W        W23118  10.489   5.802   2.019  0.1444  0.0850 -0.1850
 6858W        W23119   3.032   6.278  14.178  0.1948 -0.2620 -0.2049
 6859W        W23120  14.505  15.169   3.275  0.0618  0.3663  0.0062
 6860W        W23121   3.738   2.566  11.143  0.2583 -0.0609 -0.0826
 6861W        W23122   8.975   0.411  12.197  0.1086 -0.3158 -0.4239
 6862W        W23123  13.526  10.444   5.320 -0.1315 -0.0966  0.0036
 6863W        W23124  14.445  14.674   3.131 -0.0443 -0.0106 -0.2283
 6864W        W23125   4.441   6.078  11.504  0.1631  0.6583  0.2001
 6865W        W23126   3.323   6.777   5.803  0.0612 -0.1397 -0.0472
 6866W        W23127   2.314  12.630   5.428  0.0530 -0.0286  0.0138
 6867W        W23128  10.443  15.780  12.639  0.0564  0.1027 -0.4495
 6868W        W23129  12.406   6.488   3.605 -0.1104 -0.0850 -0.2045
 6869W        W23130   0.486   4.819  11.632  0.2311 -0.1265 -0.2045
 6870W        W23131  14.698   6.755  13.382 -0.0144 -0.0590 -0.2802
 6871W        W23132  11.644  10.352  13.160  0.0982  0.1500 -0.2306
 6872W        W23133   6.992  18.323   2.737  0.1366  0.2039  0.3036
 6873W        W23134   1.895   6.174  12.381  0.1422 -0.0168 -0.1052
 6874W        W23135   0.731   7.959  13.131  0.0415  0.1609  0.1121
 6875W        W23136  13.187  13.031  14.264  0.4488 -0.1844  0.2714
 6876W        W23137   9.522  12.881  13.368  0.1240 -0.0282 -0.1318
 6877W        W23138  14.834  17.850   2.819  0.1505 -0.1121 -0.1343
 6878W        W23139   5.517   5.462   0.922  0.0187 -0.1188  0.1547
 6879W        W23140   9.455  15.500  11.181 -0.0427 -0.1619  0.4117
 6880W        W23141   5.984  14.102  13.821  0.0219 -0.0929  0.3298
 6881W        W23142  12.932  15.081  12.663  0.3447  0.2407  0.2473
 6882W        W23143   8.893  15.591   2.555  0.1711 -0.2170  0.2081
 6883W        W23144   9.885  10.599  15.124 -0.1630 -0.2538  0.2788
 6884W        W23145  10.399  12.037  11.336 -0.0519  0.0744 -0.0568
 6885W        W23146  13.617  18.199   4.077  0.0571 -0.1940 -0.0023
 6886W        W23147   7.996  11.836  11.719  0.0606  0.2990  0.0521
 6887W        W23148   1.013   4.755   0.414  0.0093  0.3508  0.0915
 6888W        W23149   4.068  11.160   3.333 -0.1893  0.0908  0.0429
 6889W        W23150   8.490  12.858   1.198  0.0978 -0.1333 -0.0515
 6890W        W23151   1.101   2.109   1.646 -0.1313  0.3370  0.0820
 6891W        W23152   2.902   9.493  13.073 -0.1548  0.0929 -0.0608
 6892W        W23153   6.047   8.354  14.340 -0.3277  0.3006 -0.1054
 6893W        W23154   6.473  14.768   1.022 -0.0187  0.2203  0.2669
 6894W        W23155   8.739  14.747  14.936  0.0696  0.0922  0.0576
 6895W        W23156   4.921   8.223  12.578 -0.0235 -0.4550 -0.1690
 6896W        W23157  11.780   3.530   3.253  0.1105 -0.2862  0.1256
 6897W        W23158   0.161  17.228   2.147 -0.1008  0.1407 -0.3015
 6898W        W23159   7.552  12.232  11.137 -0.2198 -0.0143 -0.1150
 6899W        W23160   4.378  10.001  12.288 -0.1031 -0.1819 -0.2176
 6900W        W23161  11.217   5.872   5.475 -0.0150  0.0808 -0.0961
 6901W        W23162  16.835   4.993  12.457 -0.1133  0.1711 -0.0641
 6902W        W23163  18.226  14.437  11.412  0.0516 -0.0822 -0.1776
 6903W        W23164   0.897   6.899  12.696 -0.3764 -0.2977 -0.1322
 6904W        W23165   2.853   7.408   2.761  0.1614 -0.3193  0.2934
 6905W        W23166   0.056   8.482   0.945  0.0628 -0.2937 -0.0401
 6906W        W23167   4.555   8.160   1.385  0.2662  0.0209  0.0905
 6907W        W23168   6.959  16.974   4.237  0.0347  0.1038 -0.0134
 6908W        W23169  13.387   3.510  11.671  0.0511  0.0811 -0.0455
 6909W        W23170  14.310  15.056  12.816  0.0750 -0.0930 -0.0919
 6910W        W23171  14.206   8.256  13.660  0.1901  0.1186  0.1228
 6911W        W23172   3.622   2.971   0.697 -0.0553  0.0671 -0.2739
 6912W        W23173   7.995  18.691  11.628 -0.0035 -0.1672  0.2389
 6913W        W23174   6.445  13.328   2.311 -0.2735 -0.2238 -0.1022
 6914W        W23175  14.480  17.027   0.012 -0.1482  0.1801  0.0555
 6915W        W23176  14.153   8.839  13.665  0.0348 -0.0111  0.1446
 6916W        W23177  13.870   2.729  11.295 -0.3580  0.1975  0.0420
 6917W        W23178   2.202   8.852  15.552  0.3071 -0.0638  0.0382
 6918W        W23179   2.596   2.153   0.429  0.2414 -0.0049  0.1690
 6919W        W23180  15.839   1.515  11.956 -0.1589  0.2486  0.1264
 6920W        W23181   1.930  11.016   2.762  0.0629  0.0388 -0.0506
 6921W        W23182   8.501   6.854   5.766 -0.0911  0.1645 -0.1267
 6922W        W23183   7.512  15.299   2.203 -0.2082  0.1343 -0.2783
 6923W        W23184   4.964  15.839   2.888 -0.1337 -0.0428  0.0919
 6924W        W23185  16.597  15.636   5.656  0.0428  0.0070  0.3165
 6925W        W23186   8.711  16.752   0.468  0.0778 -0.0942 -0.0992
 6926W        W23187  12.810  12.971   1.284  0.1260  0.0060  0.3465
 6927W        W23188  13.002   8.205   5.953 -0.2358 -0.1687  0.0905
 6928W        W23189  12.756   0.089   3.263  0.1605 -0.1270 -0.0146
 6929W        W23190  18.806  17.168  14.908  0.0553  0.0058  0.0216
 6930W        W23191   1.635   5.256  13.915  0.0421  0.1290  0.2154
 6931W        W23192   5.142  13.294  11.726 -0.1456 -0.1142 -0.0102
 6932W        W23193   8.344   4.903   2.369  0.0654 -0.0971  0.0264
 6933W        W23194  16.226  14.726   1.811  0.0273 -0.0093 -0.2254
 6934W        W23195  18.320  13.147  11.440  0.3610 -0.0150 -0.1987
 6935W        W23196  12.732   0.108  10.908  0.0007  0.0504  0.2884
 6936W        W23197   9.361  10.117  14.045 -0.1173 -0.1504  0.0178
 6937W        W23198  11.526  11.361   4.850 -0.0006 -0.2821 -0.1227
 6938W        W23199   5.057   3.946  13.623  0.0138  0.2968 -0.0182
 6939W        W23200   1.058   3.739  15.562 -0.1113  0.0930 -0.3951
 6940W        W23201   7.878  14.026   1.241  0.2203 -0.0633  0.2185
 6941W        W23202  11.979   1.977  12.270  0.0016  0.3859  0.1504
 6942W        W23203   8.626   3.664   5.281  0.0272 -0.0157 -0.0255
 6943W        W23204   9.142  16.530  15.617  0.0602 -0.1669 -0.1277
 6944W        W23205  14.377  10.848   1.248 -0.1684 -0.0244 -0.3395
 6945W        W23206   6.353   4.182  15.160 -0.2178 -0.3499  0.0570
 6946W        W23207   7.154  12.223  11.546 -0.0276 -0.2511 -0.1224
 6947W        W23208  11.982  11.678   3.836 -0.3766 -0.1407  0.2448
 6948W        W23209   7.545   9.790  12.431 -0.0506  0.0218 -0.0033
 6949W        W23210  13.747   9.195  10.837  0.0791 -0.1492  0.1786
 6950W        W23211   7.898  10.426  12.187 -0.0465 -0.0230  0.4432
 6951W        W23212   2.740   8.019  13.283 -0.0645 -0.2162  0.1623
 6952W        W23213  13.621   0.927   0.848 -0.1883  0.3054 -0.0303
 6953W        W23214  18.381   4.135  13.041  0.1044  0.0890  0.2121
 6954W        W23215   6.812   3.205   6.997 -0.1871  0.3333 -0.0983
 6955W        W23216   6.652  11.357   4.365  0.1109 -0.2830 -0.0400
 6956W        W23217  10.452  17.820   5.512  0.0708  0.1233 -0.3087
 6957W        W23218  13.585  13.958   1.363  0.1223 -0.0161  0.3165
 6958W        W23219  16.140   3.400   0.711  0.3310 -0.3530  0.1435
 6959W        W23220   4.577  17.287   1.110 -0.0084  0.0167 -0.0919
 6960W        W23221   5.081  17.812  13.061  0.1670 -0.3942  0.2107
 6961W        W23222  12.238  16.120  11.651 -0.2013  0.0344  0.2964
 6962W        W23223   2.834   7.734  11.167 -0.1588  0.1669 -0.0569
 6963W        W23224  10.871   9.579   3.576  0.1384  0.0902  0.0516
 6964W        W23225   4.671  13.117   0.904  0.0577  0.1312  0.0355
 6965W        W23226   6.127   7.778  12.224  0.1944  0.0405 -0.2349
 6966W        W23227  11.231   4.944  15.318  0.1500 -0.2912 -0.3072
 6967W        W23228  13.899  12.057   2.044 -0.1209 -0.2690 -0.2124
 6968W        W23229  14.508   0.348   0.440 -0.2048 -0.2598  0.1782
 6969W        W23230   9.891   1.432  14.073  0.0798  0.2677 -0.0540
 6970W        W23231  12.458  17.768  11.735 -0.0245  0.1197  0.0825
 6971W        W23232  15.158  13.606   5.204 -0.1277  0.0803  0.0816
 6972W        W23233   9.560   5.787   1.971 -0.1747 -0.2429 -0.3141
 6973W        W23234  16.001  14.234   4.817 -0.2031  0.0002 -0.1595
 6974W        W23235   2.102   8.032  15.469 -0.1362 -0.1611 -0.0974
 6975W        W23236  16.862   5.946   4.467 -0.0241 -0.1762 -0.1731
 6976W        W23237  18.152   3.589  10.694 -0.2496  0.2469  0.0431
 6977W        W23238   0.942  17.705   0.472  0.2050 -0.1136 -0.0441
 6978W        W23239   3.994   0.711   4.326 -0.3309 -0.0781 -0.2768
 6979W        W23240  10.680   5.876  14.881 -0.0518  0.0434 -0.4100
 6980W        W23241   9.337  15.774  10.783  0.1628  0.0161 -0.1376
 6981W        W23242   1.114   7.871   3.975  0.1962  0.1297 -0.0325
 6982W        W23243   2.842  13.542  14.720  0.0323 -0.2472 -0.0205
 6983W        W23244   1.399  10.766  12.013 -0.0300 -0.0844  0.1222
 6984W        W23245  14.917   6.620   9.686  0.0608  0.2430 -0.0953
 6985W        W23246  13.298  13.425   4.342  0.2122  0.0130  0.2018
 6986W        W23247  11.693   1.053  14.160  0.0614 -0.1637  0.0430
 6987W        W23248  13.092   7.165  11.109  0.0963 -0.1358  0.2310
 6988W        W23249  14.042  15.731  12.391 -0.5005 -0.0166 -0.0641
 6989W        W23250   6.752   5.837   3.294  0.0499  0.0716  0.1679
 6990W        W23251   3.668   5.836  11.799 -0.1598 -0.1659  0.2192
 6991W        W23252  11.861   5.673  11.961  0.1150 -0.1268 -0.0860
 6992W        W23253  15.643   0.941   0.862 -0.0062  0.0531 -0.0765
 6993W        W23254   0.553   1.889   3.702  0.0579 -0.2142 -0.0930
 6994W        W23255   4.760   2.222  10.215  0.3643 -0.0529 -0.0258
 6995W        W23256  16.298   0.469   4.008  0.1239 -0.0730 -0.1124
 6996W        W23257  14.097   6.542  11.526 -0.3838  0.0792 -0.1189
 6997W        W23258  15.218   4.778   1.102 -0.1928  0.0305 -0.1637
 6998W        W23259  15.057   0.943   1.650 -0.0316  0.1987 -0.2204
 6999W        W23260  11.240   4.297   4.862  0.1023 -0.2809  0.0644
 7000W        W23261   7.075   6.924  11.970 -0.1157  0.4143  0.1684
 7001W        W23262   8.000  14.220  11.387  0.1480  0.1544  0.3355
 7002W        W23263  17.354  12.109   5.535 -0.1451 -0.2065  0.0923
 7003W        W23264   2.451   8.470   1.134  0.0856  0.3629  0.0208
 7004W        W23265  16.586   8.650   3.066  0.1844 -0.2056  0.0706
 7005W        W23266   1.651   7.550   3.263 -0.0864 -0.0477  0.0019
 7006W        W23267   0.338  12.350  14.699  0.2223 -0.1930 -0.1671
 7007W        W23268  12.248   2.874  12.549 -0.0338 -0.2427 -0.0435
 7008W        W23269  11.508   4.975   0.596 -0.1024  0.2365 -0.1570
 7009W        W23270   5.775   6.617  12.383  0.2601  0.2311 -0.3092
 7010W        W23271  12.930   1.942   3.824  0.2166  0.3858  0.0051
 7011W        W23272   2.119   1.381   0.152  0.1539  0.0636 -0.0447
 7012W        W23273   0.787  16.730  15.235  0.0465 -0.1617 -0.1154
 7013W        W23274   8.086   9.082   4.174  0.1539 -0.0226  0.0019
 7014W        W23275   9.516  16.700  14.486  0.1045 -0.0043  0.1214
 7015W        W23276   5.073  15.691   2.423 -0.0707  0.5301  0.1024
 7016W        W23277   1.633  14.604   4.886 -0.1012 -0.1062 -0.0132
 7017W        W23278  10.150  10.705   2.897  0.0786  0.0459 -0.0622
 7018W        W23279   3.878  18.601  13.160  0.0762  0.0738 -0.0566
 7019W        W23280   4.313  11.610   3.571 -0.4462 -0.1833 -0.4031
 7020W        W23281   6.206  15.931  15.043  0.1610 -0.1449  0.4477
 7021W        W23282   5.675   4.627   0.027  0.0239 -0.0667 -0.0206
 7022W        W23283   4.857   7.794   0.015  0.4251 -0.0617 -0.0713
 7023W        W23284   1.337   7.665  12.592  0.1139 -0.0968 -0.2954
 7024W        W23285  17.446   8.250   2.669  0.1896  0.2421 -0.1093
 7025W        W23286   9.808  17.684  11.642  0.2967 -0.0957  0.1309
 7026W        W23287  15.250  12.089  11.619  0.3547 -0.1149  0.0465
 7027W        W23288  16.612   9.139   1.423 -0.4068 -0.1316 -0.1261
 7028W        W23289  13.292   9.193   3.975 -0.0159 -0.1386 -0.6224
 7029W        W23290  11.185   4.970   5.363  0.0267  0.0800 -0.0774
 7030W        W23291  18.610   8.541  12.209  0.0514  0.0409  0.3759
 7031W        W23292  13.004   6.460   4.545  0.2882  0.0339 -0.1316
 7032W        W23293  18.046  17.948  11.173  0.0936  0.0528  0.3380
 7033W        W23294  11.952  14.537   2.358 -0.0908 -0.2496  0.0226
 7034W        W23295   7.632   1.129   1.221  0.1169  0.2077 -0.0829
 7035W        W23296  13.880   5.588  14.887 -0.1834  0.2298  0.1747
 7036W        W23297  18.348   9.285  10.406  0.1004  0.1083  0.2345
 7037W        W23298  15.802   9.222  11.426  0.2118  0.0748 -0.0915
 7038W        W23299   6.661   9.363  13.699  0.0613  0.2741  0.2609
 7039W        W23300  12.437   5.050   4.504 -0.2692 -0.1364 -0.4143
 7040W        W23301  18.755  10.941   3.972  0.0051 -0.1304 -0.1180
 7041W        W23302  17.811  13.228   2.432 -0.0469 -0.3083 -0.1806
 7042W        W23303  13.461  17.366   0.221 -0.4387 -0.2212  0.2158
 7043W        W23304   1.707  15.394  14.646  0.3167  0.0189  0.0609
 7044W        W23305  18.098  14.988  11.520 -0.0369  0.1956 -0.5979
 7045W        W23306   3.409  17.590   3.449 -0.0582  0.0745 -0.2512
 7046W        W23307  17.902  10.144  11.267  0.0615  0.2018 -0.1927
 7047W        W23308  17.952  18.376   3.784 -0.2691  0.1126 -0.0877
 7048W        W23309   8.997   5.385  15.083 -0.3734  0.0231  0.0142
 7049W        W23310   7.591   4.964   2.837 -0.1745  0.0516 -0.2116
 7050W        W23311  10.064   1.958   2.571 -0.0741 -0.2008  0.1570
 7051W        W23312  18.417  18.160  13.039  0.3660  0.0206  0.2224
 7052W        W23313  18.261  14.001   0.617  0.0224 -0.0074  0.2327
 7053W        W23314  16.915  14.404   1.105  0.1094 -0.3051  0.1860
 7054W        W23315  13.919  14.493  13.663  0.0960 -0.0801 -0.0159
 7055W        W23316   8.469  11.911   3.487  0.1616  0.5077  0.1670
 7056W        W23317  18.660   9.101  12.985 -0.1797 -0.1505 -0.3870
 7057W        W23318  12.196   1.236  11.565 -0.2203  0.1237  0.1008
 7058W        W23319  15.932  12.402   9.897 -0.2125  0.2485  0.0365
 7059W        W23320  15.431  14.023   2.755  0.1894 -0.2552 -0.0387
 7060W        W23321   4.191  16.371   5.288 -0.0142 -0.1795  0.1067
 7061W        W23322   2.885   9.216   1.281 -0.1092 -0.0408 -0.1497
 7062W        W23323   2.841  15.882   3.804 -0.1235  0.3472  0.0621
 7063W        W23324   9.199  18.233   1.180 -0.1577 -0.1688  0.1572
 7064W        W23325   1.628   4.608  11.086  0.2880 -0.0415 -0.0223
 7065W        W23326  12.055  16.469  14.926  0.0769  0.0111  0.2223
 7066W        W23327   7.252   7.975   1.921 -0.0012  0.1337 -0.2269
 7067W        W23328  17.036  16.285   4.535 -0.1207  0.1063  0.0516
 7068W        W23329  14.464   8.560  14.404  0.1050  0.0497  0.2340
 7069W        W23330  10.923   3.372   6.232  0.1829 -0.0573 -0.0366
 7070W        W23331  16.304   0.344   3.017 -0.0038  0.1735  0.1482
 7071W        W23332   7.970   4.730   3.264 -0.0911 -0.0334  0.0124
 7072W        W23333   7.226  11.606  10.179 -0.0035  0.1039  0.0129
 7073W        W23334   2.988  13.914   4.578 -0.1096  0.1721  0.3213
 7074W        W23335   4.622  11.359  10.752  0.1389 -0.2489  0.2667
 7075W        W23336   1.588   3.490   5.562  0.2099 -0.1917  0.2106
 7076W        W23337  10.853   8.135  13.565  0.2317  0.0040 -0.1082
 7077W        W23338  12.510  11.375   9.564  0.6340 -0.0879 -0.2971
 7078W        W23339  16.257  12.763  14.880 -0.1558 -0.1152 -0.2163
 7079W        W23340   8.288  11.474  13.084 -0.2721  0.2832 -0.0919
 7080W        W23341   0.504  11.596   0.007 -0.2426  0.3657  0.2759
 7081W        W23342  12.974   2.694  15.219 -0.2499 -0.2257  0.1410
 7082W        W23343  17.930   4.638   1.350 -0.1690  0.4070  0.0171
 7083W        W23344   7.918  15.475  11.738 -0.0855 -0.2130  0.1180
 7084W        W23345   6.863  11.807  15.610  0.1023  0.0121 -0.0392
 7085W        W23346   7.278   2.510  13.063  0.0530 -0.2494  0.0500
 7086W        W23347  13.579  11.763  14.675  0.3401 -0.0449  0.0622
 7087W        W23348   1.733   4.327  11.569 -0.2107 -0.0175  0.1279
 7088W        W23349  18.443  17.486   0.700 -0.1343 -0.1331  0.1987
 7089W        W23350  10.620   8.930  14.555  0.1751 -0.0151  0.1031
 7090W        W23351  10.237  15.248  12.500  0.2561 -0.2416  0.0284
 7091W        W23352  10.223  15.722   5.301  0.0116 -0.3575 -0.2905
 7092W        W23353  18.692   1.788  10.528  0.1738  0.0426  0.0022
 7093W        W23354   9.278   4.840  11.690  0.1099  0.2781  0.2220
 7094W        W23355  15.038   7.165   1.985  0.0202  0.1201  0.1398
 7095W        W23356  18.484   3.869  13.947 -0.0527  0.3004 -0.1698
 7096W        W23357   1.585   2.914  12.004  0.1641 -0.0986 -0.0697
 7097W        W23358   9.790   2.449   4.009  0.1106  0.2326  0.0155
 7098W        W23359   8.369   8.039   4.006  0.3362 -0.1874  0.0300
 7099W        W23360  15.443  18.575   4.544  0.1264 -0.0157  0.1742
 7100W        W23361  16.287   9.608  14.173 -0.0013  0.0411  0.1027
 7101W        W23362   8.208   1.824   3.847  0.2012 -0.0414  0.1412
 7102W        W23363   2.386   4.343   0.731 -0.2677  0.0763  0.0224
 7103W        W23364   9.176   6.002   1.529  0.0719  0.0191  0.4821
 7104W        W23365  16.783  13.744  11.124  0.2115  0.2459  0.4781
 7105W        W23366  12.820  15.755  14.856 -0.2096  0.2676  0.2411
 7106W        W23367  17.382   0.572  13.138  0.0556  0.1580 -0.0647
 7107W        W23368  13.260   6.737  15.124 -0.0001 -0.1169  0.0406
 7108W        W23369   7.674  18.338  10.307 -0.1101  0.0048  0.1444
 7109W        W23370   3.804  13.361  13.499 -0.1722  0.0703  0.2515
 7110W        W23371  11.143   6.964   2.538 -0.2130 -0.1074  0.0727
 7111W        W23372  12.102   5.646  15.060 -0.1886 -0.0341  0.1291
 7112W        W23373   9.545   0.587   1.092 -0.1175 -0.1026 -0.1549
 7113W        W23374  10.221  17.738   4.058 -0.4070  0.2041  0.2211
 7114W        W23375   2.523   4.921   2.980  0.1410  0.0741 -0.0190
 7115W        W23376  12.184   3.472  13.782  0.1402  0.2253 -0.1298
 7116W        W23377   4.220  16.990   3.469  0.1575 -0.1051 -0.0449
 7117W        W23378  18.273   2.076  13.302 -0.0969 -0.2048  0.2816
 7118W        W23379  11.748  18.079   4.130  0.1551  0.0320  0.0048
 7119W        W23380  12.151  10.254  14.102 -0.1527 -0.3467  0.1755
 7120W        W23381   4.160   3.777   1.044  0.0897  0.1748  0.0371
 7121W        W23382   2.020   9.002   1.653 -0.1205 -0.2683  0.2082
 7122W        W23383  15.597  13.091   4.285 -0.0842  0.2542 -0.1985
 7123W        W23384   5.199   3.118   3.837  0.0826 -0.0021  0.1457
 7124W        W23385   3.037   0.371   0.273  0.2590  0.0892 -0.3631
 7125W        W23386  11.565  15.125  13.296 -0.2228  0.2195 -0.1267
 7126W        W23387   3.690  10.813   0.918 -0.3772 -0.0910 -0.1071
 7127W        W23388   5.970   0.246  10.938 -0.4462 -0.2233 -0.0892
 7128W        W23389   9.324   2.649   2.217  0.0055  0.0465 -0.1922
 7129W        W23390   1.559  10.003  11.371  0.0958  0.0394 -0.1681
 7130W        W23391  15.613   3.533  10.960 -0.1160  0.0081  0.3040
 7131W        W23392   7.142   2.229   1.986 -0.3668  0.1345 -0.2702
 7132W        W23393   4.651   6.350   3.831  0.0003 -0.2912 -0.1017
 7133W        W23394  16.528  14.923   2.950  0.0370 -0.4192  0.2151
 7134W        W23395  15.437   9.172   1.703  0.0114  0.2565  0.0751
 7135W        W23396  17.180   3.803  14.329 -0.1425 -0.2337 -0.1149
 7136W        W23397   7.370  14.146   1.261 -0.2177 -0.3389 -0.0135
 7137W        W23398  18.593  14.168  15.515 -0.0100 -0.0913 -0.0325
 7138W        W23399   9.385   9.712  14.575 -0.1227  0.0738  0.2039
 7139W        W23400   7.917  18.635  13.070  0.1061  0.1459 -0.0423
 7140W        W23401  15.896  15.436   3.272 -0.3648  0.0078  0.0326
 7141W        W23402   1.446   8.150   1.498  0.2654  0.2048  0.0174
 7142W        W23403   2.364  15.914   3.241  0.0490  0.2811  0.1371
 7143W        W23404   2.698  12.985   3.778 -0.1156  0.3639  0.2112
 7144W        W23405   4.290   1.729   0.619  0.0750  0.2704 -0.0303
 7145W        W23406   3.053  18.487   3.600  0.2438  0.1666  0.1553
 7146W        W23407   2.373   9.100  12.949 -0.2436 -0.3286  0.1751
 7147W        W23408   1.133  12.065   0.696 -0.4361 -0.1118 -0.2557
 7148W        W23409   0.711   8.544   3.656  0.1003 -0.1663 -0.1348
 7149W        W23410   7.367   7.902  11.918  0.4251  0.3745 -0.0386
 7150W        W23411  17.402   4.917  14.893 -0.2720 -0.0975  0.4159
 7151W        W23412   8.479  11.819  11.639 -0.3184 -0.0306  0.0989
 7152W        W23413   3.516   9.286   2.822  0.0211 -0.2459  0.4359
 7153W        W23414  14.561  17.479   4.491  0.0601  0.0844 -0.1645
 7154W        W23415   7.378  10.774   3.062 -0.0642  0.2218 -0.0300
 7155W        W23416   1.749   4.723   5.417 -0.1868 -0.2116 -0.0553
 7156W        W23417   9.530   4.041  12.266 -0.1205 -0.1151  0.0566
 7157W        W23418  17.967  17.102  12.885  0.0571  0.1294 -0.3357
 7158W        W23419  14.438   6.510  15.339  0.0231  0.1241 -0.1421
 7159W        W23420  13.040  10.843   3.350 -0.0696  0.3731 -0.0574
 7160W        W23421   8.630  15.401  13.193 -0.0722 -0.1423 -0.1340
 7161W        W23422   3.568  17.982   0.162  0.1562  0.2061  0.1031
 7162W        W23423  11.772  16.320  10.838  0.1193 -0.0960 -0.0850
 7163W        W23424  17.186  13.143   1.197 -0.1405 -0.1837  0.0423
 7164W        W23425   9.091   2.973   1.252 -0.0080 -0.0119 -0.0096
 7165W        W23426  12.535  15.256   1.696  0.1432  0.1680 -0.1236
 7166W        W23427   0.962   3.169  13.504 -0.0960 -0.1154  0.0417
 7167W        W23428  16.280  11.767  14.002  0.0454 -0.1189  0.0474
 7168W        W23429   2.924  12.590   0.356  0.2360 -0.1092  0.0933
 7169W        W23430  14.128   3.378   3.932  0.1322 -0.0233 -0.0130
 7170W        W23431   5.079  18.388   4.304  0.1683  0.0874 -0.0110
 7171W        W23432   3.587  17.578   3.886  0.2636  0.2833  0.0901
 7172W        W23433  14.403   4.841   2.294  0.1100  0.1623 -0.0217
 7173W        W23434  15.793  12.835  13.185 -0.3717  0.1992  0.0510
 7174W        W23435  14.811  17.736  10.691  0.0857 -0.0433  0.1016
 7175W        W23436   4.256  14.991  12.106 -0.1970 -0.4330  0.4210
 7176W        W23437  11.403   5.411  13.090  0.1125 -0.2946  0.0298
 7177W        W23438   3.418  17.732   1.751 -0.2197  0.1444 -0.1222
 7178W        W23439   8.293   8.735   4.684 -0.1264 -0.1643  0.3574
 7179W        W23440   4.190   8.444   1.121 -0.0656  0.1678  0.2373
 7180W        W23441  10.351   6.601   0.306  0.0483 -0.2943  0.0134
 7181W        W23442  13.013  16.422  12.885 -0.1244  0.0348 -0.1667
 7182W        W23443   1.984  18.197  13.651  0.1385  0.0765 -0.1859
 7183W        W23444   1.477  12.650   2.437  0.0410 -0.2343 -0.0240
 7184W        W23445  12.683   4.509   4.734 -0.0019 -0.2448 -0.2301
 7185W        W23446  16.745  10.411  12.540  0.2421  0.0158 -0.2162
 7186W        W23447   6.391  17.800   1.833  0.3911 -0.1548 -0.3714
 7187W        W23448  15.705  18.193   0.393 -0.0193 -0.0382  0.2629
 7188W        W23449  13.710   4.781   0.407  0.1134  0.0212 -0.0399
 7189W        W23450   9.575  14.263  13.794  0.2050  0.1005  0.2346
 7190W        W23451   7.175   0.321   0.201  0.3762  0.2148 -0.0237
 7191W        W23452   8.298   7.953  13.733  0.0663  0.0317  0.1436
 7192W        W23453   6.741  15.120  11.616 -0.1820 -0.2818  0.0093
 7193W        W23454  10.036  14.977  14.856  0.1384  0.0875 -0.0541
 7194W        W23455   0.060   8.277  11.205 -0.0353  0.0518 -0.1114
 7195W        W23456  17.141   7.141  15.592  0.2850 -0.0070  0.0491
 7196W        W23457   9.734   1.040   6.060 -0.2454  0.2259  0.0254
 7197W        W23458   1.874   3.906   5.855 -0.2471 -0.0783 -0.1045
 7198W        W23459  15.795  15.821   2.262  0.2843  0.0552  0.1296
 7199W        W23460   3.301   4.435   2.532  0.1767  0.1641 -0.0831
 7200W        W23461  18.513   3.448  15.544  0.2319 -0.1836  0.2522
 7201W        W23462   6.258   6.191   3.361 -0.1013 -0.1381  0.0155
 7202W        W23463  15.939   8.489  12.232  0.0493  0.2029 -0.1499
 7203W        W23464  13.066   8.681  13.562 -0.2289 -0.2567  0.1608
 7204W        W23465   1.625   1.610  12.874 -0.3790  0.1412 -0.3212
 7205W        W23466  16.984   1.931   2.229  0.1265 -0.0539 -0.1806
 7206W        W23467   2.369   5.670   3.067  0.1223  0.0279 -0.1500
 7207W        W23468  11.931   8.450  12.546 -0.2705 -0.0936  0.0276
 7208W        W23469   2.182   6.951   4.976  0.1253 -0.0764  0.1371
 7209W        W23470   1.309  11.453  13.995 -0.1106 -0.1571 -0.1006
 7210W        W23471  11.608   1.488   3.331  0.0853 -0.2835 -0.1155
 7211W        W23472   9.092   9.480  11.385 -0.0789  0.2170  0.1252
 7212W        W23473  16.622  17.621  11.568  0.0678 -0.2607  0.2626
 7213W        W23474  17.655  15.729   2.487 -0.0912 -0.4505  0.0066
 7214W        W23475   2.580   2.533   2.977  0.1711 -0.1766  0.0431
 7215W        W23476  15.405   2.087   4.595  0.0768  0.1147 -0.0619
 7216W        W23477  17.972  16.488  12.101  0.0081 -0.0131  0.1677
 7217W        W23478  15.428   0.899   3.945 -0.2202 -0.0298  0.1065
 7218W        W23479  17.031  13.458   4.884 -0.0854  0.2010 -0.0506
 7219W        W23480  17.290  12.469  10.886  0.1729 -0.0176  0.0864
 7220W        W23481  16.526  18.240  12.507  0.0327 -0.0859  0.0183
 7221W        W23482  18.715   6.760  12.937  0.1340 -0.0003  0.3734
 7222W        W23483  12.927  18.418   1.892 -0.2573 -0.2517  0.2006
 7223W        W23484   5.799   7.379   4.746 -0.0409  0.1913  0.2082
 7224W        W23485  15.945  10.212   0.084  0.0997  0.2038  0.0483
 7225W        W23486   7.947  11.856  15.480 -0.0629  0.2171 -0.1846
 7226W        W23487   1.734   1.358  10.416  0.0039  0.3179  0.1567
 7227W        W23488   2.439  18.558  15.047  0.0742  0.1376 -0.2022
 7228W        W23489  16.744  13.109   5.129 -0.1280  0.1403  0.0657
 7229W        W23490   4.129  17.465  14.625 -0.0889  0.0990  0.4340
 7230W        W23491   4.862   9.388   4.914 -0.0051  0.3050 -0.1255
 7231W        W23492  15.862   0.265   2.710  0.5512  0.1568  0.3434
 7232W        W23493  15.303   1.582  15.135 -0.1007  0.0947 -0.0569
 7233W        W23494  16.981  16.060  12.028  0.0527  0.3451  0.2089
 7234W        W23495   1.019  17.224   0.369  0.3002  0.4691 -0.0362
 7235W        W23496  15.126   1.772   3.817  0.2341 -0.1125 -0.0103
 7236W        W23497   7.352   1.850  13.268 -0.0943 -0.0426  0.0514
 7237W        W23498  16.833  10.929   1.676  0.0543  0.1050  0.1349
 7238W        W23499  14.718  11.176   1.041 -0.0435 -0.0169  0.0146
 7239W        W23500   7.325   2.559  13.715 -0.1000 -0.0071 -0.1594
 7240W        W23501   6.001  16.386   3.850 -0.1191 -0.2767 -0.1169
 7241W        W23502   5.385   1.285   4.370 -0.0874  0.0770 -0.1034
 7242W        W23503   1.541  13.200  12.566  0.1303  0.5606  0.0342
 7243W        W23504   6.428  10.386   4.012 -0.1376  0.4405 -0.1727
 7244W        W23505   1.343  16.042   1.738  0.0309 -0.0993  0.0852
 7245W        W23506   9.136   5.916   2.134  0.1342 -0.0795 -0.2015
 7246W        W23507   2.217  10.482  13.879 -0.1600 -0.0380 -0.0821
 7247W        W23508   8.417   7.351   1.638 -0.2149 -0.2469  0.2538
 7248W        W23509  17.342  13.356   2.345 -0.1717  0.0111  0.0801
 7249W        W23510  13.361   2.188   2.186  0.0502  0.0511 -0.0639
 7250W        W23511   8.808   2.310   4.700  0.4486  0.2423  0.0263
 7251W        W23512   4.142   4.883   3.260  0.0507 -0.1114  0.0075
 7252W        W23513  11.865  10.371  15.007  0.2812 -0.0215 -0.0077
 7253W        W23514  12.779  10.563  15.630 -0.4835 -0.3946 -0.0745
 7254W        W23515   1.241   3.003   5.147  0.2122 -0.0493 -0.5720
 7255W        W23516  16.075  12.488   3.731  0.4831  0.2077  0.1799
 7256W        W23517  14.056   4.340  12.502  0.0941 -0.0779  0.1400
 7257W        W23518  15.947   8.043  14.714  0.0453  0.2928  0.2218
 7258W        W23519  14.310  16.499   4.434  0.3572 -0.0778  0.0377
 7259W        W23520   8.965   1.488   2.754  0.1477  0.2411  0.1811
 7260W        W23521   0.515   1.621   4.175  0.0790  0.0584  0.0108
 7261W        W23522   5.395  18.561  15.221  0.2470 -0.0083 -0.3912
 7262W        W23523  10.497  12.889  12.013 -0.4290 -0.0621  0.0489
 7263W        W23524  12.799   4.243   2.951  0.2321 -0.0756 -0.0449
 7264W        W23525   1.121  15.557  12.309  0.2609  0.2276  0.0010
 7265W        W23526   5.684   3.020   2.211  0.1613 -0.1423 -0.0817
 7266W        W23527  18.696   5.994   4.906 -0.2284 -0.0978 -0.0518
 7267W        W23528   5.951   4.446   5.626 -0.1971 -0.0073 -0.0396
 7268W        W23529  12.568  13.088   0.053  0.1619 -0.0542  0.3291
 7269W        W23530  15.942   7.086  11.976  0.0139  0.0853 -0.3740
 7270W        W23531   4.480  14.088   3.690 -0.0727  0.1949 -0.0251
 7271W        W23532   3.731   8.414  15.478  0.0453 -0.1426 -0.1155
 7272W        W23533   1.218   8.908  12.165 -0.0807  0.2340 -0.1036
 7273W        W23534   0.839   3.101   1.939 -0.1697  0.0411 -0.1835
 7274W        W23535   7.308  10.904  14.207 -0.0655 -0.1651  0.3693
 7275W        W23536   9.803  16.504  13.338  0.2406 -0.0740  0.0999
 7276W        W23537   9.042   3.776   3.260 -0.3122  0.0174  0.1408
 7277W        W23538   7.970   0.018   1.229  0.1872  0.1922 -0.3331
 7278W        W23539  12.012   1.048   2.152 -0.1190 -0.1277 -0.0881
 7279W        W23540  12.101  10.607   2.076  0.1274 -0.2122  0.1003
 7280W        W23541   5.063   9.120   2.693 -0.0046  0.3420  0.0602
 7281W        W23542  15.612   1.597   3.180  0.0891  0.0502  0.0338
 7282W        W23543   7.122  12.513  15.298  0.0506  0.1823  0.2455
 7283W        W23544   6.612   3.779  10.541  0.1258 -0.0774 -0.2594
 7284W        W23545  12.837   7.467   5.079 -0.1534  0.1833  0.3911
 7285W        W23546  18.769  11.639   0.109  0.1560 -0.0362 -0.0128
 7286W        W23547   7.776   8.026   1.966  0.0307  0.1316 -0.3092
 7287W        W23548  15.582  18.022   1.454 -0.2745 -0.1864  0.1015
 7288W        W23549   5.712  13.628   3.233  0.2674  0.2803  0.1667
 7289W        W23550   8.265  16.988   1.262 -0.1995  0.0319 -0.1056
 7290W        W23551  10.316   0.396   5.371  0.6249 -0.1932 -0.1766
 7291W        W23552   4.830  12.409  11.732 -0.2435  0.2193 -0.0087
 7292W        W23553   6.661   1.768   1.158  0.2291 -0.1658 -0.3404
 7293W        W23554  11.586   8.531   1.181  0.1154 -0.2096 -0.1227
 7294W        W23555   5.146  17.834  11.977 -0.2795  0.5147 -0.0737
 7295W        W23556  10.997  15.880  15.408 -0.0522  0.2014 -0.0853
 7296W        W23557  13.421   0.512  13.692  0.1862 -0.0272 -0.0233
 7297W        W23558   2.115  11.289  14.083  0.2074 -0.2623  0.1595
 7298W        W23559  11.193  12.612   3.654  0.0892 -0.1172  0.0009
 7299W        W23560  10.617   3.019  12.273  0.2774  0.0558  0.1862
 7300W        W23561   0.619  11.637   2.281 -0.2582  0.3646  0.0427
 7301W        W23562  12.113   8.597  12.137 -0.0961  0.1397 -0.1798
 7302W        W23563   4.739  10.266   5.199  0.0829  0.1089  0.2154
 7303W        W23564  14.833   6.242   5.880  0.2411  0.3775 -0.2616
 7304W        W23565   6.606   9.869  12.944  0.1190  0.0173  0.0011
 7305W        W23566  11.813  16.981  11.486 -0.0273 -0.2085 -0.1316
 7306W        W23567  18.439   6.491  14.818 -0.2223  0.0954 -0.0992
 7307W        W23568   1.663   6.737  15.561  0.1545  0.1597 -0.1935
 7308W        W23569   5.528  13.211   3.884 -0.1895 -0.1741 -0.0355
 7309W        W23570  17.227  10.582  12.579 -0.0767 -0.0806  0.0175
 7310W        W23571  10.495  12.419  14.209  0.3215  0.0519 -0.2257
 7311W        W23572   3.479   6.972  14.584 -0.0394 -0.2856 -0.2623
 7312W        W23573   1.449   4.025  15.201 -0.0610  0.0796  0.2607
 7313W        W23574   6.889   4.544   1.817 -0.3220  0.0617  0.0152
 7314W        W23575  11.292  10.581   3.833  0.2577  0.0482  0.0033
 7315W        W23576   0.168   4.381  14.779  0.1668 -0.0035  0.1623
 7316W        W23577   6.382  11.358  14.222  0.0372  0.0216  0.3065
 7317W        W23578  10.620  18.682   5.161  0.0130  0.2753 -0.0604
 7318W        W23579   4.529  14.033  13.629 -0.0600  0.0195 -0.1471
 7319W        W23580  17.866   3.322   1.324 -0.1587 -0.3156  0.0734
 7320W        W23581   6.221  10.093  11.654  0.0824 -0.3232 -0.3226
 7321W        W23582   7.452   4.071   3.099 -0.0112  0.1807 -0.0979
 7322W        W23583   5.553  10.100  11.776  0.1730  0.2005 -0.0035
 7323W        W23584   1.349   7.721   0.777 -0.0145 -0.1088 -0.1773
 7324W        W23585   3.489   2.441  13.719  0.0688 -0.0426  0.0070
 7325W        W23586   1.457  12.665   4.550 -0.2302 -0.0184  0.2410
 7326W        W23587   8.473  15.187  12.771 -0.3046 -0.1176  0.0174
 7327W        W23588  12.348   7.214   4.434 -0.0775 -0.0353  0.1688
 7328W        W23589  10.032   9.108   3.704 -0.1347 -0.3087 -0.2155
 7329W        W23590   4.427  14.343  13.191  0.2717  0.2784 -0.0761
 7330W        W23591   4.517  10.426  12.046 -0.0086 -0.0665  0.2559
 7331W        W23592   6.986   1.826  12.419 -0.2236 -0.0419 -0.1012
 7332W        W23593   9.662   3.753  13.168  0.1896 -0.2877  0.0691
 7333W        W23594   0.964   6.240   2.874  0.2105  0.3085 -0.2553
 7334W        W23595  17.889  11.513  14.411  0.5594 -0.1928  0.1292
 7335W        W23596  16.080   7.585   4.569 -0.0343  0.1178 -0.0043
 7336W        W23597   3.948   4.358   2.504 -0.0430 -0.1154  0.1212
 7337W        W23598   2.425  10.667  14.773  0.2701 -0.0224 -0.0489
 7338W        W23599  16.709  13.358   3.620  0.1087  0.1644  0.2624
 7339W        W23600   7.193  12.395   3.474 -0.1921 -0.0211 -0.4752
 7340W        W23601  17.572  12.015   2.789  0.0308 -0.3235  0.5020
 7341W        W23602   5.794  10.478   1.259 -0.0494  0.0142  0.1071
 7342W        W23603  10.267   5.643   5.425  0.1961  0.2378 -0.1430
 7343W        W23604   9.115   0.349   4.990 -0.0635 -0.2119 -0.2172
 7344W        W23605   7.946   6.349   5.922 -0.2313  0.2824 -0.0650
 7345W        W23606  16.112   6.748   0.952  0.0032 -0.1783 -0.1994
 7346W        W23607   3.875   5.958  14.254 -0.6044 -0.4290  0.0798
 7347W        W23608   5.615   0.198  15.135 -0.1813  0.1116 -0.2836
 7348W        W23609   4.177  11.963  13.462  0.1749 -0.0680  0.1541
 7349W        W23610  16.222   3.886   0.628 -0.3430 -0.1902  0.0196
 7350W        W23611  12.092   9.612   0.477 -0.0031  0.0242  0.0270
 7351W        W23612  15.453   3.478  12.777 -0.0765  0.0429 -0.2541
 7352W        W23613  12.093  15.715   0.518  0.0913  0.0020 -0.1977
 7353W        W23614   6.299   5.085   2.226 -0.2308  0.0554 -0.1550
 7354W        W23615   1.397   7.316  15.211 -0.2862  0.1290 -0.1134
 7355W        W23616  16.631   7.681   3.192 -0.0627  0.1145  0.1711
 7356W        W23617   4.242  14.903  13.460 -0.1220 -0.0008  0.1386
 7357W        W23618  18.323   9.096   1.462  0.0142 -0.3633 -0.3795
 7358W        W23619   0.085   8.267   4.256 -0.1957 -0.0545 -0.2192
 7359W        W23620  14.948   3.365  11.709 -0.1357 -0.3207  0.0162
 7360W        W23621  13.156   1.247   0.604 -0.1320  0.0827 -0.2395
 7361W        W23622   6.428  10.311  11.178  0.2174 -0.1433  0.2552
 7362W        W23623  15.504  11.100  15.596 -0.1571 -0.0243  0.1338
 7363W        W23624   4.753   4.063  15.401 -0.0299  0.1958 -0.2063
 7364W        W23625  12.311  16.039   0.081 -0.3797  0.1834  0.2445
 7365W        W23626   8.161  10.965   5.398  0.1288 -0.0687  0.0600
 7366W        W23627   3.024   3.890   4.591 -0.0150 -0.1038  0.0009
 7367W        W23628  10.956  12.652   9.499  0.2632  0.0001 -0.0730
 7368W        W23629  17.998  16.732  12.521 -0.0554  0.2608 -0.1423
 7369W        W23630   7.660   1.379   3.022  0.2469  0.0410  0.0013
 7370W        W23631   3.864  13.552  12.703 -0.2211  0.1694  0.1098
 7371W        W23632  12.956   4.466   5.343  0.0099 -0.0893  0.1843
 7372W        W23633   8.956   3.297   2.593 -0.1808 -0.1408 -0.0267
 7373W        W23634  12.349  15.446   2.556 -0.2439 -0.0506 -0.2335
 7374W        W23635  12.612  10.367   4.129  0.1231 -0.0432 -0.0524
 7375W        W23636  15.408   9.200  10.511 -0.0561  0.1053  0.1210
 7376W        W23637   0.494   7.205   2.411 -0.0866 -0.2298  0.2665
 7377W        W23638   0.967   3.379  12.708  0.4001  0.0949  0.0044
 7378W        W23639  16.021   0.913  13.603 -0.0428  0.2877  0.3682
 7379W        W23640   5.027   1.251  12.346  0.1503  0.0257  0.1050
 7380W        W23641  12.780  11.410   3.973  0.3106 -0.1153 -0.3396
 7381W        W23642   5.454   0.687   1.401 -0.3768  0.3705  0.2704
 7382W        W23643   8.956  15.541  14.171 -0.0314  0.0905  0.0021
 7383W        W23644  13.317  15.865   1.615  0.0505  0.1792  0.1021
 7384W        W23645  18.501  13.058  12.277  0.1592 -0.1379  0.0503
 7385W        W23646  10.611  13.996  12.121  0.1610 -0.3122 -0.2554
 7386W        W23647  16.689  18.829   3.359  0.2491  0.1025  0.0294
 7387W        W23648  15.693  12.668   2.451  0.0495  0.1275 -0.0798
 7388W        W23649   6.797  11.266  14.538 -0.0665  0.1197  0.2462
 7389W        W23650  12.539   2.822   4.202 -0.0592  0.1110  0.0821
 7390W        W23651   9.626  17.605  14.415 -0.2063  0.0578 -0.0311
 7391W        W23652   5.378   8.570  10.108  0.2011  0.5082 -0.0806
 7392W        W23653  11.746   9.386   4.377 -0.3752  0.0953  0.0888
 7393W        W23654   2.685   9.289  11.019  0.0049 -0.0186  0.2415
 7394W        W23655   0.673   2.890   2.402 -0.1041  0.1272  0.1108
 7395W        W23656  13.029  13.671  11.966  0.0269  0.0880 -0.1404
 7396W        W23657  10.901   9.959  13.901  0.1288 -0.2917 -0.4574
 7397W        W23658  17.691  11.830   0.123  0.3986  0.3311  0.3320
 7398W        W23659   7.547  11.255   1.477  0.0711  0.0833 -0.1014
 7399W        W23660  13.987   1.603  12.342  0.1767 -0.0003  0.1882
 7400W        W23661  13.107   9.702  11.256 -0.1935 -0.0740 -0.0140
 7401W        W23662   0.552   4.025   1.680 -0.3528  0.0123 -0.0749
 7402W        W23663  16.353  14.604  10.062  0.1290  0.0277  0.0172
 7403W        W23664   9.663   0.773   3.091  0.2789  0.0247  0.0921
 7404W        W23665   6.758   7.215  14.853 -0.3319 -0.0223  0.1925
 7405W        W23666   8.645  10.755   0.861 -0.2420  0.1331  0.0478
 7406W        W23667  17.981   3.772  11.600  0.0747  0.0014  0.2452
 7407W        W23668  13.440   7.900   0.963  0.5872 -0.1145  0.1266
 7408W        W23669  13.625   6.486  13.048  0.0865 -0.0688  0.1707
 7409W        W23670  15.286   6.551  14.022 -0.2354  0.0451 -0.2160
 7410W        W23671  11.347  15.517  10.453  0.2510  0.1875 -0.1095
 7411W        W23672  15.034  12.892   1.832  0.1412  0.1178 -0.0177
 7412W        W23673   9.680  13.235  14.795 -0.2396  0.3146  0.0623
 7413W        W23674  15.561  17.246   0.124  0.1834 -0.2718 -0.0066
 7414W        W23675  13.058  17.294  14.467 -0.0203 -0.2323  0.1179
 7415W        W23676   2.580   4.062   1.260 -0.0337 -0.2320  0.0771
 7416W        W23677  17.117   6.128  11.065 -0.3192 -0.1632 -0.4972
 7417W        W23678  18.218  17.855   4.948 -0.2868 -0.0079  0.3912
 7418W        W23679   3.728  12.105   2.155 -0.0563  0.0469 -0.2020
 7419W        W23680   0.936   4.638   0.918 -0.0330 -0.0969  0.2710
 7420W        W23681  15.283  11.283  14.895  0.2262 -0.0287  0.3573
 7421W        W23682   3.222   8.905   3.529 -0.1119  0.0216 -0.0629
 7422W        W23683  18.125  14.605   2.882 -0.0832  0.0073 -0.1660
 7423W        W23684   0.687   3.801  11.485 -0.0715 -0.1018  0.0043
 7424W        W23685  16.698   8.574  13.752 -0.0084 -0.0041  0.0778
 7425W        W23686  13.736  12.763  12.102 -0.1747 -0.1550  0.0779
 7426W        W23687   5.602  18.306  14.422 -0.2092 -0.1795 -0.0845
 7427W        W23688   7.862   5.651  11.889  0.0770 -0.0868  0.1082
 7428W        W23689   4.533   0.133  12.005  0.3251  0.1762 -0.1310
 7429W        W23690  11.251   7.705  13.369  0.2302 -0.1778 -0.2696
 7430W        W23691   9.680  12.050  13.033  0.3483  0.0466  0.0124
 7431W        W23692   4.123  10.585   1.090 -0.0986  0.0638 -0.0428
 7432W        W23693  10.287  13.896   4.463  0.0764  0.0828 -0.0891
 7433W        W23694  11.479  14.055  12.985 -0.2116 -0.4695 -0.0133
 7434W        W23695  11.937  16.788  10.945 -0.0865 -0.1259 -0.2417
 7435W        W23696  14.503   1.537  14.851 -0.0204 -0.0002 -0.0521
 7436W        W23697   3.851  13.838  14.373 -0.1283  0.3702 -0.0163
 7437W        W23698  14.402   4.838  14.609 -0.0316  0.1158 -0.0129
 7438W        W23699   5.101  10.394  11.985  0.2148 -0.0865  0.0470
 7439W        W23700   0.077   6.983   1.976  0.1437 -0.1613  0.6299
 7440W        W23701   5.825  12.180  13.330 -0.1897  0.3096  0.2088
 7441W        W23702   9.962   3.847  12.503  0.1194  0.2100 -0.1794
 7442W        W23703  16.364  11.554   2.186 -0.2724  0.1815 -0.2278
 7443W        W23704   6.518  13.199   0.086  0.0663  0.0849  0.2276
 7444W        W23705   6.595  12.215   4.624  0.1487  0.0683  0.2407
 7445W        W23706   4.256  16.087   2.159 -0.0674 -0.0577  0.0830
 7446W        W23707   0.800   0.896   3.696 -0.1581  0.2269  0.1351
 7447W        W23708  16.027   8.847  10.884 -0.1187 -0.2648 -0.3433
 7448W        W23709   9.438  11.602   3.690 -0.4126 -0.0696 -0.3025
 7449W        W23710  14.447   2.744   5.341  0.3932 -0.0474 -0.0137
 7450W        W23711   6.286  12.933  14.748 -0.0655  0.0053 -0.1868
 7451W        W23712   7.611  18.070  15.223 -0.0039 -0.4389  0.2253
 7452W        W23713  18.508   4.702   4.130  0.0566 -0.2032  0.2565
 7453W        W23714   3.451  15.592   4.118 -0.1341  0.0086 -0.0825
 7454W        W23715   6.925   5.234   0.722 -0.0779 -0.3758 -0.1168
 7455W        W23716  18.002  11.585   0.437 -0.3538  0.1927 -0.2327
 7456W        W23717   3.250  14.955  12.098 -0.1766 -0.2816  0.0869
 7457W        W23718   8.391  13.519   1.996 -0.0239 -0.0431  0.1051
 7458W        W23719   8.718   8.488   3.261  0.0187  0.0188  0.0929
 7459W        W23720  12.989   8.911   1.542 -0.2480 -0.2303 -0.1059
 7460W        W23721  13.063   9.765   2.682  0.2998  0.3648  0.1333
 7461W        W23722  10.533  12.453   4.693  0.1321 -0.1537 -0.3940
 7462W        W23723   1.382  12.958   0.782 -0.3006 -0.3584 -0.0339
 7463W        W23724  10.187   9.690   1.303  0.1573  0.4865 -0.1153
 7464W        W23725   0.296   7.644  11.366  0.0550  0.1678  0.0147
 7465W        W23726  15.166  18.427  14.974  0.0475  0.2623  0.2062
 7466W        W23727  11.712   3.475   3.923  0.2956 -0.0433  0.1830
 7467W        W23728  16.426   7.257   2.989  0.0624  0.0625  0.2278
 7468W        W23729   8.507  17.756  14.911 -0.0969 -0.1083  0.0904
 7469W        W23730   0.036   2.153  12.654 -0.2760 -0.3520  0.2785
 7470W        W23731  12.061  16.336  13.074  0.0029  0.0028 -0.3608
 7471W        W23732   1.037   1.549   0.254 -0.0195 -0.1455 -0.1024
 7472W        W23733   9.743  17.162  14.648  0.0107 -0.0483 -0.2047
 7473W        W23734  12.228   0.385   0.429  0.1835 -0.1882 -0.0865
 7474W        W23735  13.353   4.994   0.101 -0.0701 -0.1591 -0.2128
 7475W        W23736   8.545   8.562   2.779 -0.2665  0.0008  0.1261
 7476W        W23737   2.000  12.515   2.481  0.0216 -0.4797  0.1105
 7477W        W23738  16.004  14.955   3.085  0.0916  0.2843  0.1145
 7478W        W23739   9.072  15.934   4.706  0.5564  0.0228  0.2381
 7479W        W23740  14.242  12.181  11.698 -0.2351 -0.1029  0.1173
 7480W        W23741  17.575   0.164  14.321  0.2641 -0.1012  0.0379
 7481W        W23742   4.232   5.700  13.350 -0.0992 -0.0167  0.5944
 7482W        W23743  14.525  15.484   2.079  0.0138 -0.1009 -0.3405
 7483W        W23744   5.151  16.140   0.634 -0.1711  0.0521 -0.4185
 7484W        W23745   7.686  14.536  12.616 -0.2531  0.0122 -0.0754
 7485W        W23746  16.705   5.981  12.732  0.1990  0.0596 -0.3579
 7486W        W23747  18.119  12.769  14.958  0.2368  0.2400 -0.0931
 7487W        W23748   5.568   9.010   2.624  0.0983  0.1428  0.1366
 7488W        W23749  10.356  17.014   4.379 -0.2887  0.3128 -0.0435
 7489W        W23750   7.854  11.036   3.283 -0.1960 -0.2692 -0.1331
 7490W        W23751   6.026   2.464   0.804 -0.1582  0.3370  0.0676
 7491W        W23752  12.184   7.276   0.885 -0.0786 -0.1081 -0.1348
 7492W        W23753  15.999  13.558  10.968 -0.1088 -0.2410 -0.0963
 7493W        W23754   1.395  12.819   1.853 -0.1057 -0.1296  0.3778
 7494W        W23755   5.411   1.004  11.634 -0.0854  0.3360  0.2152
 7495W        W23756   0.825  11.295   0.359  0.1988  0.1507  0.2113
 7496W        W23757   1.607  15.836  14.547  0.0578 -0.1047  0.2420
 7497W        W23758   0.016  11.234   4.589 -0.0717 -0.0612 -0.4294
 7498W        W23759   9.898   0.200  12.447 -0.1019 -0.2561 -0.5988
 7499W        W23760  10.221   2.922  15.484  0.0700 -0.0400 -0.2246
 7500W        W23761  16.126  10.826  13.562  0.1552  0.1893  0.2304
 7501W        W23762  16.289  17.137  14.154  0.3107 -0.3415 -0.1573
 7502W        W23763  12.936  10.250  12.396 -0.1481  0.2272 -0.1045
 7503W        W23764  15.038  15.474   2.771  0.1698 -0.1090  0.3494
 7504W        W23765   8.553   2.841  12.970 -0.0940  0.0567  0.0352
 7505W        W23766   3.197  11.503   2.801  0.0387 -0.3306  0.1308
 7506W        W23767   3.070   0.257   2.334  0.0732  0.2539 -0.2237
 7507W        W23768   7.357  18.726  12.980  0.1864 -0.0234 -0.0431
 7508W        W23769   0.152   0.549  10.556 -0.5054 -0.1473  0.2353
 7509W        W23770  10.852   3.720  14.494  0.2224  0.2388  0.0353
 7510W        W23771  15.306   2.066  14.589  0.2672  0.0290 -0.3314
 7511W        W23772   5.634   7.101  12.868 -0.3649 -0.1417  0.0260
 7512W        W23773  12.983  15.532   2.515 -0.2323  0.0861  0.3956
 7513W        W23774  15.068   2.699   0.347 -0.2662 -0.0983  0.3951
 7514W        W23775   6.955  13.740  10.093 -0.0415 -0.2120  0.0979
 7515W        W23776  12.620  15.732   2.007 -0.0306 -0.1204 -0.2121
 7516W        W23777   7.527  16.072  11.823 -0.1363 -0.0807  0.3521
 7517W        W23778  15.875   9.707   2.428 -0.0011  0.0498  0.1490
 7518W        W23779  18.134  10.743  14.885 -0.0072 -0.2035 -0.0909
 7519W        W23780   7.271   7.889  13.841  0.0656 -0.1378 -0.1688
 7520W        W23781  11.102   6.484   5.032  0.2426  0.1092  0.2317
 7521W        W23782  12.003  13.188   2.755 -0.1086  0.1377 -0.1086
 7522W        W23783   7.824  10.918   3.992 -0.0484 -0.2300 -0.2114
 7523W        W23784  14.780   1.187   2.896 -0.0020  0.2230  0.0393
 7524W        W23785   1.863   3.894   2.827  0.1237  0.0459 -0.0446
 7525W        W23786   4.694  14.534   4.166  0.0201  0.1314  0.2207
 7526W        W23787  18.268  15.054   2.080 -0.0897 -0.0885  0.0848
 7527W        W23788   2.576  18.218  14.716 -0.1364  0.0902 -0.1257
 7528W        W23789  10.168  14.317  12.089  0.0137 -0.1319  0.2428
 7529W        W23790   9.008   3.924   5.019  0.0835 -0.0713 -0.0011
 7530W        W23791   9.230  18.494   5.615 -0.2247  0.0865  0.0278
 7531W        W23792  16.225  13.108   5.041  0.2217 -0.0927  0.2962
 7532W        W23793  16.067   1.833  10.460 -0.1733  0.2528 -0.0521
 7533W        W23794  15.984   6.228   0.805  0.2703 -0.5623  0.2220
 7534W        W23795  13.398   4.642   0.918 -0.2738 -0.2708 -0.2901
 7535W        W23796  16.026  14.017   5.263  0.0366  0.2021  0.2405
 7536W        W23797  12.653  12.899  13.378  0.0471 -0.1699 -0.1512
 7537W        W23798   5.901  15.902   4.093 -0.1428 -0.4060  0.0891
 7538W        W23799  11.462   6.446   4.160  0.0748  0.2374 -0.4338
 7539W        W23800   2.419   8.472   0.084  0.3505  0.2290 -0.0063
 7540W        W23801   9.347   8.698  10.379 -0.1706 -0.3834 -0.1708
 7541W        W23802  14.170  13.904   4.435 -0.0483 -0.0051 -0.2174
 7542W        W23803  17.659   1.458  15.404 -0.2945  0.3430 -0.0929
 7543W        W23804   9.968  16.757  14.747 -0.0124  0.0064  0.0024
 7544W        W23805   9.900  16.622  10.863  0.1628  0.1564 -0.2549
 7545W        W23806   3.062   4.444   4.352 -0.1817 -0.0046 -0.0313
 7546W        W23807  10.744   4.369   5.094 -0.3655  0.0463  0.0391
 7547W        W23808  16.123   4.804   0.498 -0.0602 -0.0332  0.2245
 7548W        W23809  17.319  16.025   4.956 -0.2106 -0.3659 -0.0821
 7549W        W23810  15.066  16.837   0.465 -0.1695  0.0234 -0.1296
 7550W        W23811   2.122   2.636   0.673 -0.0513  0.5253 -0.2533
 7551W        W23812  12.448   3.560  12.367 -0.1196  0.2570 -0.2471
 7552W        W23813   9.833   3.294   3.277  0.0496  0.2820 -0.3888
 7553W        W23814  15.589   7.349   3.509  0.0923 -0.2332 -0.0512
 7554W        W23815  15.002  12.249  13.261  0.0519 -0.0553 -0.2580
 7555W        W23816  17.006  10.517   0.493  0.0123  0.0205 -0.2762
 7556W        W23817  10.448  16.302  11.538  0.1722 -0.0769 -0.0903
 7557W        W23818   1.536   7.631   1.534  0.4484  0.4565  0.2154
 7558W        W23819   9.308   8.301   1.187 -0.0330  0.0817 -0.1699
 7559W        W23820   8.458   5.113   1.203 -0.3212 -0.0617 -0.0153
 7560W        W23821  17.684   0.319  12.188  0.0023 -0.0299  0.1205
 7561W        W23822  11.407   2.411   5.217  0.2825  0.1865  0.1692
 7562W        W23823   9.141   7.692   1.474 -0.1044 -0.2356  0.0150
 7563W        W23824  16.272  14.335  12.754  0.3069  0.2788 -0.2095
 7564W        W23825   6.212  17.355   1.247 -0.0287  0.0779 -0.2893
 7565W        W23826   5.736   2.129   1.188  0.0534  0.0912  0.2524
 7566W        W23827   3.775  16.092   5.312 -0.0627  0.0778  0.0264
 7567W        W23828  12.427  16.162  14.903 -0.1191 -0.1948 -0.0919
 7568W        W23829   5.460   0.904   2.712  0.0646 -0.0657 -0.1793
 7569W        W23830  16.883   0.600  15.295  0.3184  0.1794  0.1220
 7570W        W23831  15.893   5.858  15.526 -0.1446 -0.0248 -0.1740
 7571W        W23832  16.419  14.187  13.660 -0.1325 -0.3391  0.1930
 7572W        W23833   1.949  12.713   3.310 -0.2651 -0.3505 -0.0883
 7573W        W23834   1.858   8.009  11.968  0.4627  0.2139 -0.1423
 7574W        W23835  18.137   9.360   2.216  0.0083  0.1948  0.1900
 7575W        W23836  12.292   0.959   3.042 -0.0198 -0.0729  0.1457
 7576W        W23837  15.537   9.478   0.736  0.1116 -0.1206  0.1960
 7577W        W23838   5.182   5.685   5.437  0.0692  0.2215 -0.3281
 7578W        W23839  18.249   0.702   1.939 -0.0863  0.2666 -0.2038
 7579W        W23840  14.513   5.585  15.117 -0.0416 -0.0735  0.5664
 7580W        W23841  14.410  16.977  13.984  0.1902  0.1572  0.1813
 7581W        W23842   4.030   1.612  14.989  0.0174  0.1338 -0.0818
 7582W        W23843   3.269   4.147   2.131 -0.0685 -0.3134  0.2074
 7583W        W23844   8.600   4.765  13.259  0.1194 -0.0338 -0.1192
 7584W        W23845  15.900   0.374  15.212 -0.0512  0.2226  0.0792
 7585W        W23846  12.697  13.648  13.517  0.2373 -0.2313  0.0287
 7586W        W23847   8.603  18.709  11.869 -0.0261  0.1163 -0.1018
 7587W        W23848  17.437   9.021   4.010  0.0164  0.4392  0.0950
 7588W        W23849   6.239  11.739  11.051  0.0585 -0.0445  0.3236
 7589W        W23850   2.541   6.242  13.654 -0.1166 -0.2995 -0.1974
 7590W        W23851   8.047  17.698  13.477 -0.2574  0.0425  0.1815
 7591W        W23852   7.671  17.767   4.786 -0.1641  0.1720  0.2668
 7592W        W23853   6.211   0.889   5.201 -0.3824 -0.2110 -0.1027
 7593W        W23854   3.521  15.761   5.561  0.0909 -0.1498  0.0262
 7594W        W23855   7.540   7.796   0.666  0.1637 -0.1406  0.0366
 7595W        W23856  14.008  10.306   0.215  0.0750 -0.0248  0.1748
 7596W        W23857  13.072   8.786   0.214 -0.0906 -0.1295 -0.0072
 7597W        W23858   0.750   7.455  14.381 -0.1917  0.0983 -0.0708
 7598W        W23859   4.174  13.100  11.015  0.0320 -0.1205 -0.0757
 7599W        W23860   6.148  12.413   3.824 -0.0319  0.1579 -0.1588
 7600W        W23861  18.324  13.873  14.067  0.0208 -0.0208 -0.2732
 7601W        W23862   7.164   4.841   2.617 -0.0938 -0.0183 -0.1369
 7602W        W23863  14.169   9.772  15.556  0.1413  0.0411  0.1744
 7603W        W23864   4.080   2.887   0.464  0.0695  0.1864  0.3513
 7604W        W23865  12.787  10.012  15.542 -0.2507  0.4214 -0.0466
 7605W        W23866  14.120   2.778   0.742 -0.0983 -0.0916 -0.0566
 7606W        W23867  13.626   3.971  15.624  0.1582 -0.3133  0.2458
 7607W        W23868  17.792  16.990   2.288 -0.0134 -0.0307 -0.1612
 7608W        W23869   2.524  11.866  12.581  0.0084 -0.2232  0.0109
 7609W        W23870   3.566  15.772   1.116 -0.0454  0.2344  0.2521
 7610W        W23871   8.837   1.020   4.266  0.0911 -0.0342  0.0009
 7611W        W23872   3.682  14.475   0.013 -0.1311 -0.2419 -0.4607
 7612W        W23873  12.194   8.754  11.647  0.4667  0.0750  0.1679
 7613W        W23874   5.070   2.352   0.348 -0.0168 -0.0244  0.0856
 7614W        W23875   3.452  16.471   3.654  0.4269 -0.0120 -0.3211
 7615W        W23876   8.148  12.152  15.130 -0.1825 -0.0105 -0.0499
 7616W        W23877   3.647  12.159   1.006  0.1588  0.4807  0.2006
 7617W        W23878  14.894  13.761   2.304  0.1225  0.1055 -0.0373
 7618W        W23879  11.313   5.832   1.659  0.0001  0.3010  0.0759
 7619W        W23880   4.931  13.648   0.225  0.2700 -0.1139 -0.0804
 7620W        W23881  16.597   4.459  12.399  0.0017 -0.2567  0.2238
 7621W        W23882   7.656   9.995  11.142 -0.0334 -0.0840 -0.0152
 7622W        W23883  12.242  12.295  12.829  0.3589  0.4139 -0.1314
 7623W        W23884   6.878  10.695  12.421 -0.0795 -0.2340 -0.3923
 7624W        W23885   9.514   7.049  11.300  0.1345  0.1191 -0.0457
 7625W        W23886   5.167   2.044  15.623 -0.2122 -0.0045 -0.0404
 7626W        W23887   1.450  17.865  13.962  0.0094  0.2603 -0.2724
 7627W        W23888   9.005  15.694  12.386 -0.0982 -0.3602 -0.0532
 7628W        W23889   2.473   2.382   5.574 -0.3419 -0.1109  0.0419
 7629W        W23890  11.179  11.499   0.517  0.2330  0.2887 -0.0014
 7630W        W23891  11.286   2.018   1.719 -0.4477  0.0522  0.3188
 7631W        W23892   9.070   6.364   2.437  0.0325 -0.2268 -0.0731
 7632W        W23893  18.284  12.288   2.825 -0.1689  0.0091  0.2391
 7633W        W23894   2.237  16.132   5.383 -0.0896  0.0751  0.1910
 7634W        W23895  12.320   4.645  12.973 -0.2571  0.2507  0.0482
 7635W        W23896  11.194  12.898   4.444 -0.0501 -0.3539 -0.4104
 7636W        W23897  11.952  13.859  12.905 -0.0777  0.2360 -0.0342
 7637W        W23898  18.607  10.005   1.972 -0.1142 -0.0075 -0.2620
 7638W        W23899  16.997   2.804   5.021  0.2073  0.0345  0.0183
 7639W        W23900  14.901  18.016   9.719 -0.1036  0.0695 -0.3172
 7640W        W23901   6.579   6.231  13.321 -0.2754  0.0047 -0.0901
 7641W        W23902   3.863  15.322   1.971 -0.0815  0.1647 -0.1882
 7642W        W23903  13.758   6.484   4.975  0.3098 -0.2292 -0.1595
 7643W        W23904   3.820   9.838   3.363  0.0299  0.2556  0.0384
 7644W        W23905  16.802  15.145   0.036  0.2269 -0.1468  0.0274
 7645W        W23906   5.558   9.887   2.328 -0.5444 -0.3265 -0.0122
 7646W        W23907  14.699   5.121   0.705 -0.1063  0.4915 -0.0654
 7647W        W23908  10.482   3.167   5.669 -0.0567 -0.2604  0.1322
 7648W        W23909   2.341  15.872   3.763  0.0706 -0.2604 -0.3320
 7649W        W23910  15.434   8.772  13.367  0.0429 -0.4129  0.0324
 7650W        W23911  10.860  12.255   3.302 -0.0013  0.0312  0.2989
 7651W        W23912   9.808   5.416  13.338 -0.1945 -0.2387 -0.0136
 7652W        W23913   7.920  13.736  11.578  0.0940  0.0010 -0.0539
 7653W        W23914   1.595  11.669   2.193 -0.0599  0.3127  0.3847
 7654W        W23915  17.291  12.325   1.056 -0.2575 -0.1322  0.1181
 7655W        W23916   3.970   5.019   1.319 -0.1210  0.0558 -0.1361
 7656W        W23917   8.878   8.693  11.989 -0.2350 -0.1463  0.0843
 7657W        W23918   6.787   5.032   4.578 -0.0506  0.0810 -0.5411
 7658W        W23919   3.656   1.092  12.786  0.1355  0.3161 -0.0541
 7659W        W23920   5.334  13.428  10.246 -0.2107  0.0659  0.2429
 7660W        W23921   2.622  18.107   3.397 -0.1281 -0.1043  0.2647
 7661W        W23922  17.001   0.955   3.215  0.0081 -0.0825  0.0690
 7662W        W23923  13.740   4.765   4.050 -0.0475 -0.3238 -0.1433
 7663W        W23924   4.309   5.787  15.216 -0.0228  0.0481  0.2766
 7664W        W23925   8.253   0.946  12.047 -0.1713  0.1940  0.1326
 7665W        W23926  10.174  16.316   0.313 -0.0686 -0.1416  0.0441
 7666W        W23927   5.271   7.509   4.790  0.2300 -0.0744  0.0266
 7667W        W23928  17.420   8.719  15.253 -0.0373  0.0397 -0.0041
 7668W        W23929  12.663  13.707   3.125  0.0654 -0.0857 -0.1368
 7669W        W23930  12.250   6.693   3.151  0.0459 -0.0630 -0.2310
 7670W        W23931   3.034  11.507   1.569 -0.2426 -0.3511  0.4669
 7671W        W23932  11.911  17.038  13.657  0.0939 -0.0063 -0.0981
 7672W        W23933  17.970   3.070  12.277  0.0071  0.3792  0.0489
 7673W        W23934   5.649   8.932  13.223  0.0960  0.0344  0.1083
 7674W        W23935   3.786   7.884   4.419  0.0866 -0.1172  0.0243
 7675W        W23936  10.107  10.370  12.206  0.1379 -0.1311  0.1967
 7676W        W23937  14.721  14.988  11.454  0.1259  0.2326  0.1845
 7677W        W23938   3.069  10.245  13.903 -0.1178  0.0645 -0.1186
 7678W        W23939  13.357  17.077  14.805  0.0077  0.1235  0.0024
 7679W        W23940   4.826   6.970  11.403 -0.1152 -0.1142 -0.1211
 7680W        W23941   0.284  17.728  15.475  0.0062 -0.1134  0.0552
 7681W        W23942  15.038   9.408   4.275 -0.1968 -0.0311 -0.0956
 7682W        W23943   5.818  15.195   4.863 -0.0454 -0.4908  0.2047
 7683W        W23944  11.283  17.307   4.858 -0.2369 -0.1228 -0.2578
 7684W        W23945  12.306   6.768   0.136  0.0713  0.3935 -0.0743
 7685W        W23946   9.982  14.148   3.502 -0.1192 -0.3258  0.3606
 7686W        W23947  16.568  18.216   2.895 -0.2945  0.0104 -0.0318
 7687W        W23948   0.341   3.170   1.683 -0.2871 -0.3197 -0.3403
 7688W        W23949  11.754   6.619   6.068 -0.1133  0.0511  0.1686
 7689W        W23950  10.043   2.793  11.609 -0.0698 -0.2634  0.1777
 7690W        W23951  10.299   1.489  11.839  0.0764  0.2581  0.0375
 7691W        W23952   8.832   6.824   5.343  0.1314  0.0785  0.0108
 7692W        W23953  14.469  15.468   2.663 -0.0439 -0.0922 -0.1903
 7693W        W23954  11.179   4.621  13.649  0.0754 -0.0333  0.0435
 7694W        W23955  17.993   2.336   5.165  0.0079  0.0813  0.0930
 7695W        W23956   5.672   6.920   4.943 -0.1421 -0.0508 -0.0533
 7696W        W23957  15.600  12.405  12.525  0.1721 -0.1663  0.0458
 7697W        W23958  16.764   5.217   0.382  0.0394  0.1471 -0.1548
 7698W        W23959   0.298  18.463  10.764  0.2911 -0.2184  0.3548
 7699W        W23960   5.814  14.273   4.450  0.2332  0.0836 -0.3278
 7700W        W23961  12.116  13.268   2.092  0.2835 -0.1301 -0.0927
 7701W        W23962  12.758  12.174   0.615 -0.2505 -0.0548 -0.2680
 7702W        W23963   2.377  13.444   3.682  0.1830 -0.1948  0.4519
 7703W        W23964  14.131  15.946  13.235 -0.0393  0.0137 -0.1000
 7704W        W23965  13.998   3.431  14.489  0.3004  0.0985  0.0364
 7705W        W23966   1.117   4.300   0.631 -0.2226  0.3251  0.0332
 7706W        W23967  14.718  15.582   0.751  0.1542  0.0013  0.1573
 7707W        W23968  10.611   9.392   2.413  0.0602  0.0408  0.1554
 7708W        W23969   1.900  17.466   0.646 -0.0315  0.0999  0.1193
 7709W        W23970   8.557   0.128   2.527 -0.1454  0.0451  0.0322
 7710W        W23971   4.604   3.637   0.848 -0.1195  0.1809  0.1972
 7711W        W23972  17.888   9.144  12.348  0.2720 -0.0198 -0.1845
 7712W        W23973  12.546  17.615   2.561 -0.3969  0.0589 -0.3637
 7713W        W23974   5.625   2.212  12.543 -0.0165 -0.1405  0.0167
 7714W        W23975   2.690   3.283  11.718 -0.0238 -0.2062  0.0588
 7715W        W23976   3.924  14.611  11.320 -0.2446 -0.0728  0.0099
 7716W        W23977  15.752   4.401  12.751 -0.3247 -0.1591  0.0681
 7717W        W23978   9.666  16.131  12.572 -0.0410 -0.4060  0.0512
 7718W        W23979  14.299  14.597   4.487  0.2134 -0.0329 -0.3009
 7719W        W23980   6.561   9.450   5.568  0.0341 -0.4048 -0.4273
 7720W        W23981  15.322  14.125  11.742 -0.2214  0.3876 -0.0168
 7721W        W23982   3.991  15.152   4.517  0.0456  0.1542  0.3215
 7722W        W23983   1.977  10.361  14.391  0.0316  0.1709  0.0026
 7723W        W23984  14.295  10.033   1.740  0.0448  0.1656  0.0125
 7724W        W23985  11.891   6.199   2.912  0.4687  0.1360  0.2684
 7725W        W23986  18.138   8.647  12.469  0.2580 -0.0742  0.1237
 7726W        W23987   6.630   6.667   0.136  0.0117 -0.1266  0.1901
 7727W        W23988  14.920   3.157  12.218 -0.0787  0.1165  0.1073
 7728W        W23989   2.778   5.056   0.694 -0.0612  0.0222  0.3937
 7729W        W23990   0.971  14.842  10.789  0.2102 -0.1901 -0.2306
 7730W        W23991   0.273  10.653  10.905  0.1312  0.1190  0.1171
 7731W        W23992   9.709   0.057   0.944  0.2714  0.2560  0.2539
 7732W        W23993   6.866  18.313  11.201  0.2627  0.2827  0.0954
 7733W        W23994  13.346   5.734   1.572 -0.2074  0.3295 -0.3659
 7734W        W23995  11.250  16.257  11.600  0.0318  0.0826  0.1482
 7735W        W23996  16.855  17.414  10.638  0.1786  0.6091 -0.2342
 7736W        W23997  17.905   9.099   2.640  0.0733 -0.0986 -0.0809
 7737W        W23998  11.321  13.477  15.154 -0.2638 -0.0649 -0.0265
 7738W        W23999  17.454   4.451   0.140  0.3255 -0.3438  0.0523
 7739W        W24000   6.562  17.734   3.211 -0.2263  0.1423 -0.0619
 7740W        W24001  18.782   5.115  14.216 -0.0550 -0.2327  0.0050
 7741W        W24002   3.334   2.869  14.916  0.3443 -0.0580  0.1169
 7742W        W24003   1.929   8.715   2.120  0.1151  0.2026 -0.0269
 7743W        W24004  17.598   7.147   3.879  0.0684  0.1738 -0.1894
 7744W        W24005   3.863  12.459   0.034  0.0622 -0.0864  0.2268
 7745W        W24006   1.893   4.212   1.888  0.1285  0.1373  0.0896
 7746W        W24007  13.526   3.516   4.439  0.0951 -0.6520 -0.1361
 7747W        W24008  17.569  17.855  10.987 -0.4127 -0.2131  0.1751
 7748W        W24009  12.538  17.610   4.762 -0.1928 -0.0785  0.1925
 7749W        W24010  11.204  15.992   4.532 -0.0190 -0.1159 -0.2392
 7750W        W24011   2.870  14.515   4.183 -0.0916 -0.0709 -0.0035
 7751W        W24012  15.691  18.679   0.469 -0.1352 -0.1169  0.1020
 7752W        W24013  12.684   2.031  12.625  0.0915  0.1193  0.0656
 7753W        W24014  14.254  10.600  11.816 -0.2631  0.0152 -0.0730
 7754W        W24015  17.687  10.021  12.310  0.2022 -0.2894 -0.1319
 7755W        W24016   2.693  18.392  12.317 -0.0774  0.0477 -0.1572
 7756W        W24017   3.459   4.537  11.487  0.0190  0.2741 -0.0761
 7757W        W24018  12.450   7.387  12.945 -0.1226 -0.3232  0.3814
 7758W        W24019  14.226  12.826   4.712 -0.0167 -0.2413  0.1861
 7759W        W24020  14.762   0.012  15.207  0.4413 -0.0471 -0.0067
 7760W        W24021   0.965  17.524  10.886  0.2219 -0.2240  0.3617
 7761W        W24022   1.304  11.202   3.375  0.1545 -0.0430 -0.3476
 7762W        W24023  14.983  13.312  11.268 -0.2598  0.0230  0.3944
 7763W        W24024   3.269   2.382   0.159  0.3028 -0.2861 -0.1528
 7764W        W24025   2.023   8.534  14.827 -0.0117 -0.1171  0.0391
 7765W        W24026  12.718   7.503   2.496  0.0586 -0.0097 -0.0172
 7766W        W24027   6.177   7.613   1.306  0.2627 -0.0451  0.3218
 7767W        W24028  17.969  12.606   1.463 -0.0293  0.3064 -0.1447
 7768W        W24029   3.484  10.444   5.223 -0.1792 -0.4126 -0.1016
 7769W        W24030   5.890   5.619  15.017 -0.0716  0.0274  0.0449
 7770W        W24031  17.836   9.262   1.312  0.3122 -0.1465  0.3878
 7771W        W24032  17.286  15.754  12.310 -0.3698  0.2695  0.1470
 7772W        W24033   9.329  17.420   2.414  0.1492  0.3194 -0.1923
 7773W        W24034  13.707   4.671   5.032  0.1265  0.1794  0.5923
 7774W        W24035   5.933  16.677  11.915  0.0559  0.1285 -0.0669
 7775W        W24036   3.451  12.924   1.922  0.0992  0.1053 -0.2254
 7776W        W24037  13.898  14.522  12.220 -0.2260  0.3398  0.1519
 7777W        W24038   4.287   7.923   1.044 -0.0352 -0.2913  0.1675
 7778W        W24039   1.998  17.850  11.743  0.3319  0.1260  0.1620
 7779W        W24040   5.019  13.069   1.470  0.3702  0.1971 -0.0962
 7780W        W24041   9.899   1.699  12.732 -0.0819 -0.2981  0.0763
 7781W        W24042   1.865   4.455  10.505  0.1191  0.2600 -0.1051
 7782W        W24043   3.123   1.439   2.809 -0.0410 -0.4181  0.3262
 7783W        W24044  17.030   2.865   2.940 -0.0557 -0.1717 -0.0915
 7784W        W24045   3.206   8.946  11.801  0.0011 -0.0123 -0.1976
 7785W        W24046   8.808   8.783   1.989 -0.0244  0.1457  0.3184
 7786W        W24047   6.420  11.663  11.536  0.0851  0.2730 -0.1482
 7787W        W24048  10.918   9.332   0.230 -0.3698  0.1184  0.0037
 7788W        W24049  12.037   2.802   0.531 -0.1714  0.0971 -0.2879
 7789W        W24050   3.182  13.962  11.347  0.1950  0.2223 -0.1834
 7790W        W24051   1.202  10.115   5.044 -0.0601  0.1223  0.0367
 7791W        W24052   7.376   5.649   1.964 -0.2957  0.2441  0.3294
 7792W        W24053  12.046  14.823   1.308  0.2062  0.0228  0.2622
 7793W        W24054  11.331   4.577  14.110  0.3318  0.2479 -0.0639
 7794W        W24055  18.512  12.389  11.942  0.3053 -0.1797  0.0217
 7795W        W24056  18.506  12.109  11.502 -0.2021  0.2466  0.1895
 7796W        W24057   5.118   1.758   2.682 -0.1406 -0.1614 -0.0290
 7797W        W24058   2.904   5.662  15.086  0.0058 -0.0893  0.2524
 7798W        W24059  10.230  17.114   3.193  0.2322  0.0009 -0.1311
 7799W        W24060  14.939   9.554   5.134 -0.0552 -0.3679  0.2254
 7800W        W24061   4.283  11.128  15.640 -0.3697  0.1669  0.0286
 7801W        W24062  13.371   1.096   3.621 -0.0157 -0.2600 -0.1655
 7802W        W24063  17.396  11.718   5.135 -0.1124 -0.2581 -0.1745
 7803W        W24064  17.548  12.101   1.465 -0.1171  0.1301  0.1739
 7804W        W24065  15.938   5.784   4.504 -0.2558 -0.1522  0.1754
 7805W        W24066   9.579   6.059  14.758 -0.3309  0.2774  0.0249
 7806W        W24067  12.498  18.274   0.290 -0.1841  0.0757  0.1444
 7807W        W24068  13.616   6.926  14.344  0.2330 -0.2613 -0.1124
 7808W        W24069   0.167   9.092   4.568 -0.1549  0.2167  0.1028
 7809W        W24070  11.148   2.541  10.619  0.1670  0.0222 -0.0875
 7810W        W24071   1.934   5.172   2.362  0.0290 -0.1700  0.0297
 7811W        W24072   9.750  10.607  11.262  0.2143 -0.2341  0.2153
 7812W        W24073   7.422   7.254   1.305  0.4470  0.2639  0.0557
 7813W        W24074  15.419  12.691   1.516 -0.3952 -0.2678  0.1123
 7814W        W24075   3.058  16.652  12.755 -0.0119 -0.1405 -0.1176
 7815W        W24076   9.324  16.472  14.093  0.1618 -0.0163 -0.0767
 7816W        W24077   7.378   2.365  15.258 -0.2177  0.1960 -0.0120
 7817W        W24078   7.403  11.906   3.302 -0.2948  0.1397 -0.4185
 7818W        W24079  10.877   7.516  13.650 -0.0623  0.0452  0.0694
 7819W        W24080  18.762  18.203   1.366  0.0366  0.1704 -0.0555
 7820W        W24081   9.455  13.466   1.336  0.2263 -0.0092 -0.0207
 7821W        W24082   7.541   2.075  11.783 -0.0154  0.0274 -0.0148
 7822W        W24083  16.735   6.701   3.329  0.0118  0.0347 -0.2396
 7823W        W24084   9.385  10.696   0.304  0.1990  0.1491  0.2211
 7824W        W24085  14.541  14.344  12.154  0.1812 -0.1710  0.2917
 7825W        W24086  14.038  12.718  11.661  0.0914  0.1095  0.1572
 7826W        W24087   6.497  12.707   5.624  0.0199  0.0433  0.2978
 7827W        W24088   7.314  14.497   2.179  0.0492 -0.1263  0.1058
 7828W        W24089  10.942  12.797   2.577  0.1255  0.2484  0.2579
 7829W        W24090   9.601   9.477   2.048 -0.1942  0.0985  0.1017
 7830W        W24091   0.064   1.428   9.588 -0.0541  0.0318  0.0196
 7831W        W24092   2.923   3.570   0.382  0.1451  0.0408 -0.3957
 7832W        W24093   3.956   3.181  13.130  0.1064  0.1533  0.0890
 7833W        W24094   5.085   5.435   2.415 -0.0380  0.0048  0.1294
 7834W        W24095  15.237  13.924   1.241  0.0324 -0.1251 -0.0186
 7835W        W24096  10.187  17.806   2.900  0.0204 -0.0609  0.2309
 7836W        W24097   6.722  11.717   4.706 -0.2029  0.1359  0.1771
 7837W        W24098  11.934   9.311  11.561  0.1292  0.0372  0.0674
 7838W        W24099  16.982   6.709  13.801 -0.0428  0.1008 -0.0413
 7839W        W24100   4.050   1.457  10.591 -0.1329  0.0565 -0.2808
 7840W        W24101  18.819  18.705   4.045 -0.0549 -0.1481 -0.0481
 7841W        W24102   4.669   1.139  13.700  0.1270 -0.1487 -0.0329
 7842W        W24103   2.206   4.110   4.187  0.3842 -0.0435  0.0966
 7843W        W24104  15.996  10.071  14.168 -0.1905  0.0385  0.1108
 7844W        W24105   4.847   6.468   2.265  0.2223  0.0538 -0.0604
 7845W        W24106  10.671   4.008   3.754  0.5032  0.3711 -0.3078
 7846W        W24107   3.963   4.280  12.863 -0.0814  0.0462  0.0133
 7847W        W24108  18.273  15.861  11.992  0.1477  0.0885  0.0246
 7848W        W24109   6.632   3.210  15.030  0.2671  0.0120  0.1276
 7849W        W24110  16.118  17.017  14.677  0.2338  0.0604  0.2631
 7850W        W24111  18.502  12.197  10.978 -0.0947 -0.1882  0.0603
 7851W        W24112   6.779   0.829  12.817  0.1518 -0.0182 -0.0926
 7852W        W24113  18.303   2.035   1.938  0.3494  0.1401  0.2730
 7853W        W24114   6.167   9.390  11.115 -0.1065  0.0597  0.1086
 7854W        W24115   1.968   6.455  13.345  0.0698 -0.0439  0.0361
 7855W        W24116  10.203  18.641  13.381 -0.3608 -0.0349 -0.3355
 7856W        W24117   5.519  18.688  11.420 -0.0692  0.0255 -0.1106
 7857W        W24118  15.175   3.339   1.988  0.2414 -0.0137  0.0505
 7858W        W24119  16.495   6.047  13.559  0.1825 -0.3849 -0.1402
 7859W        W24120   6.035  14.801  13.187  0.3267  0.1010 -0.2714
 7860W        W24121   2.528  15.313  13.434  0.2179  0.1065 -0.0318
 7861W        W24122   4.570  10.748   3.637 -0.1250 -0.2026  0.4152
 7862W        W24123   7.056   3.448   4.998 -0.1262  0.0722  0.0441
 7863W        W24124   7.045   1.043   5.522 -0.0560  0.0304  0.0141
 7864W        W24125  15.660  17.075  14.907  0.1764  0.2889 -0.1731
 7865W        W24126  12.249   5.381  12.156  0.1481 -0.1203  0.0191
 7866W        W24127   7.741  18.648  12.596  0.0301  0.2906  0.1598
 7867W        W24128  10.208   0.191   2.642 -0.0511  0.0694 -0.0687
 7868W        W24129   5.704  10.972   4.244  0.0530 -0.2649 -0.1090
 7869W        W24130  12.009  17.353  14.384 -0.1019  0.2395 -0.1851
 7870W        W24131   1.289  18.285   1.704 -0.1128 -0.0982 -0.2143
 7871W        W24132   4.849  10.790  12.849  0.0790  0.0923 -0.0402
 7872W        W24133  17.945  15.955   5.785 -0.2602  0.0787  0.1061
 7873W        W24134   3.669   8.376   2.282 -0.1827  0.1434 -0.1201
 7874W        W24135   9.347  15.028  10.945 -0.0843 -0.0592  0.0507
 7875W        W24136  12.738  14.802   0.592  0.0833 -0.0465 -0.1081
 7876W        W24137  15.774   3.510  15.003  0.1182  0.2736 -0.0942
 7877W        W24138  10.495  13.788  14.644  0.0544 -0.1131  0.2381
 7878W        W24139   7.985   7.534   1.908  0.0014  0.0047 -0.1247
 7879W        W24140   5.266  11.709   0.250 -0.2909  0.0306  0.1627
 7880W        W24141   8.264   8.733  11.079 -0.1897  0.2714  0.0431
 7881W        W24142  14.697  16.913   2.751 -0.1662  0.1767  0.0524
 7882W        W24143  18.029   9.051   3.742 -0.3870 -0.0120 -0.0405
 7883W        W24144   9.238  11.128  12.915  0.1782 -0.0028 -0.0083
 7884W        W24145   9.698   5.292  12.376 -0.0522  0.1299 -0.1107
 7885W        W24146  11.827  13.393  11.515 -0.0905 -0.2780  0.0631
 7886W        W24147   1.207   0.824  13.326  0.0486 -0.5981 -0.1710
 7887W        W24148   7.276  12.766   1.738  0.1623 -0.2810 -0.2730
 7888W        W24149  18.495   2.043   3.943 -0.1573 -0.2377 -0.3035
 7889W        W24150   9.181   4.360  11.571 -0.1990 -0.0554  0.3841
 7890W        W24151  14.859   3.170   0.405  0.0006  0.2745  0.0032
 7891W        W24152   0.884  14.038   0.090 -0.1611  0.0891 -0.1282
 7892W        W24153   1.745  12.450   4.157 -0.2138 -0.0742  0.3264
 7893W        W24154  14.372   2.335  11.059 -0.2983  0.0501  0.0243
 7894W        W24155   4.890   1.475  11.247 -0.1568 -0.3438  0.2903
 7895W        W24156  12.546   7.349  11.934  0.0191  0.1118 -0.1239
 7896W        W24157   5.462   4.053  14.267 -0.0335  0.2765 -0.2881
 7897W        W24158  18.689   8.197  13.066  0.1111  0.3622 -0.0216
 7898W        W24159   5.828  14.313   3.823 -0.3562  0.0940 -0.2976
 7899W        W24160  15.510  10.251   2.461  0.0194  0.3501 -0.0843
 7900W        W24161   7.334   6.864  10.475 -0.0566 -0.0855  0.0311
 7901W        W24162   3.191   6.994   2.299 -0.4207 -0.0495 -0.0215
 7902W        W24163   2.784   8.297  11.129  0.2051  0.0403  0.1748
 7903W        W24164   0.692   2.471  11.481 -0.0022  0.1692  0.2406
 7904W        W24165   8.111   2.122  11.685 -0.2499  0.0094  0.0047
 7905W        W24166   4.266  12.326   0.838 -0.1256 -0.0419 -0.0112
 7906W        W24167  17.821  16.013  11.733 -0.0475 -0.1172  0.0536
 7907W        W24168   1.499   6.091  12.022 -0.0071  0.0968 -0.1924
 7908W        W24169  16.523  10.708  14.344 -0.0231 -0.3199  0.2778
 7909W        W24170   7.332  16.841  12.403  0.0759  0.0542  0.0638
 7910W        W24171  18.268   5.165  12.990 -0.2545 -0.0870 -0.2088
 7911W        W24172   6.751  15.092  14.150 -0.4040  0.2573 -0.2172
 7912W        W24173   8.375   3.252   5.134  0.2283  0.0619  0.0161
 7913W        W24174  15.857  13.672   3.547  0.0886  0.0485  0.1461
 7914W        W24175   2.509  17.791  12.308  0.0112 -0.2049 -0.3407
 7915W        W24176   0.961   4.708  13.596 -0.0693  0.1497  0.3648
 7916W        W24177   8.525  12.064  15.563  0.2711 -0.2712 -0.1340
 7917W        W24178   6.359  17.913  12.604  0.0690  0.0038 -0.0561
 7918W        W24179   1.716  10.409  13.914 -0.0438  0.5152 -0.0132
 7919W        W24180  11.884  12.016  14.904 -0.1112 -0.2881 -0.1574
 7920W        W24181   7.127   2.273   2.873  0.0796  0.2720 -0.1112
 7921W        W24182   3.904  11.971   3.623 -0.1176  0.0631 -0.3587
 7922W        W24183  10.785   7.928  11.988 -0.3071  0.0216 -0.2180
 7923W        W24184   4.653   6.992   0.203  0.1542  0.3598 -0.2923
 7924W        W24185  18.090   2.764   0.510 -0.0003 -0.1177 -0.0824
 7925W        W24186  18.063   1.281  12.000 -0.0185  0.1008 -0.1427
 7926W        W24187   1.376  15.796   2.885 -0.0072 -0.3049  0.4537
 7927W        W24188   9.347   1.590   0.329 -0.1023  0.0314  0.0930
 7928W        W24189  12.040   4.501  11.977  0.0045 -0.1351 -0.2488
 7929W        W24190   0.743  11.381  13.817 -0.1559 -0.2977 -0.1905
 7930W        W24191  13.577   3.804   2.645 -0.2710  0.0063  0.4434
 7931W        W24192  10.858   1.060  13.466 -0.2736 -0.1842 -0.1811
 7932W        W24193  16.472  12.148   5.027  0.1552  0.1748 -0.1936
 7933W        W24194  16.224  10.923   4.494  0.0072 -0.3399 -0.2900
 7934W        W24195   9.569  15.013   1.393  0.0811 -0.0840  0.0529
 7935W        W24196  16.454  14.795  12.848 -0.0719 -0.0025 -0.2389
 7936W        W24197  17.801  14.929  10.924 -0.1652  0.2065 -0.0588
 7937W        W24198   1.208  10.313   2.195 -0.1859 -0.3050  0.0140
 7938W        W24199  17.397   9.993  14.736 -0.0577  0.2423 -0.0534
 7939W        W24200  14.539   1.670  13.456  0.0101 -0.1813  0.0183
 7940W        W24201   6.205   2.493   1.259  0.1431  0.2365  0.0071
 7941W        W24202  18.738   9.082  13.754 -0.2561 -0.0839  0.1768
 7942W        W24203   4.776   3.044  15.241  0.0345  0.2047 -0.3651
 7943W        W24204  12.180   5.753   1.862 -0.0882  0.2187 -0.2582
 7944W        W24205   5.894  14.136   2.495  0.5092 -0.1005 -0.0737
 7945W        W24206  14.754   2.366   2.746 -0.1259 -0.1337  0.2289
 7946W        W24207  15.774   8.689   5.600  0.2058  0.0189 -0.2961
 7947W        W24208   8.508   2.084   2.040  0.1986 -0.1028 -0.1128
 7948W        W24209  16.599   9.109   4.899 -0.0405 -0.0606  0.0068
 7949W        W24210  17.767  16.562   0.347 -0.0671 -0.1785 -0.2047
 7950W        W24211  13.211  12.630   1.462  0.2217  0.0327 -0.1331
 7951W        W24212  13.150   1.333  11.709 -0.0043  0.0679 -0.0104
 7952W        W24213  15.897   3.471   3.757  0.0643  0.2859  0.2610
 7953W        W24214   6.517  13.406  12.225 -0.0848 -0.0073  0.0432
 7954W        W24215  11.603   2.632   4.771 -0.0777 -0.2253 -0.0967
 7955W        W24216  16.124  17.438  15.606 -0.0662 -0.1507 -0.3362
 7956W        W24217   8.259   0.508   0.045  0.2594  0.2158  0.2155
 7957W        W24218  16.691   8.949   5.401  0.0201  0.0676 -0.0987
 7958W        W24219   1.821   1.874   2.418  0.0875  0.2477 -0.0610
 7959W        W24220   7.835   4.063   4.065 -0.0882  0.0036 -0.1642
 7960W        W24221   1.493  16.368  14.899  0.2375 -0.1490 -0.0164
 7961W        W24222  15.111  10.283   3.810 -0.2667 -0.0428  0.2291
 7962W        W24223   8.355   5.356   4.162 -0.1639 -0.0309  0.0962
 7963W        W24224  10.690   9.634  15.201 -0.1237  0.4671 -0.1924
 7964W        W24225  13.756   0.443   4.305 -0.1258  0.0326  0.0986
 7965W        W24226  12.478  17.048  13.513  0.0155  0.0812  0.3159
 7966W        W24227   8.522   5.725  13.324  0.0262  0.0794  0.0181
 7967W        W24228  13.717   8.384  15.213 -0.1476  0.3128 -0.1410
 7968W        W24229   8.775   1.687   2.188  0.1754  0.1604  0.0793
 7969W        W24230  18.493   5.760   4.316  0.0563  0.1087 -0.1096
 7970W        W24231   1.823  13.753  11.128  0.0344 -0.1104  0.1494
 7971W        W24232  12.367   4.033   2.896  0.1042  0.4088 -0.4310
 7972W        W24233  17.570  17.176  10.198 -0.2962  0.2121  0.0150
 7973W        W24234  10.413   2.304   5.437 -0.3810  0.0928  0.2092
 7974W        W24235   7.410  13.132   2.863 -0.0572 -0.1365  0.4716
 7975W        W24236   1.491   4.921  14.930 -0.0400  0.2295 -0.0710
 7976W        W24237   1.489   5.517   4.146 -0.1446 -0.1646  0.2341
 7977W        W24238  10.982   6.039  13.889  0.1735 -0.1344  0.1055
 7978W        W24239  17.759   0.019   2.305  0.0862 -0.5094 -0.2791
 7979W        W24240  14.866  11.199  15.208  0.0693 -0.2967  0.0056
 7980W        W24241   6.607   5.636   5.238  0.0511  0.3607 -0.0706
 7981W        W24242   2.991   0.654  14.443  0.0282  0.2713 -0.1180
 7982W        W24243  14.548   0.542  15.093  0.1849  0.0989  0.2710
 7983W        W24244  15.422  18.447  10.889 -0.2210  0.1615  0.3833
 7984W        W24245  10.761  16.238  15.219  0.0097 -0.0577  0.0607
 7985W        W24246  15.623   1.998  10.950 -0.0146  0.3075 -0.4196
 7986W        W24247  12.832  17.254  14.895  0.0235 -0.1138 -0.1278
 7987W        W24248   8.048  14.470  12.305  0.0518  0.1036 -0.1123
 7988W        W24249  14.732  17.932  13.353 -0.0483  0.1069 -0.3672
 7989W        W24250   6.444  18.659  11.064 -0.1830  0.0849 -0.0313
 7990W        W24251   9.946   4.946  14.133 -0.2483 -0.1384 -0.0381
 7991W        W24252   7.426  13.967   2.222 -0.1760  0.1855 -0.1685
 7992W        W24253  11.419  12.637  12.424  0.0886 -0.0323  0.0507
 7993W        W24254  15.739   7.866  10.677 -0.0203 -0.0949 -0.1936
 7994W        W24255  10.941   9.683   4.564  0.0083 -0.0043  0.1742
 7995W        W24256  17.010   6.239   1.789  0.0631 -0.2017  0.0771
 7996W        W24257   1.777  11.451   0.374 -0.1361 -0.0164  0.1911
 7997W        W24258   4.602   2.559   4.625  0.0563 -0.2524 -0.1139
 7998W        W24259   7.228  13.299  15.504 -0.2478 -0.0097  0.0562
 7999W        W24260  18.514   7.256   1.943  0.0170  0.2298 -0.1790
 8000W        W24261  12.182   2.662   4.506  0.2551 -0.1092 -0.1634
 8001W        W24262   3.700   0.944  13.960 -0.1922 -0.2824  0.0208
 8002W        W24263  13.838   2.806   4.626  0.1350  0.2035  0.0306
 8003W        W24264  10.971   6.837  11.316  0.0881  0.0152  0.5168
 8004W        W24265  14.333  18.161   3.644  0.3093  0.3059  0.0250
 8005W        W24266   3.312  16.160  11.110  0.1094 -0.2247 -0.1040
 8006W        W24267   1.539   9.344   4.635  0.1130 -0.0900  0.2974
 8007W        W24268  14.920   0.945  12.116 -0.0144  0.1568 -0.2289
 8008W        W24269  16.628  12.662  11.587  0.1519  0.1432 -0.3048
 8009W        W24270  12.383  16.451  15.319  0.0462 -0.0823 -0.3208
 8010W        W24271  15.069   6.090   0.549 -0.2029 -0.0748  0.0280
 8011W        W24272  14.207   6.011   0.640 -0.0458 -0.1055 -0.0873
 8012W        W24273  18.302   1.995   2.978  0.3116  0.2112 -0.1459
 8013W        W24274   2.277  16.779  12.940 -0.1328 -0.0305 -0.0285
 8014W        W24275   0.503  11.085   3.689 -0.0640 -0.2207  0.0131
 8015W        W24276   7.888   2.962  11.887  0.2074  0.0584  0.0626
 8016W        W24277   9.962  12.790   3.334 -0.0617 -0.1789  0.0260
 8017W        W24278   8.662   5.007  13.976  0.0701 -0.2308 -0.0687
 8018W        W24279  16.643  12.394   1.750 -0.1586 -0.2167  0.1311
 8019W        W24280   6.897   5.092  13.617 -0.1912 -0.1566 -0.2481
 8020W        W24281   4.084   6.208   2.752 -0.1500 -0.2678  0.2211
 8021W        W24282  16.172  13.629   2.211 -0.0257  0.0815  0.1660
 8022W        W24283  15.216  12.904   4.859  0.1677 -0.1768 -0.0308
 8023W        W24284   2.824   5.410  11.946  0.3934  0.1556 -0.0131
 8024W        W24285  18.609  15.365   2.316 -0.0004  0.2071 -0.1977
 8025W        W24286   2.173   6.651  12.282 -0.1920  0.0966 -0.1498
 8026W        W24287  18.622  17.596   1.711 -0.0243 -0.4307  0.1016
 8027W        W24288  13.302  12.774   2.904  0.2045 -0.2429 -0.1347
 8028W        W24289  18.368   5.461   1.859 -0.1449  0.0338 -0.1532
 8029W        W24290  13.663   8.863   3.304 -0.1580  0.0872  0.0485
 8030W        W24291  14.181  13.531  12.666 -0.0457 -0.1804 -0.0116
 8031W        W24292  13.912   8.649   1.638  0.1230  0.0489 -0.0343
 8032W        W24293   5.126  10.821   3.995 -0.0184 -0.0188 -0.0384
 8033W        W24294   2.574   0.399   1.450 -0.2773  0.1371 -0.1028
 8034W        W24295  13.530  10.224  12.081 -0.0226  0.2608 -0.1021
 8035W        W24296   5.289   3.132   2.820  0.1126  0.1980  0.1137
 8036W        W24297  18.180  10.587  10.841 -0.1632 -0.0268  0.0286
 8037W        W24298  12.596   2.147   3.429 -0.1500 -0.0192  0.0531
 8038W        W24299  11.983   0.790  12.872 -0.0601 -0.1343  0.0719
 8039W        W24300   9.099  10.616   3.846  0.3572  0.0893 -0.2813
 8040W        W24301   0.664   9.482  12.880 -0.0417  0.3168 -0.1864
 8041W        W24302   9.692   7.533  13.630 -0.0562 -0.0700  0.2854
 8042W        W24303  17.611   1.589   5.508  0.1160 -0.1086  0.2413
 8043W        W24304   1.725   9.798   4.428  0.1828 -0.0798  0.1087
 8044W        W24305   7.054   0.579  13.550 -0.2483 -0.2068  0.1886
 8045W        W24306  13.066   3.565   0.596  0.3513  0.1093  0.0121
 8046W        W24307  14.971   5.314  11.364  0.0945  0.2320  0.2743
 8047W        W24308   1.227   0.480  15.044  0.3066  0.3014  0.1292
 8048W        W24309  15.239   5.334  10.082 -0.1495 -0.0544  0.0131
 8049W        W24310  18.642  15.037   5.040  0.1609  0.1742 -0.0481
 8050W        W24311   4.100  11.353   4.469 -0.2445  0.0731 -0.2532
 8051W        W24312  11.223   0.092   3.652  0.0970 -0.0924 -0.1245
 8052W        W24313   3.605   4.868   2.526  0.3755  0.0657  0.2164
 8053W        W24314   6.576  14.662  14.042  0.1284  0.1470 -0.1436
 8054W        W24315  16.832  18.664  10.684  0.3689  0.2266  0.0199
 8055W        W24316  10.121   4.507   1.884 -0.1067  0.0379 -0.1306
 8056W        W24317  14.142   5.258  14.481  0.0094 -0.2979  0.0741
 8057W        W24318  13.311   5.904  14.257 -0.2295 -0.2106  0.2319
 8058W        W24319  11.608  15.674   4.224 -0.1934 -0.1138 -0.0844
 8059W        W24320   5.957   8.571  15.478  0.2208  0.0165  0.0634
 8060W        W24321  11.922  15.672   0.034  0.1321  0.0472 -0.1272
 8061W        W24322   4.060   4.977  14.305 -0.0673  0.1274 -0.1276
 8062W        W24323   2.955  11.243   1.195  0.0857 -0.2292 -0.0737
 8063W        W24324   8.085   1.086   2.209  0.0394  0.1439  0.0336
 8064W        W24325   7.312   3.040   5.243  0.0647 -0.2138 -0.2618
 8065W        W24326  15.098   2.737   2.622 -0.2580 -0.0115 -0.1332
 8066W        W24327   3.903  13.336   3.530 -0.3515  0.1602 -0.2196
 8067W        W24328  13.785   9.592  13.977  0.0579 -0.1665 -0.2551
 8068W        W24329  18.441   3.034   4.501  0.1058 -0.1619  0.2751
 8069W        W24330   2.033  18.323  14.875 -0.0389 -0.0547 -0.3626
 8070W        W24331   7.287   1.805   3.869  0.0982 -0.1995  0.0559
 8071W        W24332   0.520   4.930  12.733  0.0624 -0.2884  0.2257
 8072W        W24333   7.254  14.247   5.478 -0.2088 -0.1632  0.0162
 8073W        W24334   0.054  10.551  15.407  0.3275 -0.0175 -0.0077
 8074W        W24335  18.143   6.149   0.382  0.1309 -0.3267 -0.0504
 8075W        W24336   1.812   9.141  10.434  0.2737  0.0053  0.2838
 8076W        W24337  18.449  18.025  14.934  0.0132 -0.0646  0.1978
 8077W        W24338   7.738   1.676  14.600 -0.0166  0.0665 -0.0113
 8078W        W24339  11.020  12.862  11.748  0.3258 -0.0490  0.1613
 8079W        W24340   8.294  18.570   5.235  0.0868  0.3200  0.1190
 8080W        W24341  17.068  16.709   5.365  0.0688 -0.3018 -0.1354
 8081W        W24342  17.236   5.379  12.292  0.0706 -0.0490 -0.1766
 8082W        W24343  10.375   4.036  12.163 -0.0735  0.0395  0.0812
 8083W        W24344  11.490   4.791   3.179  0.1615 -0.1229  0.2097
 8084W        W24345   8.395   0.743   4.887 -0.0682 -0.1989  0.1466
 8085W        W24346   4.478   1.229   4.702 -0.0210  0.0395 -0.0661
 8086W        W24347  12.182   6.721  14.300  0.1523 -0.3109  0.3270
 8087W        W24348   7.782  12.217   1.488 -0.2317  0.0961 -0.0723
 8088W        W24349   2.938  15.451   2.475 -0.1852 -0.0054  0.1606
 8089W        W24350  12.713   0.884  14.932  0.2179 -0.1498  0.0343
 8090W        W24351  18.775   6.746  15.184  0.0648  0.3182 -0.0472
 8091W        W24352   4.707  15.607   3.590  0.1184  0.3757 -0.0556
 8092W        W24353   9.811  17.388   2.167  0.2299 -0.1779 -0.2314
 8093W        W24354   3.069  11.282   3.753 -0.0169 -0.0644  0.1123
 8094W        W24355   6.943   5.885  15.389 -0.1984  0.0132  0.3558
 8095W        W24356   7.771   0.014  14.861  0.0026 -0.2051  0.0640
 8096W        W24357   7.256   4.021   3.948 -0.0497 -0.1631  0.0831
 8097W        W24358  13.485  18.583  11.870 -0.2529 -0.1112 -0.2781
 8098W        W24359  17.882   4.026  14.779 -0.1296  0.0763 -0.2612
 8099W        W24360   1.227  15.119   1.375  0.0454  0.1376 -0.1563
 8100W        W24361   5.016  18.087  12.596  0.0746 -0.0837  0.2463
 8101W        W24362   9.399  16.695   4.172 -0.0948  0.0245  0.1791
 8102W        W24363   8.883   9.733   2.784 -0.1008 -0.2809  0.2143
 8103W        W24364   6.031  17.397   3.028 -0.0886  0.2711 -0.2457
 8104W        W24365  12.488   9.592   0.133 -0.0124  0.0616 -0.0153
 8105W        W24366  17.074  10.950   4.442  0.1898 -0.2122  0.1283
 8106W        W24367  10.314   1.807  13.964  0.1874  0.0861  0.2571
 8107W        W24368   1.693   1.850  10.781  0.0938 -0.5643  0.0377
 8108W        W24369   8.420  11.214   4.104 -0.0428  0.0456 -0.0031
 8109W        W24370  12.536  14.559  10.768 -0.2698 -0.1054  0.1862
 8110W        W24371   9.729   9.769  14.986  0.1313  0.3601  0.1599
 8111W        W24372  15.887   9.407  12.193 -0.2836 -0.2263  0.0854
 8112W        W24373  16.317   4.917  14.750  0.0172 -0.0754 -0.2680
 8113W        W24374  16.610  18.195  15.610  0.3574  0.0810 -0.1272
 8114W        W24375   1.377   5.043  11.992 -0.0039  0.0495  0.2333
 8115W        W24376   0.524  16.359   3.924  0.0405 -0.0287  0.1933
 8116W        W24377   8.382   6.199   1.172 -0.0275 -0.4801  0.2370
 8117W        W24378   2.915  11.991   5.650 -0.0040 -0.1969 -0.1457
 8118W        W24379   6.580   2.628  12.516 -0.2263  0.2946 -0.1726
 8119W        W24380   6.511   1.903   2.498  0.0501 -0.2143 -0.1085
 8120W        W24381  18.126  18.458  12.720 -0.2712  0.0425  0.1477
 8121W        W24382  17.534  10.256   4.729  0.0533  0.0964  0.0811
 8122W        W24383  12.902  18.482  10.688 -0.3465  0.0233  0.0377
 8123W        W24384   9.140  14.553   2.482  0.3812  0.2715 -0.0160
 8124W        W24385  12.838   6.779   3.691 -0.2199 -0.0408  0.1990
 8125W        W24386   8.303  11.772  12.717 -0.1229  0.0622  0.0612
 8126W        W24387   6.147  11.430  15.367  0.0659  0.3353  0.1676
 8127W        W24388   6.452   8.079   5.435  0.1214 -0.2746 -0.0919
 8128W        W24389  16.950  15.531   0.856 -0.1224  0.1744 -0.2047
 8129W        W24390   8.317   4.211   3.920  0.0118  0.2310  0.0301
 8130W        W24391  15.934   5.838  11.737  0.1145  0.1559  0.0820
 8131W        W24392   5.712   2.075   2.044  0.0396  0.0226  0.0477
 8132W        W24393  16.039  18.368   1.385 -0.3777 -0.1348  0.0750
 8133W        W24394  10.431   8.845   1.534  0.1781  0.1376  0.0119
 8134W        W24395   0.643  17.156   3.200  0.0739 -0.0250 -0.1815
 8135W        W24396   7.076  11.166   3.185  0.2223  0.1251 -0.0278
 8136W        W24397  17.657  15.109   4.755  0.3118  0.0212  0.0870
 8137W        W24398  15.644   1.778  12.310  0.1889  0.0518  0.1608
 8138W        W24399  15.313   2.891  14.858  0.1211  0.2631  0.1243
 8139W        W24400  12.704   9.728  13.710 -0.3681 -0.0303  0.2127
 8140W        W24401   2.394   0.611   0.914  0.1192  0.3127 -0.1413
 8141W        W24402  18.552  17.137   1.728  0.0613 -0.3581  0.1074
 8142W        W24403  14.855  12.887   0.313 -0.0126  0.0547 -0.2134
 8143W        W24404  18.284   1.887  13.771  0.1022 -0.0621 -0.1558
 8144W        W24405   4.076   1.022  11.491 -0.0830 -0.3469  0.0971
 8145W        W24406   6.844  10.193  11.585  0.2045 -0.2724 -0.1180
 8146W        W24407  18.330  17.870   1.369 -0.0233  0.1576 -0.3106
 8147W        W24408   0.964  16.618   1.201 -0.0443  0.3912  0.3155
 8148W        W24409   2.515  13.412   4.719  0.3873  0.0131 -0.2401
 8149W        W24410   2.996   6.188   4.315 -0.1571 -0.0798  0.2274
 8150W        W24411  16.609   4.939   0.744  0.0193  0.0530 -0.1177
 8151W        W24412  15.014   0.033  12.598  0.0391 -0.1010 -0.2008
 8152W        W24413   7.769   7.486   3.303 -0.2684 -0.3739  0.1390
 8153W        W24414  13.749   6.936  11.584 -0.2846  0.0662  0.1817
 8154W        W24415  17.943   1.719   1.836  0.0335 -0.0494 -0.0398
 8155W        W24416   6.476   1.684   3.640 -0.0919 -0.2005 -0.0684
 8156W        W24417   5.967  14.386   0.810  0.2376  0.1750 -0.2111
 8157W        W24418   4.914   4.584   6.038 -0.3061  0.1272  0.2147
 8158W        W24419  17.886  11.523  15.401  0.2503 -0.1680  0.2922
 8159W        W24420   6.320  16.057  14.427  0.1094 -0.2396  0.0350
 8160W        W24421  13.978   4.325   1.345  0.2300 -0.3327  0.0896
 8161W        W24422   8.202   5.944   2.337  0.1051 -0.1274  0.1355
 8162W        W24423  10.829  13.631   3.790  0.4336  0.0664 -0.0407
 8163W        W24424  16.014  13.848  12.844 -0.1027 -0.1270  0.2946
 8164W        W24425   6.083  15.190   1.579  0.0121 -0.0978  0.0139
 8165W        W24426  18.119   4.813  11.136  0.0532  0.0910  0.2338
 8166W        W24427  15.308   5.124  13.087 -0.0799 -0.2166  0.0135
 8167W        W24428   6.952  16.631   3.842  0.0285  0.1403 -0.0821
 8168W        W24429  13.588   1.152  11.420 -0.1851 -0.1948 -0.2262
 8169W        W24430   8.202   3.471   2.955 -0.2064  0.4529  0.0691
 8170W        W24431   4.481  15.123  14.241 -0.1840 -0.2604  0.1456
 8171W        W24432   6.048  15.975   5.237 -0.0834 -0.0527 -0.0674
 8172W        W24433  13.490  15.990  10.350  0.2645 -0.0803 -0.1611
 8173W        W24434  15.070  12.571  15.015  0.1386  0.1541 -0.1570
 8174W        W24435  15.790   7.480  14.818  0.1726 -0.2422  0.1173
 8175W        W24436   5.590  10.398   0.778 -0.2866  0.1473  0.1652
 8176W        W24437   9.529   8.545   3.402  0.1186  0.0557 -0.0424
 8177W        W24438  15.875  16.464  13.947  0.0630 -0.0438  0.1367
 8178W        W24439   8.885   7.453  14.084 -0.0164  0.1501  0.1072
 8179W        W24440  17.593  17.374   0.208  0.3883 -0.4144  0.0102
 8180W        W24441   8.713   9.414  10.968 -0.1422 -0.1115 -0.1113
 8181W        W24442  11.918   1.649   5.038 -0.0960 -0.2860 -0.1547
 8182W        W24443   3.237   5.350  12.213 -0.0147 -0.0520  0.1343
 8183W        W24444  12.713   6.499   5.032  0.1307 -0.0725  0.2063
 8184W        W24445   6.110  14.711   2.476  0.0290  0.0050 -0.1946
 8185W        W24446   2.583   1.459  12.932  0.0977  0.4168  0.0130
 8186W        W24447  16.142  15.696   3.630  0.3054  0.3800 -0.0270
 8187W        W24448   9.566  18.160  15.633 -0.3987  0.2787 -0.2211
 8188W        W24449  18.153   6.313   2.476 -0.3469 -0.0444 -0.0926
 8189W        W24450  10.203   6.768   5.425 -0.1307 -0.0720  0.2304
 8190W        W24451   9.426   5.389   1.707 -0.0019  0.1241 -0.0058
 8191W        W24452   8.395  14.822   0.472 -0.0033 -0.0177 -0.4282
 8192W        W24453  12.817   9.300   1.791 -0.2626 -0.1129 -0.0129
 8193W        W24454   1.340   1.223  10.644  0.3381 -0.1322 -0.0443
 8194W        W24455  11.423   0.187   3.245  0.2007 -0.0527  0.4829
 8195W        W24456  12.834   8.930   3.237  0.2746 -0.0737  0.1909
 8196W        W24457   1.327  14.650  13.768 -0.2535  0.0781  0.0670
 8197W        W24458   0.107  14.549  13.644  0.1145  0.0353 -0.2253
 8198W        W24459  15.821   5.898   1.529  0.1309  0.1610 -0.2019
 8199W        W24460   4.313   4.986   0.671 -0.0083 -0.3569  0.0045
 8200W        W24461  11.613   7.545   1.390 -0.0312  0.3199 -0.2355
 8201W        W24462  13.192   3.101   0.444 -0.1886  0.0105 -0.0649
 8202W        W24463  17.220  18.175  11.222 -0.5221 -0.0203  0.1739
 8203W        W24464   3.982  11.818  12.535  0.2076  0.0018  0.1028
 8204W        W24465  12.785   4.620  12.432 -0.1300 -0.0478 -0.0025
 8205W        W24466   5.678  16.542   1.442 -0.2788  0.0686  0.1874
 8206W        W24467   3.391   2.125   0.981  0.1486 -0.1785 -0.2911
 8207W        W24468   3.708   7.322  15.640 -0.1046 -0.0013  0.0626
 8208W        W24469   7.211  16.832  13.199  0.0057  0.1679 -0.1816
 8209W        W24470   0.191   8.420  12.515 -0.0238 -0.0418 -0.0789
 8210W        W24471   5.812   0.426   0.536  0.4509 -0.2845  0.0252
 8211W        W24472   1.630  10.407  11.089 -0.0542 -0.2774 -0.2358
 8212W        W24473  18.363   4.328  14.059 -0.0905 -0.1518  0.3187
 8213W        W24474  10.314  18.257  14.387  0.0869  0.0331  0.1439
 8214W        W24475   0.744  14.253   2.461  0.2286 -0.0269  0.1247
 8215W        W24476  17.904  14.366   1.284  0.1859 -0.2979 -0.1574
 8216W        W24477  17.555  17.574  14.645  0.0152  0.1148 -0.0544
 8217W        W24478   7.965  16.266  12.016 -0.1032 -0.4240 -0.2247
 8218W        W24479   1.804  17.420  11.881 -0.5475  0.1103  0.0015
 8219W        W24480   7.572  12.414   2.213  0.1010  0.1481 -0.0384
 8220W        W24481  17.388  16.019  11.517  0.0886 -0.0371 -0.0992
 8221W        W24482   7.968   6.647  13.696 -0.2952 -0.3257 -0.1262
 8222W        W24483  17.228   7.653   3.168  0.2920  0.2128 -0.0480
 8223W        W24484  14.227  14.433  12.669 -0.0261 -0.1514  0.0974
 8224W        W24485  17.581   2.372  14.400 -0.0698 -0.0806  0.0751
 8225W        W24486  14.467  11.293  13.093  0.1148  0.0860 -0.1930
 8226W        W24487   8.958   1.932  11.495 -0.1959  0.1423  0.2704
 8227W        W24488  12.059  11.747   3.291  0.0426 -0.0164  0.1293
 8228W        W24489   5.432  15.233  14.058  0.0009 -0.1222  0.3765
 8229W        W24490  13.016   6.274   3.810 -0.0053  0.1029 -0.1192
 8230W        W24491   2.222   1.937   4.432  0.0489  0.1564 -0.0394
 8231W        W24492  10.194   0.607  15.399  0.0595  0.3727 -0.3121
 8232W        W24493   0.045   1.118  15.272  0.0419  0.1864 -0.1031
 8233W        W24494  11.961   9.888   2.619 -0.0666 -0.0528  0.0945
 8234W        W24495  14.932  18.729  13.830  0.0242 -0.0090 -0.1900
 8235W        W24496  10.844  16.836  12.258 -0.1510 -0.2323  0.1004
 8236W        W24497  11.260   9.172  14.897 -0.2304  0.2598  0.1961
 8237W        W24498   5.728   9.365  13.523  0.3627  0.0474 -0.0680
 8238W        W24499   3.100   5.069   1.743  0.0575  0.1472  0.0151
 8239W        W24500  12.412  17.394   0.091 -0.0206  0.0044 -0.0278
 8240W        W24501   7.582  14.245  12.129 -0.0295  0.1178 -0.1011
 8241W        W24502   8.100  16.007  11.509 -0.0681  0.2684  0.1116
 8242W        W24503   7.990   6.114  13.866 -0.0064  0.2751  0.0055
 8243W        W24504   7.663  16.543   4.742 -0.0210  0.2062 -0.2190
 8244W        W24505   3.013   1.586  12.634  0.2173  0.1654  0.3591
 8245W        W24506  11.908   8.948  11.181  0.1826  0.4307  0.1692
 8246W        W24507  13.996   6.118   5.320 -0.1674  0.3954  0.0470
 8247W        W24508   0.268   8.354   0.484  0.1191 -0.0046  0.1229
 8248W        W24509  15.236  10.629  12.924  0.0535  0.0803 -0.0737
 8249W        W24510  17.398  13.609  14.229  0.1885  0.0894  0.0163
 8250W        W24511   0.816   9.855   4.104 -0.1898 -0.1688  0.4510
 8251W        W24512   0.769   2.801   5.826 -0.0240  0.0008  0.0147
 8252W        W24513   4.549  17.916   5.482 -0.2298  0.3404  0.1963
 8253W        W24514  12.432   4.707   3.753  0.2286  0.4730  0.2006
 8254W        W24515   7.700  18.594   3.031 -0.2132  0.2340 -0.1242
 8255W        W24516  15.812  17.328   3.350 -0.2606  0.2903 -0.0722
 8256W        W24517   2.568   8.401   2.108  0.0048  0.3153 -0.0851
 8257W        W24518  17.912   6.566   0.276 -0.0732  0.0297 -0.2346
 8258W        W24519   5.694   2.633   1.186  0.0209 -0.0701  0.2169
 8259W        W24520   1.319   6.647   5.385 -0.0097 -0.2517  0.3482
 8260W        W24521  11.579   9.090  14.423 -0.2549 -0.3236 -0.2473
 8261W        W24522   8.723   1.311  15.166 -0.1425 -0.3064 -0.0363
 8262W        W24523  17.570   5.733  11.880  0.1860 -0.0469  0.1938
 8263W        W24524   5.745   1.294   1.554 -0.1224 -0.1792 -0.1296
 8264W        W24525  11.580   6.666   2.607  0.2242 -0.0898 -0.0728
 8265W        W24526   1.300  16.022  14.206 -0.1111  0.2624 -0.1464
 8266W        W24527  10.595  12.991  13.394  0.1235 -0.0581  0.1024
 8267W        W24528  14.626  11.786  10.925 -0.1310  0.2496 -0.0294
 8268W        W24529  16.561   9.247   3.033  0.1910  0.1293 -0.3967
 8269W        W24530  10.716   3.854   4.335  0.1321 -0.2779 -0.3186
 8270W        W24531   0.125   0.795  13.583 -0.0223 -0.0763  0.0321
 8271W        W24532  13.685   7.143  12.261  0.2254  0.2696  0.1884
 8272W        W24533   3.367   7.930   1.998 -0.1425  0.0951  0.1870
 8273W        W24534  13.367  17.391  10.421  0.1486 -0.2924 -0.2585
 8274W        W24535  13.977  11.383  13.914  0.3411 -0.1264 -0.1336
 8275W        W24536   7.005   4.204   1.438  0.2722  0.1386 -0.0790
 8276W        W24537   3.404   7.415   1.539  0.2558  0.0803  0.4055
 8277W        W24538  16.755  14.996  11.965 -0.1583  0.0530  0.3090
 8278W        W24539  10.731  14.329  10.486 -0.0801  0.2535  0.2811
 8279W        W24540  15.677  10.078  12.294  0.0269  0.1518 -0.3499
 8280W        W24541   2.171  18.236  12.088 -0.3619 -0.0420 -0.3618
 8281W        W24542  10.690  13.940   4.188  0.1805  0.3636 -0.3131
 8282W        W24543   4.256  10.463  12.566 -0.1686 -0.0042 -0.2948
 8283W        W24544  18.798  13.773  11.622  0.0655 -0.0684 -0.1024
 8284W        W24545  13.875  13.213   3.444 -0.0060 -0.2064 -0.0858
 8285W        W24546   6.064   7.480  14.311  0.1232 -0.0638 -0.0925
 8286W        W24547  14.352   5.274   2.513  0.2315 -0.2517  0.3190
 8287W        W24548   8.147  16.469   2.031  0.0487 -0.1481 -0.6038
 8288W        W24549   8.070  11.213   1.204 -0.0126  0.0201  0.2054
 8289W        W24550  14.907  11.692   1.807  0.0413 -0.0337  0.0459
 8290W        W24551   2.362  15.220  12.195 -0.2475 -0.2041 -0.3036
 8291W        W24552   5.055   6.955   4.226  0.2010 -0.0022  0.0603
 8292W        W24553   9.425   8.517  11.274  0.0760  0.1773 -0.1577
 8293W        W24554  14.913   7.868   0.146  0.0920  0.3512 -0.0711
 8294W        W24555  11.284  17.989   2.221 -0.3855 -0.4081 -0.0721
 8295W        W24556  10.458   9.646   4.859 -0.2360  0.0663 -0.0292
 8296W        W24557  16.553  11.359   3.864 -0.2176 -0.0626  0.2929
 8297W        W24558   9.832   2.456   2.810  0.0291  0.0610  0.2070
 8298W        W24559  10.786  10.262   1.067 -0.0291  0.3816 -0.3755
 8299W        W24560  17.386  10.994   1.924  0.2297  0.0503 -0.1182
 8300W        W24561  18.136   7.479  12.151  0.0009 -0.0207 -0.0210
 8301W        W24562   7.125   6.167  14.955  0.2778  0.0254  0.0907
 8302W        W24563   9.799   0.484   6.374 -0.0270 -0.0366  0.2801
 8303W        W24564   5.740   0.981   0.470  0.0906  0.1431  0.1621
 8304W        W24565   7.858  13.041   2.684  0.5583 -0.1666 -0.1050
 8305W        W24566   5.643   8.807  13.745 -0.0204 -0.4041 -0.1843
 8306W        W24567  15.711  11.074  13.755 -0.1814 -0.0325 -0.0139
 8307W        W24568  11.693  11.656   1.892  0.0802 -0.0159  0.0087
 8308W        W24569  14.757   7.968  10.976 -0.1132  0.0513  0.1357
 8309W        W24570  15.318   2.649  15.463  0.0169  0.0369  0.2215
 8310W        W24571   1.447  16.938   3.096 -0.0609 -0.0674 -0.3747
 8311W        W24572   0.226  16.136  12.250 -0.2998  0.0674  0.0946
 8312W        W24573  17.940   8.231   4.530 -0.0897  0.1951  0.2910
 8313W        W24574   8.175  18.635  12.110 -0.0913 -0.0883  0.0247
 8314W        W24575   3.365   2.880   3.502  0.0065  0.0423  0.1532
 8315W        W24576   8.116   4.119  12.636  0.3497 -0.2588  0.2768
 8316W        W24577  16.945  12.448  14.794  0.0783  0.2178  0.2266
 8317W        W24578   1.516   9.088   1.641  0.0464  0.1429  0.2115
 8318W        W24579   7.392   8.260  14.284  0.2409 -0.0450 -0.2888
 8319W        W24580   2.597   5.984  11.641  0.2090 -0.4276  0.1002
 8320W        W24581  16.719  18.612   9.307 -0.3626 -0.2100  0.2809
 8321W        W24582  10.263   1.529   4.975  0.0324 -0.0924 -0.1406
 8322W        W24583   5.910  17.173  11.757 -0.1464  0.3628  0.2478
 8323W        W24584  17.931  16.839  15.101  0.0106  0.0033 -0.0342
 8324W        W24585   7.788   1.735  13.579  0.3101  0.2696  0.2680
 8325W        W24586   0.718  10.625  14.995  0.0434 -0.0375  0.2579
 8326W        W24587  10.153   7.199   0.928 -0.2479 -0.0288 -0.1410
 8327W        W24588   4.958   4.601  12.473 -0.0163 -0.1428  0.1932
 8328W        W24589   6.312   0.711   3.525  0.1041 -0.1787 -0.2862
 8329W        W24590   2.397   7.262  15.184 -0.2042  0.2092 -0.1484
 8330W        W24591   5.275  14.877   0.182 -0.1280  0.0158  0.1623
 8331W        W24592  14.669   9.249  10.756  0.4090  0.0651  0.3755
 8332W        W24593  12.811   1.286   1.011 -0.0356 -0.0590 -0.1284
 8333W        W24594  10.878   9.945  12.320  0.1438  0.1627 -0.0350
 8334W        W24595   4.197   3.950   3.444 -0.0481  0.0659  0.1000
 8335W        W24596  11.925  14.581   1.877  0.1517 -0.1638 -0.1688
 8336W        W24597  10.598  18.637   2.629 -0.1298  0.0304  0.0652
 8337W        W24598   7.138   9.516  15.514 -0.3435 -0.0233  0.2661
 8338W        W24599   1.799  11.474   3.701 -0.2335 -0.1878  0.2557
 8339W        W24600   5.598   0.472   5.905  0.4328 -0.1244  0.1577
 8340W        W24601  14.563  12.497  10.313 -0.0197  0.1356 -0.0389
 8341W        W24602  13.638  11.019  14.182 -0.0161  0.2611  0.2450
 8342W        W24603   9.260  11.238  14.902 -0.0687  0.0350  0.2386
 8343W        W24604   0.041  18.046   3.372  0.1918  0.1197 -0.1296
 8344W        W24605  15.892  12.975  15.526  0.0955  0.2160  0.1117
 8345W        W24606   9.275   2.266  14.874 -0.0449  0.0140  0.0483
 8346W        W24607  10.432   3.393   5.227 -0.3294 -0.3496  0.0421
 8347W        W24608  10.561  16.521   2.834  0.2471 -0.1759 -0.0948
 8348W        W24609  18.132  14.556  11.898  0.0633 -0.0572  0.1018
 8349W        W24610   1.388   0.988  12.402  0.0331  0.0234  0.0257
 8350W        W24611   4.628   1.292   4.043 -0.1131  0.0727  0.2826
 8351W        W24612  14.755   7.980   3.373 -0.1260 -0.1194 -0.0415
 8352W        W24613  11.013   8.328   4.336  0.0394 -0.2506  0.0505
 8353W        W24614   8.845   4.262  13.010  0.4090 -0.1525 -0.0952
 8354W        W24615   4.203  15.332  10.683 -0.0083  0.0121  0.0434
 8355W        W24616   5.795  18.238  11.492 -0.1909  0.0217 -0.1827
 8356W        W24617  15.702  17.919  15.501  0.0671  0.3996 -0.2081
 8357W        W24618   9.168   8.295   3.896 -0.2048  0.1167  0.2659
 8358W        W24619  12.057  12.968   0.077 -0.1293  0.1711  0.2474
 8359W        W24620  10.729   2.869   4.370  0.0481 -0.2311 -0.1024
 8360W        W24621   6.425  12.246   3.296  0.1107  0.1437  0.3192
 8361W        W24622   4.369   3.719   4.111 -0.3237  0.0020  0.1394
 8362W        W24623   5.469  18.038   4.366  0.0008 -0.1031  0.2099
 8363W        W24624  12.088  10.393  10.265 -0.0161 -0.0351  0.0184
 8364W        W24625   8.860  12.221  11.442 -0.0465 -0.0772  0.0562
 8365W        W24626   1.666   2.281   1.573  0.1324  0.0355  0.1139
 8366W        W24627  13.459  14.092   0.597 -0.0521 -0.0770 -0.0718
 8367W        W24628  14.942  14.144   3.834 -0.0117  0.0882  0.0435
 8368W        W24629  12.761   2.957  12.669  0.0376 -0.1341 -0.0830
 8369W        W24630   8.959  18.645  15.564 -0.1019  0.1603  0.2713
 8370W        W24631   2.080   7.405   4.051  0.0846  0.0225 -0.0654
 8371W        W24632   8.875  15.760   1.675  0.0757 -0.2311 -0.1646
 8372W        W24633  11.183   5.673   3.085  0.0664 -0.0779  0.0541
 8373W        W24634  10.380  13.362  11.374 -0.1095 -0.0052  0.4036
 8374W        W24635  15.841   4.100   0.167 -0.0033 -0.2513  0.4356
 8375W        W24636  17.638  17.339  13.169 -0.2496  0.1563 -0.1522
 8376W        W24637   6.724  13.223  13.755 -0.2626  0.0793  0.4274
 8377W        W24638  17.827  18.597   4.873  0.3688 -0.2211 -0.1831
 8378W        W24639  11.232  13.641  10.768  0.0167  0.0919  0.1252
 8379W        W24640   3.896  10.577   0.467 -0.0893 -0.0746 -0.0347
 8380W        W24641  10.622  10.792   4.291  0.0460  0.2235 -0.1727
 8381W        W24642   6.330   0.383   3.882 -0.5437  0.0483 -0.2043
 8382W        W24643   9.599   0.668   4.896  0.4420  0.0527  0.1411
 8383W        W24644   7.255  10.439   4.370 -0.1667 -0.0145 -0.1544
 8384W        W24645  15.766  17.702   0.297 -0.2287 -0.0974 -0.2012
 8385W        W24646  15.450  14.692  13.858 -0.0317 -0.0185 -0.1066
 8386W        W24647   2.549  12.631  13.281  0.0076  0.1198  0.1577
 8387W        W24648   7.424  13.294  14.904 -0.2843  0.1849 -0.1028
 8388W        W24649   1.813   4.941   0.450 -0.2436  0.1509  0.0652
 8389W        W24650  17.117   5.794  12.612 -0.3397  0.3989 -0.0126
 8390W        W24651  15.722   5.446  14.269  0.0716  0.1583 -0.1548
 8391W        W24652   8.488  13.461   4.488 -0.0766 -0.1283  0.1274
 8392W        W24653   6.043   3.321  12.260  0.2738  0.0549 -0.1276
 8393W        W24654  10.567  11.429   4.567  0.1078 -0.2347 -0.2132
 8394W        W24655   3.434   8.587   0.202 -0.2411  0.1443  0.2061
 8395W        W24656   3.878   2.215  13.390 -0.1322 -0.1973  0.1060
 8396W        W24657  11.465  11.590  12.351  0.0170 -0.0210  0.0025
 8397W        W24658  15.853  14.826  14.996 -0.0326  0.2854 -0.1406
 8398W        W24659  15.008  14.531  12.590 -0.0034 -0.2009 -0.1556
 8399W        W24660   1.572   5.161  12.443  0.1846 -0.1292 -0.1815
 8400W        W24661   0.347   0.397  10.992 -0.2257  0.0280  0.1045
 8401W        W24662  13.497   9.117  13.826  0.2642 -0.0785 -0.0278
 8402W        W24663   4.509  13.519  15.058 -0.1830  0.0479  0.2887
 8403W        W24664  11.834  16.807   5.266  0.3955 -0.0195  0.0330
 8404W        W24665   9.991   4.124  11.545 -0.1950 -0.1143  0.0479
 8405W        W24666   2.647   2.657   4.246  0.3561  0.3822  0.5915
 8406W        W24667  14.275   0.514  11.073  0.0460 -0.0177 -0.1645
 8407W        W24668  13.427   7.356  11.413 -0.1150 -0.1793 -0.1371
 8408W        W24669   1.061   1.458   4.658  0.2067  0.1771  0.2073
 8409W        W24670  12.533   4.872   1.488  0.1261  0.1502  0.2964
 8410W        W24671  16.893  15.958   0.168 -0.2215  0.0307 -0.0750
 8411W        W24672   4.030  13.726   2.986  0.4368  0.2078 -0.1380
 8412W        W24673   2.780   3.017  13.947  0.0192 -0.0185 -0.0932
 8413W        W24674  10.045   8.441  13.670  0.3826  0.2006  0.0482
 8414W        W24675  14.290   2.077   3.264  0.4007  0.0378 -0.1487
 8415W        W24676   9.145   8.449   5.644  0.2563 -0.0826  0.0239
 8416W        W24677   3.358  11.875   3.662 -0.0525 -0.1714  0.0196
 8417W        W24678  16.847  10.939   0.786 -0.0349 -0.0894  0.2151
 8418W        W24679   9.101   5.347  12.673  0.1344 -0.2152 -0.1408
 8419W        W24680   8.703   5.284   5.272  0.1137 -0.0665  0.0483
 8420W        W24681   8.145  16.494   3.281 -0.0240 -0.0048  0.1016
 8421W        W24682  15.365   5.921   1.715  0.1636  0.1751 -0.2036
 8422W        W24683  13.918   8.157   2.697 -0.1135  0.0768 -0.3800
 8423W        W24684  12.075  17.356   4.301 -0.0333  0.3672 -0.0875
 8424W        W24685   4.412  16.811  13.956  0.3355  0.2203  0.2716
 8425W        W24686   1.866  16.221  15.295  0.0576 -0.0850  0.0307
 8426W        W24687   4.807   2.042   3.208  0.4794 -0.3002 -0.1965
 8427W        W24688   1.916  16.504  10.434 -0.3042 -0.2431  0.2555
 8428W        W24689   2.100   7.542  14.214 -0.0735 -0.1231 -0.2550
 8429W        W24690   9.281  18.455  12.204 -0.1261  0.0200  0.1299
 8430W        W24691  12.371  11.967  12.381  0.0531  0.2839 -0.1142
 8431W        W24692   6.689  18.188   5.294 -0.0484  0.0537  0.1452
 8432W        W24693   9.003   2.243   3.396 -0.0160 -0.1467  0.1663
 8433W        W24694  16.982   8.789  14.446 -0.2665  0.4357 -0.2742
 8434W        W24695  12.993  13.242  13.521  0.1998  0.0203 -0.1539
 8435W        W24696  12.039   3.350   0.222  0.2926 -0.1482 -0.1584
 8436W        W24697  15.228  16.303  12.455  0.0587  0.1091  0.0419
 8437W        W24698   8.655  16.574   3.570  0.2543 -0.0940  0.0253
 8438W        W24699  11.641   4.350   2.578  0.2314 -0.0567 -0.0238
 8439W        W24700  16.648  15.506  11.390  0.0963  0.0137 -0.0310
 8440W        W24701   4.478  14.938  14.716  0.4266 -0.0566  0.1905
 8441W        W24702  14.115  10.132  14.841 -0.1115 -0.2426 -0.1380
 8442W        W24703  15.416   5.631   2.998 -0.0050  0.1510 -0.1206
 8443W        W24704   4.862  14.875   3.238  0.0819 -0.1655 -0.0612
 8444W        W24705  12.944  11.379   1.299  0.0349 -0.2839  0.1979
 8445W        W24706   4.527  17.866   2.593 -0.3255 -0.0725 -0.2322
 8446W        W24707  16.303  17.255  11.630  0.4819 -0.2853 -0.0795
 8447W        W24708   0.560   3.346   3.305  0.0086  0.3226  0.0764
 8448W        W24709   0.458  10.275   3.850  0.1703  0.2142  0.2359
 8449W        W24710   4.961   0.070   5.141 -0.1293  0.0190  0.1273
 8450W        W24711  15.500  18.822  11.256  0.5391  0.0655  0.0140
 8451W        W24712   1.648   5.127   3.376 -0.3134 -0.2037 -0.0983
 8452W        W24713  14.669   8.404  10.744 -0.1773  0.2827  0.2953
 8453W        W24714  18.658  14.948  13.792  0.1779  0.1719  0.0011
 8454W        W24715  11.013   9.557  13.107 -0.2034  0.1866 -0.3262
 8455W        W24716  16.676   9.041  13.477  0.1142 -0.1561  0.1093
 8456W        W24717   2.865  11.730  12.943 -0.0058 -0.0051 -0.3270
 8457W        W24718   6.143   3.101  13.569  0.0130  0.0823  0.1510
 8458W        W24719  18.662  13.497  11.276 -0.1528 -0.1028 -0.0448
 8459W        W24720  11.220  18.150   5.746  0.0094  0.0989  0.0279
 8460W        W24721  17.165  18.666  11.212  0.0816  0.0006 -0.1216
 8461W        W24722   1.194   9.530  15.230 -0.1843  0.1379 -0.2001
 8462W        W24723   3.784  12.270  14.259 -0.0160  0.0148  0.0535
 8463W        W24724   4.336  15.659   0.206 -0.0126 -0.0101 -0.0541
 8464W        W24725  12.020  11.668   4.900  0.0336  0.1586 -0.2259
 8465W        W24726  15.972  17.979   1.130  0.0598  0.0501 -0.1603
 8466W        W24727  15.637   6.460   5.247 -0.4303  0.0210 -0.1060
 8467W        W24728   5.051  15.281  14.968 -0.0557 -0.0093 -0.2334
 8468W        W24729   5.501  17.406   2.222  0.1380 -0.1363 -0.0642
 8469W        W24730   4.067  11.743   3.125  0.1270 -0.1931  0.0862
 8470W        W24731  10.600  18.426  14.750 -0.1394 -0.0713  0.0595
 8471W        W24732  14.078  14.504  14.194  0.0566  0.0496  0.0983
 8472W        W24733  12.009  13.310  12.939  0.1455 -0.3586 -0.2360
 8473W        W24734   9.388   4.899   2.482 -0.0792 -0.1698 -0.0043
 8474W        W24735   8.115   0.144   0.313  0.0896 -0.0175  0.2296
 8475W        W24736  10.578   5.824   2.519 -0.2127 -0.1254 -0.3457
 8476W        W24737   6.121  10.592   5.028  0.0767 -0.0913  0.1409
 8477W        W24738  11.967  15.702   2.389 -0.0609  0.0325 -0.0036
 8478W        W24739   0.642  14.122  12.901  0.0789 -0.1432  0.1293
 8479W        W24740  14.393   7.767  13.367 -0.2885  0.5202 -0.0473
 8480W        W24741   3.025   7.800  12.455  0.1193  0.1551  0.0075
 8481W        W24742  11.487   0.572  12.915 -0.0054  0.0536 -0.0785
 8482W        W24743   4.920   0.506  11.759  0.0656 -0.2204  0.0232
 8483W        W24744  13.717  14.212   4.379 -0.3546  0.0702  0.1163
 8484W        W24745   0.668  15.881  12.337 -0.1082  0.1616 -0.1540
 8485W        W24746   6.254   1.476   2.670  0.0189  0.0341 -0.2450
 8486W        W24747   9.237  13.716   0.067 -0.0105  0.0160 -0.0145
 8487W        W24748   7.260  17.701  15.126  0.0587 -0.1688  0.2348
 8488W        W24749  11.232  16.275  12.485 -0.0881  0.1682  0.3199
 8489W        W24750   0.444  14.600  14.858  0.1600  0.0731 -0.1497
 8490W        W24751   5.311  13.233  12.842 -0.0349  0.1495 -0.0426
 8491W        W24752   0.675  13.776   2.359  0.0103 -0.0436  0.0905
 8492W        W24753   8.924  15.506  15.034 -0.1600 -0.4528 -0.0233
 8493W        W24754   2.185  12.366  14.849  0.1838 -0.0938  0.2665
 8494W        W24755   5.788   7.977   2.114 -0.2583 -0.0384  0.0395
 8495W        W24756   3.452  11.647  10.171  0.0421 -0.2677  0.1320
 8496W        W24757   7.624   8.173   4.848  0.0823 -0.2464 -0.0493
 8497W        W24758  11.635   5.941  15.100  0.0924 -0.1635 -0.1899
 8498W        W24759   3.090   1.643   4.401 -0.1570 -0.3514 -0.4600
 8499W        W24760   3.491   4.059  13.377  0.0506 -0.1913 -0.1688
 8500W        W24761   9.423   7.493   4.520  0.0763 -0.3049 -0.1033
 8501W        W24762   6.863  13.284   2.926  0.0097 -0.2414  0.0239
 8502W        W24763  11.328  10.305   0.506  0.0391 -0.2886 -0.0531
 8503W        W24764  15.650   9.514  13.536  0.1883  0.0173  0.0971
 8504W        W24765   8.065   4.617   5.039  0.2305  0.1096 -0.0586
 8505W        W24766   3.025   1.221  14.474  0.2227  0.3224 -0.0282
 8506W        W24767  15.250  17.055   2.586  0.2113  0.1484 -0.2943
 8507W        W24768  14.172  16.017   4.292 -0.0884 -0.0265 -0.0909
 8508W        W24769   3.271   3.403   4.890 -0.0013 -0.1744 -0.2203
 8509W        W24770  11.779  16.207   3.063  0.0594  0.1560  0.2264
 8510W        W24771   8.885   7.479   4.546  0.1085  0.1310 -0.1532
 8511W        W24772  15.392  17.335   1.349 -0.1506 -0.1351 -0.0556
 8512W        W24773   4.589  14.228   0.372 -0.1200  0.0256  0.0358
 8513W        W24774  11.023   8.681  10.958 -0.2346  0.1551  0.2202
 8514W        W24775   0.128  12.874   1.174  0.1172 -0.3164  0.1475
 8515W        W24776   6.284   1.064  11.604 -0.0336  0.2522  0.0329
 8516W        W24777  11.696  15.079  14.663  0.0672 -0.0767 -0.4543
 8517W        W24778   2.617  16.406  12.685 -0.1259  0.2920 -0.3128
 8518W        W24779  18.469   0.473  10.340 -0.2170 -0.2786 -0.1978
 8519W        W24780   1.514  16.367   2.148  0.1031  0.2841  0.0006
 8520W        W24781   1.058  10.016  11.381 -0.1796  0.0640  0.2955
 8521W        W24782  16.960  12.529   3.417 -0.0376  0.3430 -0.0315
 8522W        W24783  13.098  11.841  13.828 -0.0535 -0.0148 -0.2650
 8523W        W24784   6.857  15.709   0.045 -0.0698 -0.0341 -0.1046
 8524W        W24785   5.277  14.354   5.019 -0.3205  0.1777 -0.2798
 8525W        W24786  14.909  11.214  11.770 -0.0676  0.2195  0.0479
 8526W        W24787  18.437  13.429   0.327 -0.1371  0.2911 -0.2213
 8527W        W24788  11.032  18.476   2.877 -0.3285  0.1733  0.0237
 8528W        W24789  17.394  15.105   3.645 -0.1481 -0.0835 -0.0307
 8529W        W24790  13.177   8.673   4.102  0.0364  0.0686  0.1416
 8530W        W24791  14.511  18.110  11.547  0.0313 -0.2555  0.0977
 8531W        W24792   1.719   0.693  13.185 -0.1625 -0.3151 -0.2585
 8532W        W24793   7.444   1.237   3.812  0.2651  0.0286  0.1984
 8533W        W24794   5.434   3.514   4.730 -0.3236  0.1041  0.0882
 8534W        W24795  10.259   8.778   0.331  0.5292 -0.1921 -0.2455
 8535W        W24796  15.480  18.487  14.592  0.0487  0.0298  0.0506
 8536W        W24797  17.357   4.689   4.710  0.0903  0.2801 -0.1007
 8537W        W24798   1.120  11.450  11.483 -0.2975 -0.2025  0.0791
 8538W        W24799  14.850  12.863  13.200  0.1999  0.2174  0.0158
 8539W        W24800  15.777  15.010   4.884 -0.0001  0.0931 -0.1531
 8540W        W24801  13.322   6.694  10.974  0.4021  0.0849  0.0608
 8541W        W24802   5.945   1.792   2.438  0.3223 -0.0070 -0.0729
 8542W        W24803  10.925   4.628  14.502 -0.0846 -0.0181 -0.0952
 8543W        W24804  11.620   9.086   4.805  0.0540  0.0747 -0.3583
 8544W        W24805   0.816  13.425   2.654 -0.5040 -0.0277 -0.0973
 8545W        W24806   9.801  11.724   0.513  0.0002  0.3049 -0.0062
 8546W        W24807  13.010   4.031   1.245 -0.0353  0.0699 -0.2333
 8547W        W24808  17.885   5.986   5.231 -0.1996  0.1554  0.0592
 8548W        W24809   2.960  14.195  11.704  0.1864  0.2227  0.1825
 8549W        W24810  11.308   2.482   0.179  0.1879  0.2085  0.1838
 8550W        W24811   9.468  17.384   0.410  0.0675  0.1219  0.1264
 8551W        W24812   5.770   9.667  15.238  0.1444 -0.0581  0.1547
 8552W        W24813   3.395   3.415   0.555 -0.1763  0.1950  0.4180
 8553W        W24814   1.841  15.863   3.051  0.1875 -0.0102 -0.3211
 8554W        W24815   5.359   7.577  12.717  0.1382  0.0959 -0.2874
 8555W        W24816   8.493   8.207  12.337  0.1807 -0.0233  0.0549
 8556W        W24817   1.695   0.928  12.061  0.2709 -0.1808  0.1533
 8557W        W24818   9.550   0.691   3.915 -0.0058  0.0204 -0.3849
 8558W        W24819   7.215   5.070   5.621  0.0857 -0.0811 -0.0421
 8559W        W24820   5.902   5.080   4.067  0.2483 -0.0367  0.0064
 8560W        W24821   9.267   2.398   1.420  0.0221 -0.0402 -0.1546
 8561W        W24822  16.797   6.806  15.551  0.0491  0.3444 -0.2444
 8562W        W24823   8.433  15.683  11.627  0.0989 -0.0416  0.0044
 8563W        W24824   7.121   6.328  12.015 -0.0319  0.1622 -0.0283
 8564W        W24825  12.819   5.474   0.023  0.2613 -0.0536  0.3396
 8565W        W24826  16.739   6.291  13.206 -0.0369 -0.3786  0.0597
 8566W        W24827  15.910  13.069  10.976 -0.0864  0.0521  0.1817
 8567W        W24828  11.759  17.732   2.409 -0.1735 -0.0438 -0.0599
 8568W        W24829  14.962   1.948   1.491 -0.1615 -0.0556  0.4009
 8569W        W24830  17.624   0.744   2.501  0.3273 -0.0203 -0.2892
 8570W        W24831  13.361   2.882  14.217  0.0896 -0.4128  0.3339
 8571W        W24832   5.661   3.600  12.368  0.1626  0.0537  0.1601
 8572W        W24833   8.430   4.059  12.106  0.1335  0.1968 -0.0848
 8573W        W24834  12.148   8.255  11.285  0.2080  0.1561 -0.4163
 8574W        W24835  12.006   8.826   1.564 -0.1533  0.1373 -0.1471
 8575W        W24836  17.698   1.193   0.745 -0.1068 -0.1868  0.2731
 8576W        W24837  16.184  18.371   0.342 -0.2119 -0.1791 -0.0297
 8577W        W24838  13.230   2.267  14.742 -0.0426 -0.2661  0.0492
 8578W        W24839  16.451  10.142  14.409  0.0448 -0.2050  0.0444
 8579W        W24840   0.580   4.263   4.123 -0.0549  0.0197  0.0230
 8580W        W24841   3.117   8.716   4.540  0.2384 -0.1572  0.3296
 8581W        W24842  11.344   0.769   3.183  0.0440 -0.0300  0.2106
 8582W        W24843   8.607   6.074  14.278 -0.0659 -0.0308  0.3275
 8583W        W24844   1.791  10.715  14.704 -0.1961 -0.0181 -0.1203
 8584W        W24845   2.848  14.098   3.276 -0.1470  0.3015 -0.0066
 8585W        W24846  13.573  11.306  13.183  0.0476  0.0547 -0.0161
 8586W        W24847  12.845   5.514  14.031 -0.0595  0.0743  0.0154
 8587W        W24848  11.897  10.298  11.517  0.3358  0.1872 -0.0626
 8588W        W24849  13.806  14.746   4.642  0.1800  0.0839 -0.2304
 8589W        W24850   7.004  11.118   3.931  0.0380  0.0226  0.0504
 8590W        W24851  11.429   5.056   4.094  0.1667 -0.2410  0.0260
 8591W        W24852  15.199   5.404  14.037 -0.3786 -0.0887 -0.2248
 8592W        W24853  16.128   0.482  14.767  0.1630 -0.0989 -0.1755
 8593W        W24854  14.209  11.034  14.100  0.0245  0.4963  0.0060
 8594W        W24855   9.310   3.293  12.592 -0.1985  0.1761 -0.1192
 8595W        W24856  12.664  18.342   3.984 -0.0548  0.2797 -0.0796
 8596W        W24857  11.042  15.779   4.995 -0.0056  0.2444  0.1766
 8597W        W24858  16.293   0.305   3.549 -0.2175 -0.0651 -0.1763
 8598W        W24859   8.742   6.480   0.945  0.1571 -0.1085  0.4516
 8599W        W24860   7.374  10.199  14.132 -0.0775  0.1818 -0.3357
 8600W        W24861  15.461   5.300  10.562 -0.0477  0.0149 -0.1405
 8601W        W24862  12.029   9.134   0.768 -0.1426 -0.0346  0.1770
 8602W        W24863  16.453   4.542   5.028  0.2013 -0.0654 -0.1129
 8603W        W24864   4.772  14.428   3.428 -0.1731 -0.3365 -0.1000
 8604W        W24865  15.185  16.223   5.646  0.0216 -0.0321  0.1202
 8605W        W24866  17.297   2.061   0.596 -0.2303 -0.3580  0.3040
 8606W        W24867   1.568   8.737  14.589 -0.2734  0.3055  0.2432
 8607W        W24868  12.993   8.147   0.994 -0.1869 -0.3485  0.1291
 8608W        W24869  15.486  16.550   2.322  0.3648  0.1695  0.1040
 8609W        W24870   6.887  17.435   4.510 -0.1016 -0.3084 -0.0332
 8610W        W24871  18.325  16.213   9.493 -0.4290 -0.0739  0.0085
 8611W        W24872  11.288   4.724  13.131  0.1801  0.1233  0.5490
 8612W        W24873  12.036   0.890  11.108 -0.0857 -0.3292  0.0994
 8613W        W24874   0.975   4.767   5.037  0.1166  0.0957 -0.0689
 8614W        W24875  18.307  18.695  11.694 -0.2590 -0.4145 -0.1151
 8615W        W24876  13.476   6.186   1.869  0.0658 -0.1451 -0.5004
 8616W        W24877  10.237   2.237   3.680 -0.0400 -0.0250 -0.2074
 8617W        W24878   2.998  14.863  12.875 -0.0820 -0.5669 -0.4323
 8618W        W24879   3.856  13.512   4.138  0.2009  0.0637 -0.0217
 8619W        W24880   4.217  12.937   5.958 -0.1095  0.1568  0.2397
 8620W        W24881   6.288  15.120  11.283 -0.0012 -0.5045 -0.0859
 8621W        W24882  15.462   6.754   3.723 -0.1164  0.3132  0.1723
 8622W        W24883  15.887  12.387  12.952  0.1321 -0.0858  0.0045
 8623W        W24884   7.756  11.547  12.068 -0.0544  0.3090  0.0318
 8624W        W24885   6.739   0.723   1.383 -0.1085  0.5432  0.1730
 8625W        W24886  17.499   4.137  13.860 -0.1701 -0.2833  0.1400
 8626W        W24887   6.958   2.493   0.616 -0.1521  0.1012 -0.2186
 8627W        W24888  10.394   0.436  14.227 -0.1177  0.0683 -0.3073
 8628W        W24889   7.883   6.614  11.662  0.0429 -0.1897 -0.1253
 8629W        W24890   0.105  18.204  12.067 -0.1363 -0.2123  0.0980
 8630W        W24891  15.844  18.514  10.044  0.1976  0.1614  0.1582
 8631W        W24892   1.200   2.796   2.298  0.0533  0.0002 -0.2657
 8632W        W24893   0.247   7.685   2.542 -0.1517 -0.2055 -0.1343
 8633W        W24894   0.647  18.037   0.820  0.2620 -0.1184 -0.4182
 8634W        W24895   2.633  18.636   3.379 -0.0518  0.0556 -0.2670
 8635W        W24896   5.415  18.592  13.666 -0.1162 -0.0869  0.2219
 8636W        W24897   5.933  13.211   1.855  0.0126 -0.0844 -0.3062
 8637W        W24898  15.547  18.729   2.949  0.2016  0.0412  0.0077
 8638W        W24899  17.983  14.352   4.362 -0.1062  0.0439 -0.0076
 8639W        W24900   4.587  16.797   1.908  0.1617  0.1203  0.0754
 8640W        W24901   8.195  18.609   2.899 -0.1113  0.1272 -0.0196
 8641W        W24902  14.991  10.188  11.978 -0.1197 -0.0840  0.2174
 8642W        W24903  12.339  11.723  10.722 -0.2148  0.2693  0.0213
 8643W        W24904  12.083   9.296   5.326  0.5436  0.0414 -0.1563
 8644W        W24905   8.942   0.078   1.814  0.0440 -0.3209  0.2316
 8645W        W24906   8.691  12.949   4.472 -0.1439 -0.1001  0.0078
 8646W        W24907  17.885   2.299   3.877  0.0622  0.1566 -0.0439
 8647W        W24908   4.593   8.040  13.969  0.0760  0.0891 -0.1077
 8648W        W24909   2.588   8.688   5.028 -0.1775 -0.0253  0.0114
 8649W        W24910  11.250   2.644   2.536  0.0855  0.1549  0.1879
 8650W        W24911  15.934   2.958  14.013  0.1922  0.2947  0.3210
 8651W        W24912  16.581  13.850  12.450 -0.1544 -0.4996  0.0794
 8652W        W24913  16.068  10.478  13.085 -0.1978  0.2008  0.1649
 8653W        W24914  14.576  12.393   3.370  0.0759  0.1554 -0.1530
 8654W        W24915  18.728   9.451   1.452  0.0548  0.1140  0.1073
 8655W        W24916   0.580   3.960  14.581 -0.3382 -0.0498 -0.2011
 8656W        W24917  17.332   8.434  12.768  0.1910  0.3614 -0.1687
 8657W        W24918  16.436  11.740  12.651 -0.1525  0.0169  0.1278
 8658W        W24919   3.923  18.520  11.189  0.1794  0.0175 -0.1265
 8659W        W24920  17.270   2.381   0.201 -0.1542  0.0620  0.1561
 8660W        W24921   0.069   9.913   1.629 -0.4058 -0.0027 -0.0992
 8661W        W24922   1.271  18.380  10.642 -0.0603  0.0040 -0.2524
 8662W        W24923   5.437  12.222  13.732 -0.1001  0.0042  0.2335
 8663W        W24924  10.158  10.820   0.369  0.2324  0.1512  0.1282
 8664W        W24925  14.817   8.378  12.962 -0.0981  0.1681  0.0825
 8665W        W24926   4.193   9.515  14.488  0.2145 -0.2834  0.1574
 8666W        W24927   9.798  12.492  13.759 -0.2447  0.0195 -0.0537
 8667W        W24928  13.688   2.446   1.146  0.3550  0.0509 -0.2289
 8668W        W24929   1.574  10.246  14.713  0.3030  0.0093 -0.1015
 8669W        W24930   3.351   9.422   0.502 -0.1268 -0.3149  0.2351
 8670W        W24931   4.843   9.450   4.365 -0.0874  0.3547 -0.1075
 8671W        W24932  10.962   3.058   2.421 -0.4282 -0.0419  0.0942
 8672W        W24933  13.369  10.810  13.112  0.1663  0.0986 -0.1361
 8673W        W24934   0.879   2.718  15.593 -0.1199  0.0857  0.1680
 8674W        W24935  17.394  13.421  14.693 -0.1130 -0.0112 -0.3783
 8675W        W24936   6.985  18.629   3.492  0.5317 -0.0637 -0.1027
 8676W        W24937   7.982  15.607  14.544  0.0102 -0.2549 -0.0814
 8677W        W24938   9.057  12.593  11.099  0.0460 -0.0642  0.1946
 8678W        W24939   5.780  18.814  12.458 -0.1787 -0.1986 -0.2811
 8679W        W24940   0.731   1.887   1.269 -0.0167  0.2574  0.0743
 8680W        W24941  15.391  12.479  13.945 -0.3055 -0.1181  0.0594
 8681W        W24942   8.071   7.299   4.211 -0.0084 -0.3687  0.0248
 8682W        W24943  16.712  17.120   1.890 -0.0609  0.2616  0.0647
 8683W        W24944   2.794   3.751  14.343 -0.1171  0.3514  0.4954
 8684W        W24945  10.325  12.062   2.054  0.0429  0.2212 -0.2176
 8685W        W24946  17.982  18.112  12.354  0.1385 -0.0056  0.2479
 8686W        W24947   3.058   7.224  13.712  0.1681  0.3531 -0.1685
 8687W        W24948   8.714  16.480  11.017  0.0632  0.3347 -0.3766
 8688W        W24949   8.961   4.306   3.271 -0.2394  0.1227 -0.0790
 8689W        W24950  17.230  16.847   3.961  0.0306  0.2098  0.0136
 8690W        W24951  16.188  17.911   2.717  0.4979 -0.1429  0.1992
 8691W        W24952  12.418   5.246  13.781  0.2131  0.0311 -0.1210
 8692W        W24953   7.261   4.586   3.069  0.1077 -0.1401 -0.0497
 8693W        W24954   9.593   8.546  13.785  0.2608  0.2007 -0.1597
 8694W        W24955   9.585   0.817  14.514 -0.0328 -0.2147  0.0419
 8695W        W24956   6.694   9.379   0.583  0.1013 -0.2256  0.0759
 8696W        W24957   2.127  10.933  10.255  0.1978  0.0335 -0.2418
 8697W        W24958  13.703  11.816  11.679 -0.0147  0.1658 -0.0283
 8698W        W24959  15.408  12.824   1.016  0.0589  0.3393  0.1925
 8699W        W24960   9.357  13.124  12.963 -0.2920  0.0871  0.0301
 8700W        W24961  17.287   8.255  12.221 -0.2355  0.0934  0.2309
 8701W        W24962   6.216   0.065   5.750  0.0186 -0.0700  0.3965
 8702W        W24963  10.806   1.137  12.688 -0.1376 -0.3667 -0.1496
 8703W        W24964   3.312  14.007   1.869  0.0301  0.2769 -0.0671
 8704W        W24965  16.079   8.048   3.852  0.1336  0.3302  0.3108
 8705W        W24966  17.756   7.447   0.453 -0.0801  0.0779  0.1673
 8706W        W24967  11.800  10.781  15.368  0.2249  0.1154  0.1887
 8707W        W24968  11.479   9.788  12.452  0.3191  0.1737  0.2203
 8708W        W24969   0.168  12.069   5.991 -0.1081  0.3323  0.0863
 8709W        W24970  17.336   2.203   2.430 -0.2016  0.1563 -0.2265
 8710W        W24971   7.658   7.199  14.955 -0.0611  0.3678 -0.1038
 8711W        W24972  17.358  18.067   4.550 -0.0858 -0.0816  0.0030
 8712W        W24973   2.621   4.228   5.253  0.3314  0.0381 -0.0194
 8713W        W24974  17.308  17.157   2.088  0.2871  0.2015 -0.1942
 8714W        W24975   2.440   6.964  14.770  0.1277  0.1759 -0.2160
 8715W        W24976  17.772   5.267  14.814 -0.0379 -0.0475 -0.2870
 8716W        W24977   9.514   4.357   1.228  0.0079 -0.0279 -0.2939
 8717W        W24978   6.209  14.006   0.330  0.2031  0.1639  0.2132
 8718W        W24979  18.378   8.766  10.499  0.0332 -0.1614 -0.0226
 8719W        W24980  12.763   6.563  15.018  0.0763  0.0254 -0.0806
 8720W        W24981   4.535  11.426  11.767 -0.0352  0.1277 -0.2120
 8721W        W24982  16.426   1.911   0.332 -0.0918 -0.2450  0.1330
 8722W        W24983   6.109   3.965   5.328 -0.1654 -0.2189 -0.1579
 8723W        W24984   9.209   8.374   0.430  0.1225  0.1019  0.1173
 8724W        W24985  12.177  11.756  15.179 -0.2119 -0.0769 -0.2389
 8725W        W24986  13.657   5.302   3.191  0.0523 -0.0400 -0.1223
 8726W        W24987   0.267  15.187  10.710 -0.4357 -0.0005  0.0281
 8727W        W24988   8.049  17.716   6.067  0.0226 -0.7006  0.0618
 8728W        W24989   5.579  12.413   4.509 -0.1936 -0.1981 -0.2848
 8729W        W24990   5.966   0.471  15.395  0.1676  0.2478  0.1298
 8730W        W24991  16.898  14.423  13.510  0.3430 -0.0173 -0.0098
 8731W        W24992   5.804  16.600  15.459  0.0501 -0.4070  0.1812
 8732W        W24993   8.431   3.282   6.707 -0.0638  0.3410  0.0990
 8733W        W24994  10.632  13.611  13.170 -0.0062 -0.0485  0.2382
 8734W        W24995   4.188  13.817   4.513  0.2356 -0.1270 -0.0424
 8735W        W24996   4.984   2.450   4.269 -0.0994  0.1802  0.0147
 8736W        W24997   3.532   1.554  13.007  0.0010 -0.0040  0.3473
 8737W        W24998   2.947   3.641  12.290 -0.2588  0.0217 -0.0626
 8738W        W24999   4.700   1.915  12.090 -0.4196 -0.2003 -0.0203
 8739W        W25000   7.195  11.415  15.527  0.0328 -0.0433 -0.1903
 8740W        W25001  14.863   2.204  12.476 -0.0149  0.1534  0.2582
 8741W        W25002   3.843   7.241  14.780 -0.1156  0.2445  0.0345
 8742W        W25003  16.288   2.308   3.165  0.2842 -0.2118 -0.1752
 8743W        W25004   2.143   3.475  11.635 -0.3091 -0.1156  0.0663
 8744W        W25005  18.470  12.343  14.059 -0.2251 -0.1930 -0.3623
 8745W        W25006  12.138  16.733   0.572 -0.6004  0.1667 -0.4128
 8746W        W25007   6.051   2.296  13.838 -0.0310  0.0709 -0.1254
 8747W        W25008  10.841  15.359  13.690  0.4928  0.0834 -0.0202
 8748W        W25009   3.167   7.041   1.742  0.2745  0.3825  0.1156
 8749W        W25010   7.066   5.728   5.022  0.1110  0.0355 -0.0631
 8750W        W25011  10.172  14.550   5.057  0.2035  0.0819  0.2874
 8751W        W25012  11.715   5.889  12.369 -0.2037 -0.0271  0.0742
 8752W        W25013  10.240  14.522   3.662  0.0061  0.1742  0.0583
 8753W        W25014  17.446   2.274  11.250  0.0057 -0.2448  0.0957
 8754W        W25015   6.642   3.266   5.240  0.0574  0.0860  0.0876
 8755W        W25016   4.049   7.851   1.495 -0.3315  0.0089 -0.0317
 8756W        W25017   1.557  10.601   0.170 -0.0904 -0.1126 -0.0206
 8757W        W25018   2.011   8.517  12.229 -0.0821  0.0432 -0.2861
 8758W        W25019  18.427   7.069   2.929 -0.3474  0.0704 -0.0462
 8759W        W25020  12.264   8.556  14.739 -0.1286  0.1759  0.0900
 8760W        W25021  12.499   8.061   0.104 -0.1247 -0.0814 -0.0999
 8761W        W25022   0.206   3.648   1.647 -0.0884 -0.0244  0.2488
 8762W        W25023   7.261   3.238   4.543  0.0270 -0.0142  0.1927
 8763W        W25024  14.804   8.074   4.975  0.1510  0.1560  0.1749
 8764W        W25025  15.195  15.817  12.383  0.0210 -0.2842 -0.1979
 8765W        W25026   1.797   0.440   9.589  0.0661  0.0224  0.0261
 8766W        W25027  12.884  13.352  14.017  0.2481  0.1644 -0.0857
 8767W        W25028   1.077  18.512   5.222  0.2781  0.1256 -0.1369
 8768W        W25029   8.711  15.180   1.284 -0.2291 -0.1347  0.0746
 8769W        W25030   0.891   6.851   3.491 -0.0160  0.1053  0.0222
 8770W        W25031   3.106  12.492  15.501  0.0400  0.0084 -0.0004
 8771W        W25032   8.968  11.368  13.916 -0.2647  0.0733 -0.0157
 8772W        W25033  14.318  17.759  15.222  0.4047 -0.0476 -0.0022
 8773W        W25034   2.308   3.679   5.485 -0.1875 -0.1963  0.2246
 8774W        W25035   1.601   9.230  11.310  0.1761 -0.0343 -0.0347
 8775W        W25036  12.451  13.042   2.488 -0.0288 -0.0047  0.0583
 8776W        W25037   3.459   6.852   1.046  0.1479  0.0643  0.2373
 8777W        W25038  15.071  15.962  12.942  0.3446  0.3835 -0.1099
 8778W        W25039   2.767  11.200   9.572 -0.0153  0.0856 -0.1734
 8779W        W25040  18.057  17.260  12.384  0.1846 -0.0781  0.2475
 8780W        W25041   4.525   4.134  14.536 -0.2444  0.0619  0.2548
 8781W        W25042  15.265  11.217   1.631 -0.2527  0.0425  0.1132
 8782W        W25043   2.951  10.817   2.642 -0.0941 -0.0963 -0.3979
 8783W        W25044   7.723  16.727   2.020  0.3790 -0.2534  0.0886
 8784W        W25045  10.854  13.282  11.129 -0.1489 -0.3403  0.1214
 8785W        W25046   0.167  10.589   3.549 -0.1794  0.0046  0.1022
 8786W        W25047  13.322   3.207  14.580 -0.0500 -0.1873 -0.1608
 8787W        W25048  12.150  15.235  13.958 -0.0607 -0.1733  0.1966
 8788W        W25049  17.896   5.161   2.663  0.1325  0.1530  0.2409
 8789W        W25050   1.243  14.959  11.229 -0.0616  0.0815  0.1946
 8790W        W25051  16.584   6.386  11.284  0.1572  0.2985  0.0800
 8791W        W25052   9.053  11.994  10.396  0.0711 -0.2650  0.0408
 8792W        W25053   2.541  10.641   4.285 -0.2092 -0.3577 -0.2149
 8793W        W25054  10.388  10.348  15.046  0.0138 -0.1936 -0.0622
 8794W        W25055   9.949   4.685  14.572 -0.1136 -0.2329 -0.3361
 8795W        W25056  11.721  11.962  15.359  0.2212 -0.2352 -0.1505
 8796W        W25057   8.865   5.615  15.615 -0.2190 -0.1530  0.0033
 8797W        W25058   0.831   7.818  12.638 -0.0930 -0.1350  0.0091
 8798W        W25059   1.753   6.333  11.349  0.3081  0.1793 -0.0184
 8799W        W25060  15.738  16.554  12.592 -0.2503 -0.3471  0.4928
 8800W        W25061  13.171   7.119   1.099  0.0138 -0.1190  0.0574
 8801W        W25062   8.603   4.475   5.731 -0.1419  0.1408  0.1259
 8802W        W25063   1.704   7.423   2.650 -0.1415 -0.0892  0.2340
 8803W        W25064  14.365  17.826  14.097  0.1432 -0.0247 -0.3233
 8804W        W25065   8.588  11.427   5.914  0.0184  0.3896  0.0534
 8805W        W25066   7.900  13.536   5.973 -0.0125 -0.0937 -0.0140
 8806W        W25067  14.874   9.574   2.480  0.5776 -0.0439  0.3228
 8807W        W25068  18.020   5.149   5.739 -0.1612 -0.0761 -0.1339
 8808W        W25069  17.211   1.475   4.175 -0.4210  0.1498 -0.1217
 8809W        W25070  15.368  12.919  11.107 -0.0170  0.2938 -0.4609
 8810W        W25071   2.858   8.824   2.236  0.0044  0.3792  0.0976
 8811W        W25072  14.638  10.530   0.327  0.0355 -0.0375  0.3727
 8812W        W25073  15.377   1.263  13.173 -0.1387 -0.1560  0.0497
 8813W        W25074   0.593  17.177  10.998  0.3585  0.1055 -0.2406
 8814W        W25075  12.899  16.445  15.531  0.1378  0.1082  0.0411
 8815W        W25076   5.753  17.790  13.678  0.3033 -0.1439 -0.3223
 8816W        W25077   1.806   8.668   3.805 -0.2112 -0.2726 -0.3059
 8817W        W25078   3.278   7.843  15.454 -0.1162 -0.4595  0.2314
 8818W        W25079  18.005  16.987  11.428 -0.3865 -0.2214 -0.2490
 8819W        W25080   0.619  14.480  14.194 -0.1851 -0.0316  0.1532
 8820W        W25081  13.601  11.093   4.072  0.0574  0.0008 -0.0763
 8821W        W25082  14.302   7.174  13.317 -0.0570  0.0130 -0.2116
 8822W        W25083   9.200  15.062  14.136  0.2824 -0.1325 -0.1790
 8823W        W25084  15.162   6.386   5.163 -0.1154  0.1213  0.3882
 8824W        W25085  17.864   8.804  14.324  0.1112 -0.3310  0.0993
 8825W        W25086  10.706  15.399  12.369 -0.1487  0.1931 -0.2093
 8826W        W25087   2.510  16.572  14.559 -0.3411 -0.2833 -0.0712
 8827W        W25088  15.681  12.066  11.895  0.1909  0.2696 -0.0165
 8828W        W25089   3.572   6.774  12.134  0.1603  0.1181 -0.1575
 8829W        W25090   8.521   3.767  13.893 -0.2587 -0.1070  0.0527
 8830W        W25091   0.497   1.997  12.446  0.0896  0.1531 -0.2209
 8831W        W25092  13.076  14.530   3.989 -0.3621  0.0725  0.2249
 8832W        W25093  13.839   7.003  13.139  0.2132 -0.5129  0.0013
 8833W        W25094   7.644  10.627  10.242  0.2160 -0.2876 -0.0060
 8834W        W25095  12.620  17.612  12.641 -0.2486  0.0302  0.1018
 8835W        W25096   7.831  13.451  12.329 -0.2598 -0.0996 -0.2403
 8836W        W25097   3.455  12.466  13.535  0.2605 -0.0296 -0.0698
 8837W        W25098  18.127   3.454  11.991  0.3588 -0.0664  0.1147
 8838W        W25099  14.335  14.354  15.533  0.1003 -0.0415 -0.0864
 8839W        W25100  12.957  13.570   1.368  0.0607  0.1575  0.1544
 8840W        W25101  11.834  18.021  15.114  0.0178  0.1064 -0.0021
 8841W        W25102   3.031   9.327   1.752 -0.0739  0.3493  0.1611
 8842W        W25103   9.843  17.514  12.650 -0.0708  0.1224  0.0097
 8843W        W25104  14.057  11.004   0.677 -0.1531 -0.0815 -0.1551
 8844W        W25105  13.558   5.597   1.150  0.0843 -0.0826  0.1101
 8845W        W25106   3.886  11.866   0.061  0.0582 -0.0096  0.0404
 8846W        W25107  18.784  16.717  14.126 -0.0861 -0.2975  0.4406
 8847W        W25108  10.241   0.278   3.635 -0.1274  0.1139 -0.0101
 8848W        W25109   6.532   8.939   2.014  0.3675  0.1158 -0.0989
 8849W        W25110   2.203  11.254   0.153 -0.0692  0.2578  0.1122
 8850W        W25111  17.585   2.551   0.602  0.0139  0.2382  0.2728
 8851W        W25112  18.064   7.803   3.132 -0.0299 -0.2903  0.2839
 8852W        W25113  11.894   9.047  12.053  0.1015 -0.2734  0.0481
 8853W        W25114   2.766   5.833   2.256  0.2976 -0.1150 -0.0729
 8854W        W25115  16.882   8.333  14.245 -0.0430  0.0193 -0.2300
 8855W        W25116  14.436  11.414  12.181  0.1603  0.0230 -0.0040
 8856W        W25117  18.513  11.892  10.361 -0.1741 -0.3221  0.3297
 8857W        W25118  11.389   5.476   2.011  0.1010  0.0837 -0.1913
 8858W        W25119  18.314   6.636   0.654  0.1338  0.1245  0.1058
 8859W        W25120   2.564   6.328   1.792 -0.3586  0.0813  0.0147
 8860W        W25121   8.820   7.025  11.435  0.3307  0.2057  0.3422
 8861W        W25122  15.231  18.620   0.685  0.2628  0.1793 -0.4056
 8862W        W25123   9.548  14.875  11.723  0.3485 -0.3268 -0.0342
 8863W        W25124  15.362  10.134  12.982  0.1200 -0.2193 -0.1368
 8864W        W25125   9.513   9.512   4.716 -0.1410 -0.2699  0.0977
 8865W        W25126   0.618  11.493   1.308 -0.0113 -0.0905  0.2652
 8866W        W25127   4.331   7.490   3.156  0.1400  0.1494  0.3095
 8867W        W25128   8.474   2.620   3.284  0.0334 -0.1395  0.0394
 8868W        W25129  14.840   8.304   0.454 -0.0726  0.0193 -0.0863
 8869W        W25130   2.487   5.738  15.355 -0.0716  0.1194  0.2999
 8870W        W25131  14.868   4.237   3.348  0.0403  0.2507  0.5006
 8871W        W25132  13.262   8.853   2.993 -0.1682  0.0368 -0.0851
 8872W        W25133  10.028  17.516   1.254  0.0940  0.1033  0.2926
 8873W        W25134   2.661   0.428   3.397 -0.0036 -0.2035 -0.0508
 8874W        W25135  10.331  15.883   4.716  0.1528 -0.0660 -0.0051
 8875W        W25136  12.051  14.630   4.937  0.0599  0.0326 -0.1251
 8876W        W25137  12.530   2.373  12.113 -0.6274 -0.2306 -0.1252
 8877W        W25138   4.381   1.646   4.534  0.0223  0.0809  0.1175
 8878W        W25139   2.182   9.629  12.060  0.1231 -0.0912  0.1908
 8879W        W25140  17.989  12.561   3.855 -0.1793 -0.1297  0.3443
 8880W        W25141  16.251  13.183  10.587 -0.2040  0.2095  0.0491
 8881W        W25142   5.148  10.208  13.996  0.0828  0.0543  0.1366
 8882W        W25143  11.522   1.729  14.991 -0.0788 -0.1598  0.1489
 8883W        W25144   7.397  17.820   3.306  0.0228 -0.2995 -0.1464
 8884W        W25145   7.720  16.699  15.611 -0.0076  0.1927 -0.2939
 8885W        W25146   2.124  17.190   3.710 -0.1664 -0.1445  0.2445
 8886W        W25147   1.851   1.466   4.019  0.1024 -0.1633  0.2345
 8887W        W25148   2.574  15.060  11.430 -0.1742  0.0104 -0.0142
 8888W        W25149   2.167  16.632   5.154  0.0547  0.1770 -0.0533
 8889W        W25150   9.842  13.660   3.726 -0.2039 -0.0450  0.2193
 8890W        W25151   2.942  17.241  13.107 -0.0111 -0.3163 -0.0627
 8891W        W25152   3.590   3.639   0.131 -0.0101  0.0907  0.1767
 8892W        W25153  15.947   6.349  11.296  0.2669  0.3872  0.3679
 8893W        W25154  13.683   3.893   3.170  0.1038 -0.4745  0.1868
 8894W        W25155   9.037   0.856  12.721 -0.0485 -0.1129 -0.2331
 8895W        W25156  13.558  16.113   2.144 -0.4794  0.1952  0.1229
 8896W        W25157  13.912   6.204  13.897 -0.2590  0.2025 -0.0480
 8897W        W25158   5.297   5.182   3.378 -0.1914 -0.1578 -0.1616
 8898W        W25159   7.029   9.986  12.021 -0.0374 -0.1006 -0.0972
 8899W        W25160  17.042   0.455  12.088 -0.0465 -0.1133 -0.0023
 8900W        W25161   2.528   7.901  11.516  0.1145  0.0236  0.1469
 8901W        W25162  18.589  17.345  14.509 -0.1051 -0.1682 -0.0916
 8902W        W25163  15.137   2.236   2.461  0.0274 -0.1527  0.2141
 8903W        W25164   3.262   3.873   0.655  0.2533 -0.0882  0.1006
 8904W        W25165  15.293  17.287  13.343 -0.0556  0.2070 -0.2233
 8905W        W25166   9.201   9.456   2.468 -0.2485  0.0991  0.1581
 8906W        W25167  16.559   5.489   1.292  0.2310 -0.0014 -0.0681
 8907W        W25168  15.041   7.576  13.377 -0.0971  0.2623 -0.1176
 8908W        W25169   9.415   9.408   4.213 -0.0396  0.0374 -0.0211
 8909W        W25170   4.176  14.300  15.347 -0.0876 -0.0591  0.0272
 8910W        W25171  18.788   6.078  11.128  0.1327 -0.0317  0.0387
 8911W        W25172   4.122  12.290   5.933  0.4070  0.0371  0.1423
 8912W        W25173   7.883   6.424   5.091 -0.1744  0.0956 -0.0544
 8913W        W25174   0.211   0.027   5.102  0.1651 -0.2102 -0.3899
 8914W        W25175   5.190   3.415   3.231 -0.0360  0.1258  0.1402
 8915W        W25176   7.557   1.219  14.648 -0.0142 -0.0940  0.2884
 8916W        W25177   2.177  16.527  11.878  0.3632  0.0020  0.3668
 8917W        W25178   0.978  10.563   0.885 -0.1555 -0.2758  0.1755
 8918W        W25179   0.390   4.237  14.187  0.3259 -0.2735  0.1072
 8919W        W25180   2.965   6.083   0.129  0.1134  0.1718  0.1933
 8920W        W25181   0.357   5.391  11.683  0.0314  0.1916  0.0365
 8921W        W25182   6.778   3.552   5.593  0.0370 -0.1727 -0.2647
 8922W        W25183   1.950   8.437  11.733  0.0220 -0.0524 -0.0473
 8923W        W25184  11.783  13.183   5.901 -0.0518 -0.0165  0.0511
 8924W        W25185  14.387  15.477   4.427 -0.1124  0.0623  0.3346
 8925W        W25186  14.470  17.160   4.950 -0.0268  0.0218  0.1642
 8926W        W25187   2.939  12.545  13.634  0.0783 -0.1213  0.0806
 8927W        W25188  14.490   1.631   3.052  0.0085  0.2084 -0.1081
 8928W        W25189   4.307  15.730  13.482 -0.2438 -0.1058  0.0386
 8929W        W25190  15.384   3.372  12.298 -0.4398  0.0276 -0.0122
 8930W        W25191  13.455   2.372   3.223 -0.1540 -0.1371 -0.4700
 8931W        W25192  12.303   4.804  13.854  0.1241  0.2712 -0.1704
 8932W        W25193  17.964   8.234  15.442  0.0833  0.3029  0.1370
 8933W        W25194   7.529  17.885  11.755  0.2122 -0.0778  0.1329
 8934W        W25195  12.502  18.671  14.681  0.2368 -0.1857  0.0056
 8935W        W25196  17.117   0.662   2.546 -0.1779 -0.1938 -0.0745
 8936W        W25197  16.760  10.429   4.254  0.1864  0.0370 -0.0162
 8937W        W25198  17.018  15.152  15.229  0.4681  0.2780  0.2099
 8938W        W25199  10.943  16.718  10.803  0.0684 -0.0851 -0.2108
 8939W        W25200   9.820   6.754   0.232 -0.0885  0.0489  0.0313
 8940W        W25201  15.188   9.938   2.146  0.2693  0.1995  0.3516
 8941W        W25202  12.839   5.511   3.773 -0.1881 -0.0574  0.3240
 8942W        W25203   1.638   5.868  13.815  0.3295  0.1266 -0.1495
 8943W        W25204   6.777   4.548   0.196 -0.2424  0.0255 -0.0464
 8944W        W25205   1.849  10.185   4.110 -0.2276 -0.3877  0.2308
 8945W        W25206   3.929  12.345  13.309  0.1799 -0.5343 -0.0295
 8946W        W25207  18.413  10.606   4.607 -0.1041 -0.0643  0.1086
 8947W        W25208  14.443   3.385  14.384  0.1698  0.3448 -0.0465
 8948W        W25209   4.995   1.149  12.993 -0.5075  0.0239  0.0506
 8949W        W25210   9.983  17.670  13.689 -0.0376 -0.1140 -0.1051
 8950W        W25211   4.173   6.967  12.181  0.4339 -0.1143 -0.1383
 8951W        W25212   6.362   2.705   1.760 -0.3141 -0.1761 -0.0283
 8952W        W25213   5.839   0.169  14.305  0.1640 -0.0279  0.0455
 8953W        W25214   0.360  11.400  13.004 -0.0873 -0.2016  0.1213
 8954W        W25215   1.594   0.170   2.602  0.1108  0.0794  0.0317
 8955W        W25216  16.113   6.227  13.777 -0.0848  0.2567  0.2190
 8956W        W25217   3.101  16.486  11.412 -0.0894 -0.2324  0.1822
 8957W        W25218   9.041   3.630  12.362  0.1590  0.4467 -0.2873
 8958W        W25219  11.346  17.515   2.152  0.0540 -0.0524  0.2366
 8959W        W25220   2.196   3.961  13.011  0.1949 -0.0644 -0.0490
 8960W        W25221  12.241   8.176  11.755  0.2780 -0.0902  0.1324
 8961W        W25222  17.540   9.904   1.357  0.0141  0.2631  0.3337
 8962W        W25223   1.207  14.809  15.029  0.3274 -0.1810 -0.1074
 8963W        W25224   1.112   5.675   0.988  0.0775  0.0456  0.1600
 8964W        W25225  10.745   7.409   2.754  0.1328 -0.0940  0.3097
 8965W        W25226   7.267   3.020  13.157  0.0263 -0.0281 -0.1080
 8966W        W25227   1.899  16.125  12.340 -0.0594  0.2430  0.1641
 8967W        W25228   5.470  10.651   2.795  0.0780  0.5040  0.1811
 8968W        W25229  13.759   0.908   2.670  0.2045 -0.1737 -0.1510
 8969W        W25230  16.421   7.020  13.981  0.0322 -0.1008  0.3496
 8970W        W25231   4.217   8.189   2.394 -0.0862  0.3280  0.1946
 8971W        W25232   3.516   2.081   2.269 -0.2159  0.2714  0.1533
 8972W        W25233   4.781   3.219   3.429 -0.0647  0.0346 -0.1695
 8973W        W25234  16.816   0.402   4.040  0.0908  0.0731  0.0945
 8974W        W25235   1.696  15.457  10.915  0.0704  0.1740 -0.0677
 8975W        W25236  11.392   6.615   1.293 -0.0050 -0.4113  0.2948
 8976W        W25237  13.185   0.034   1.879 -0.0948 -0.0441  0.0191
 8977W        W25238  14.077   3.769  12.757 -0.0199  0.1510  0.0449
 8978W        W25239   1.850   1.859  12.473 -0.0298  0.1493  0.2452
 8979W        W25240  12.071  18.103  15.626 -0.1310 -0.3634 -0.3006
 8980W        W25241   7.678   4.451   0.668 -0.2177 -0.1280 -0.2023
 8981W        W25242  17.987  10.526   4.353 -0.1419 -0.0578  0.2075
 8982W        W25243  18.583   3.624   5.291 -0.3404 -0.2342 -0.3115
 8983W        W25244   6.376   9.408   3.175 -0.0813  0.0377 -0.0599
 8984W        W25245  11.703   1.972   1.387  0.4925 -0.2844 -0.1745
 8985W        W25246  11.582  14.756  15.453 -0.0174  0.1791  0.2396
 8986W        W25247   4.332   5.290   1.115 -0.1448  0.2338  0.2899
 8987W        W25248  10.354   1.519  15.167  0.0845 -0.0442  0.1287
 8988W        W25249  15.894  18.518  10.571 -0.0031  0.1433  0.0402
 8989W        W25250  12.107  16.704   2.427 -0.2055 -0.0096 -0.2878
 8990W        W25251   3.453  11.762   2.419  0.3346  0.0902 -0.1012
 8991W        W25252   4.009   7.125   5.357 -0.0409  0.1006  0.1414
 8992W        W25253   4.650   2.639   0.490 -0.1598  0.1276  0.2314
 8993W        W25254  11.080   4.089   2.078  0.2092 -0.0257  0.1482
 8994W        W25255   7.924   3.736  13.246  0.1178 -0.0248 -0.0802
 8995W        W25256   6.858   5.049  12.276  0.2669 -0.1887  0.0617
 8996W        W25257   6.593   6.692  11.885 -0.2617  0.1448 -0.3068
 8997W        W25258  12.745   6.476   0.658 -0.0366  0.1576 -0.2634
 8998W        W25259  14.912   8.692   2.702  0.0170 -0.0682  0.0222
 8999W        W25260  18.704   2.585   0.038  0.0201 -0.1050 -0.1960
 9000W        W25261   0.209  10.378   5.273 -0.0293 -0.1367  0.0188
 9001W        W25262  10.311  14.794  12.205 -0.1512 -0.2338 -0.1651
 9002W        W25263   3.208   2.659   2.502 -0.0706 -0.1127  0.1231
 9003W        W25264   5.587  16.038   5.579 -0.0331 -0.0552 -0.0117
 9004W        W25265  13.449   9.410  14.244  0.2957  0.0151 -0.3097
 9005W        W25266   0.927   9.200  13.795 -0.0248  0.1152  0.0710
 9006W        W25267  15.442   5.061   3.475 -0.1049  0.0762 -0.2940
 9007W        W25268   9.926   1.042  11.681  0.1153  0.0846  0.0366
 9008W        W25269   5.315  12.393   0.162  0.2932 -0.0217  0.0394
 9009W        W25270   1.295   3.521  13.094 -0.1033  0.0851 -0.0856
 9010W        W25271   6.942   8.900   0.052 -0.3651 -0.1158 -0.3501
 9011W        W25272   9.504  16.507   2.002  0.0285  0.2432 -0.1252
 9012W        W25273   8.713   9.087  14.641 -0.0219 -0.0630 -0.0906
 9013W        W25274   0.790  11.438   4.941  0.1537 -0.1158  0.0812
 9014W        W25275   6.115  16.284  12.654 -0.1530  0.0667 -0.0985
 9015W        W25276   6.324  18.375  13.009  0.0617  0.3596 -0.0648
 9016W        W25277   5.243  15.822   0.281  0.0748 -0.1664 -0.0927
 9017W        W25278  10.775   5.343   5.423  0.2491  0.0501  0.0907
 9018W        W25279  14.353  10.819  13.273  0.0754  0.2367 -0.0461
 9019W        W25280  13.517   0.516   5.579  0.2006  0.2689 -0.0466
 9020W        W25281   1.284  16.957  13.968 -0.0439 -0.0868 -0.1163
 9021W        W25282   4.560  11.228   4.780  0.1893 -0.0810  0.3145
 9022W        W25283   1.961   4.152   1.312 -0.2011  0.3743 -0.0005
 9023W        W25284   3.549  15.655  12.480 -0.2754 -0.1707  0.0420
 9024W        W25285   6.452   8.946   4.605 -0.4486 -0.0200 -0.0231
 9025W        W25286   3.588   9.045   0.866 -0.1329 -0.1051  0.0341
 9026W        W25287   2.445  11.891   3.138 -0.2490 -0.2869  0.2407
 9027W        W25288  17.402  12.274   1.948  0.3074  0.0184  0.1546
 9028W        W25289  14.353   4.054   4.842  0.1842 -0.1290  0.1176
 9029W        W25290  10.529  15.942  14.305 -0.2073 -0.0663  0.0147
 9030W        W25291  16.486   6.601  13.659  0.0041 -0.0459 -0.1445
 9031W        W25292   7.732   9.019   5.312  0.0071 -0.0352 -0.1324
 9032W        W25293   9.247   3.736  14.188  0.2509  0.0615  0.4747
 9033W        W25294   6.946   1.479  13.281  0.1067 -0.0318 -0.0532
 9034W        W25295  17.106  16.399  10.427 -0.0760 -0.2248 -0.2952
 9035W        W25296   4.085   1.658   1.675  0.0274  0.1634  0.2267
 9036W        W25297  13.727  16.739   4.778  0.0703  0.2671  0.0039
 9037W        W25298   2.420  11.775   0.361 -0.1091  0.2627  0.0040
 9038W        W25299  17.425  11.283  13.110 -0.0216  0.0552 -0.0226
 9039W        W25300  13.280   9.228   5.955  0.0402 -0.0152  0.1372
 9040W        W25301   9.177  13.529   3.740 -0.3110 -0.1599 -0.3648
 9041W        W25302   2.543   4.683   1.030 -0.4069 -0.2583  0.2418
 9042W        W25303   5.001  12.709   0.357 -0.0603 -0.1476 -0.0994
 9043W        W25304  15.651   7.606   1.228 -0.1308  0.1999 -0.0045
 9044W        W25305  11.768  16.952   1.653 -0.0813  0.1406 -0.3399
 9045W        W25306  13.121   6.713   2.951  0.0639 -0.4012  0.3787
 9046W        W25307  15.038   6.930  11.660 -0.1468  0.0638  0.0682
 9047W        W25308  12.107   2.813   2.534 -0.0595 -0.2017 -0.0331
 9048W        W25309   5.093  15.903  13.286  0.1300  0.3661  0.1814
 9049W        W25310   3.725  17.110  14.703 -0.2059  0.0532 -0.0846
 9050W        W25311   6.083   8.717   2.007  0.1676  0.1557 -0.1198
 9051W        W25312   5.539  17.277   0.930 -0.0610 -0.1131  0.0149
 9052W        W25313  15.489  14.670  12.629  0.2257  0.0414 -0.1125
 9053W        W25314   0.042   4.929  12.421 -0.1494 -0.0129  0.1342
 9054W        W25315  15.439   3.038  11.846  0.0245  0.3467  0.0094
 9055W        W25316   0.674   7.405  14.874  0.0415  0.3733  0.0718
 9056W        W25317  17.822   7.015  10.902  0.0202  0.0991  0.1197
 9057W        W25318   7.469  10.515   5.790 -0.1509 -0.0140 -0.2204
 9058W        W25319   2.019  15.559   4.081  0.0077  0.1413  0.0274
 9059W        W25320  13.032   3.288  13.256 -0.0845  0.0821 -0.1029
 9060W        W25321  15.861  10.577  10.904 -0.1811 -0.0777 -0.1888
 9061W        W25322  15.776  12.049   5.384 -0.2207 -0.0248  0.1617
 9062W        W25323   1.241  14.956   3.389  0.1040 -0.0444 -0.1690
 9063W        W25324   1.511   7.298   0.057 -0.0045  0.1212 -0.1400
 9064W        W25325  17.729   1.900   2.519  0.2898 -0.1819  0.0351
 9065W        W25326  12.631   4.007  10.723  0.1908 -0.0676 -0.0816
 9066W        W25327   2.413   0.579   3.827 -0.1893 -0.2538 -0.2024
 9067W        W25328   9.357  17.639  12.593 -0.0546  0.1797 -0.0098
 9068W        W25329  12.925   9.744   1.542  0.0012  0.0981 -0.2869
 9069W        W25330  14.430   7.245   2.969 -0.4358  0.2219 -0.4131
 9070W        W25331   4.470  18.232  15.043  0.4073  0.4149 -0.0898
 9071W        W25332   0.735  15.251   1.838 -0.3853 -0.1855 -0.0321
 9072W        W25333   6.240   9.722   0.904  0.5126 -0.1300  0.1018
 9073W        W25334  18.021  15.302   4.450 -0.0589  0.3732  0.0823
 9074W        W25335   8.479  10.766   4.403 -0.1277  0.0586 -0.2796
 9075W        W25336   9.044   8.426   4.618  0.0088  0.0865  0.5773
 9076W        W25337  17.714  16.685  12.965 -0.0925  0.2662 -0.0373
 9077W        W25338   7.086   9.838  14.150 -0.1285 -0.0364 -0.1126
 9078W        W25339   2.968   2.159  13.345 -0.0451  0.1898  0.1107
 9079W        W25340  14.082   4.384  15.627  0.2385  0.1465  0.1050
 9080W        W25341  13.595   0.534  12.234  0.0197  0.0092  0.0164
 9081W        W25342   5.158   2.911   1.417 -0.3565  0.2140  0.2123
 9082W        W25343  12.380  15.659   1.471 -0.3755  0.0285 -0.1406
 9083W        W25344  11.547   1.800   4.279  0.2291 -0.2690  0.2789
 9084W        W25345  15.211   7.550   3.799  0.0579 -0.0399  0.0036
 9085W        W25346   6.582   2.108  12.671  0.2358  0.2610  0.3537
 9086W        W25347   6.490   0.410  12.709  0.3406 -0.2114 -0.2091
 9087W        W25348   2.222   4.906   3.583  0.2765 -0.1135 -0.1477
 9088W        W25349  18.466  18.209  12.287 -0.1032 -0.3374 -0.2736
 9089W        W25350  18.556  13.981  12.427  0.0493  0.0168 -0.1705
 9090W        W25351   6.055  17.021  13.334  0.1749 -0.0344 -0.0879
 9091W        W25352  14.877   3.997  12.895  0.1852 -0.0018  0.2285
 9092W        W25353  14.420   0.650  12.453  0.1406 -0.1833  0.0553
 9093W        W25354  12.813   8.338   4.060 -0.1177 -0.3645  0.1064
 9094W        W25355  11.714   4.238  14.062  0.4685 -0.2112  0.1991
 9095W        W25356  18.694   8.029   2.670  0.2831  0.1407 -0.0187
 9096W        W25357  15.036   8.792   2.145 -0.5195  0.0576 -0.0402
 9097W        W25358  11.830   6.739  12.091 -0.2356 -0.1497  0.0715
 9098W        W25359   9.884  14.625   1.704 -0.1128  0.3053 -0.0775
 9099W        W25360   1.884  13.278   4.904 -0.0168 -0.2460  0.3747
 9100W        W25361  16.999   0.271  11.479 -0.1555 -0.0514  0.1941
 9101W        W25362   2.807   4.533  13.142  0.4330  0.0016 -0.3486
 9102W        W25363   9.782   5.550   0.813  0.0854 -0.2293  0.2107
 9103W        W25364   8.022   4.337  12.110  0.1586 -0.0077  0.1391
 9104W        W25365  12.079  15.810  15.191  0.1638  0.0035  0.0215
 9105W        W25366   8.621  11.221  13.478 -0.1768  0.0790 -0.1667
 9106W        W25367   7.056   2.072  12.962  0.2043 -0.0774  0.0731
 9107W        W25368  13.545  11.117   2.395  0.2483  0.1449 -0.2317
 9108W        W25369   4.630   6.328   3.336  0.1016  0.0518  0.2393
 9109W        W25370   2.110  18.813   0.241  0.2065 -0.2956 -0.3248
 9110W        W25371   8.550   1.597  13.061 -0.0104 -0.1100  0.0436
 9111W        W25372  14.451  14.846  14.220 -0.1612 -0.2576 -0.0306
 9112W        W25373   5.191  10.123   2.667 -0.0460  0.0096  0.0966
 9113W        W25374   8.393   6.795  15.043 -0.2461  0.1834  0.0766
 9114W        W25375   6.204   2.903   0.957  0.0013 -0.1026  0.0774
 9115W        W25376  17.564  12.378  13.635  0.3591 -0.1332  0.0056
 9116W        W25377   4.273   2.525  11.412 -0.1703 -0.1387 -0.1840
 9117W        W25378   5.076  15.207  15.561  0.2868 -0.1744 -0.0896
 9118W        W25379   4.782   5.179   2.736 -0.1294  0.1365 -0.0949
 9119W        W25380   9.049   9.671   4.476  0.0780  0.2447 -0.0666
 9120W        W25381   3.950   4.199   0.952 -0.1015 -0.1671 -0.2917
 9121W        W25382  14.213   8.105  14.175 -0.1287 -0.0249  0.1753
 9122W        W25383   6.425  18.683   3.413  0.1294  0.0435  0.0102
 9123W        W25384  12.659   0.065   0.840  0.1578  0.1743  0.0420
 9124W        W25385  17.201  17.783  13.467  0.0776 -0.0793 -0.0457
 9125W        W25386  13.137  16.606  11.509  0.0685  0.0867  0.1522
 9126W        W25387  18.105  16.507  11.274  0.1902  0.1367  0.1385
 9127W        W25388   3.448   3.413  12.906  0.0354 -0.1234  0.3753
 9128W        W25389   1.462  14.254  14.980 -0.0756  0.3257 -0.0072
 9129W        W25390   7.307  18.490  14.003 -0.2807 -0.0596  0.2774
 9130W        W25391   5.637   5.376   2.684  0.1876  0.3178  0.4004
 9131W        W25392   9.833  17.914   3.398 -0.0762 -0.1131 -0.0349
 9132W        W25393   0.170   3.130   4.201 -0.3099  0.1286  0.2823
 9133W        W25394   2.374  15.332   4.916  0.0758 -0.1831  0.1151
 9134W        W25395  16.292   8.382  13.526  0.1893 -0.1345 -0.1239
 9135W        W25396   5.836   4.370  12.240 -0.1365  0.0304 -0.0074
 9136W        W25397  15.332   2.282  12.226  0.0264  0.0577  0.3219
 9137W        W25398  15.313  17.666   0.093 -0.0420 -0.2174 -0.0538
 9138W        W25399  17.774   5.584  13.851 -0.1156  0.3633 -0.0149
 9139W        W25400  14.486   2.315   5.041 -0.4739  0.0172  0.1203
 9140W        W25401   5.656   6.130   6.158 -0.1421  0.0683  0.3083
 9141W        W25402   5.243  17.168   2.940  0.3171  0.2631  0.1733
 9142W        W25403  14.867   0.980  13.126  0.0792 -0.2833  0.0092
 9143W        W25404  18.815   6.965   3.839 -0.3483  0.0267  0.1129
 9144W        W25405  14.978  15.362   1.737 -0.1354  0.0425  0.3329
 9145W        W25406  14.728   0.141   3.535  0.0933 -0.2068  0.1134
 9146W        W25407   4.279   9.339   4.219 -0.0948 -0.2369  0.0795
 9147W        W25408   0.056  16.439  11.567  0.1871  0.0885  0.0622
 9148W        W25409   6.814  14.534  12.901  0.2206  0.0363  0.0061
 9149W        W25410   2.900   1.775   0.339  0.1630  0.3104  0.1300
 9150W        W25411  16.523  18.761  15.585  0.0985 -0.1533 -0.0366
 9151W        W25412   1.926  12.710  15.219  0.0950  0.0059 -0.3145
 9152W        W25413  12.730  10.649  12.130 -0.1738 -0.2623 -0.0506
 9153W        W25414  13.883   6.670  14.023  0.0994  0.2011  0.0574
 9154W        W25415  10.560  14.612   3.020 -0.0903 -0.3187  0.0985
 9155W        W25416  11.141  15.203   5.064 -0.1190 -0.0151  0.1021
 9156W        W25417   3.041   2.831  11.541  0.0036 -0.0875  0.1141
 9157W        W25418  17.368  15.503  14.910  0.0442 -0.1175 -0.0828
 9158W        W25419   2.902  10.813   3.891 -0.0351  0.1117 -0.0439
 9159W        W25420  11.618   1.998   0.144  0.3535 -0.1062  0.0657
 9160W        W25421   5.911   4.747  12.548 -0.2687  0.3724  0.3412
 9161W        W25422   4.941  12.807  11.432 -0.0933 -0.0641  0.0305
 9162W        W25423  15.713   5.202   0.526  0.0326 -0.0371 -0.0833
 9163W        W25424   8.295   7.331   3.713  0.0530  0.1243  0.1440
 9164W        W25425   4.318  16.480  14.408 -0.0045 -0.1463  0.1398
 9165W        W25426   4.373   8.692   1.482  0.0007 -0.0040 -0.2010
 9166W        W25427   8.632   9.910   3.551  0.4587 -0.2247 -0.0583
 9167W        W25428   2.380   5.635  11.992 -0.1189 -0.0129 -0.2877
 9168W        W25429   5.285  12.011  13.183  0.2358 -0.0364 -0.1040
 9169W        W25430  13.551   8.417  11.546  0.2047 -0.0378 -0.0125
 9170W        W25431   5.967  12.534  14.778  0.1560 -0.0055  0.0941
 9171W        W25432   6.149  13.885  10.693 -0.0954 -0.2238 -0.0784
 9172W        W25433   7.438   7.612   2.269 -0.0134 -0.2880  0.2458
 9173W        W25434   2.438  17.443   2.005 -0.0694  0.0528 -0.1956
 9174W        W25435  16.508   2.662   2.476  0.3412 -0.0005 -0.0008
 9175W        W25436  14.993   3.345   3.721 -0.0232 -0.0194  0.0439
 9176W        W25437  14.909   5.729   1.424 -0.0344 -0.1972  0.1808
 9177W        W25438  18.115   1.970  11.835  0.1023  0.3145 -0.2170
 9178W        W25439  17.024  10.678  14.303 -0.1282 -0.1069 -0.0534
 9179W        W25440   6.373   2.612   4.592 -0.1543 -0.2033  0.1471
 9180W        W25441  14.896  16.649  11.638  0.3368 -0.2438 -0.2322
 9181W        W25442  17.228  15.665   3.529 -0.0768 -0.0796  0.3138
 9182W        W25443  11.994  17.062   3.863  0.0947  0.1644  0.2206
 9183W        W25444   5.402  11.054   3.066 -0.0598 -0.0960 -0.0540
 9184W        W25445  10.601  12.453   2.273 -0.0695 -0.2954  0.0538
 9185W        W25446   9.428   8.782   4.677 -0.2644  0.0321  0.2155
 9186W        W25447   0.991   8.592   4.166 -0.3102  0.0494 -0.3684
 9187W        W25448   9.053   4.584   0.477 -0.3650  0.0001 -0.1248
 9188W        W25449  14.546   9.665   5.425  0.0096 -0.3140 -0.0973
 9189W        W25450  13.577  10.731  14.611  0.1930 -0.0968 -0.0083
 9190W        W25451  16.142   8.720  11.786 -0.1699  0.1567  0.1384
 9191W        W25452   1.338   4.845  13.135  0.2846  0.2009 -0.1062
 9192W        W25453  17.210   1.164   2.257 -0.2342  0.2124 -0.1099
 9193W        W25454   8.158  13.556   2.471 -0.0739  0.0364 -0.0772
 9194W        W25455   7.269  13.332  10.074 -0.0667  0.0623  0.3350
 9195W        W25456   1.783  11.424   5.096 -0.0519 -0.1953 -0.1808
 9196W        W25457   1.533  18.525   0.526  0.0282 -0.1331  0.1552
 9197W        W25458  12.923   7.476  11.607  0.0415 -0.0528 -0.0457
 9198W        W25459   8.607   8.603  14.879  0.2483 -0.1106 -0.1962
 9199W        W25460  10.700  18.568  14.155  0.0613  0.0645  0.1272
 9200W        W25461   3.327  10.115   1.512 -0.0254 -0.2447  0.1130
 9201W        W25462   6.717   4.562  12.548  0.0732 -0.0179  0.1380
 9202W        W25463   8.230  14.346  13.513 -0.1442 -0.0357  0.0340
 9203W        W25464   5.902   3.378   5.852  0.1207 -0.2824 -0.2194
 9204W        W25465  14.743   5.635   2.334 -0.2215  0.0034  0.0477
 9205W        W25466   6.790  11.836   3.411  0.0978 -0.0220  0.2838
 9206W        W25467  14.348   8.369   3.414  0.0403 -0.0424 -0.0506
 9207W        W25468  15.322  16.426  13.000 -0.0342  0.3595  0.2342
 9208W        W25469  12.766  16.221   0.280  0.1183 -0.1425 -0.1699
 9209W        W25470  12.729  16.838   2.065 -0.0953 -0.0119 -0.5078
 9210W        W25471   9.975  10.447   5.971  0.0720 -0.0871  0.0410
 9211W        W25472  14.702  12.918  11.291 -0.0753  0.3496 -0.0582
 9212W        W25473   5.476   8.706   5.889 -0.2747  0.1591  0.1124
 9213W        W25474   7.188   4.159  13.294 -0.0448  0.0256  0.2731
 9214W        W25475   4.992   4.851  15.398  0.0144 -0.2727  0.1436
 9215W        W25476   4.915   5.216  14.535 -0.1525  0.0167  0.0403
 9216W        W25477  10.720  17.992  11.442 -0.1538 -0.0830  0.1587
 9217W        W25478  10.305  11.231   2.066 -0.0311 -0.2693 -0.0027
 9218W        W25479  10.596   1.234  13.107 -0.2858  0.1112 -0.0067
 9219W        W25480  11.164  12.222  12.561  0.1055  0.0958 -0.1335
 9220W        W25481   4.908  14.239   4.502 -0.1624 -0.2141  0.3812
 9221W        W25482  13.587   2.501  14.465  0.0512  0.0281 -0.1613
 9222W        W25483   6.575   1.411  14.437  0.1584  0.0581  0.0739
 9223W        W25484   0.879   5.640  11.340 -0.3371  0.0141  0.1537
 9224W        W25485   0.307  13.856   3.112 -0.1720 -0.1659  0.4262
 9225W        W25486  14.919  17.935  15.620  0.1564 -0.3051 -0.2166
 9226W        W25487   8.134   5.592  13.076 -0.1411 -0.2449 -0.3484
 9227W        W25488   2.468  13.012  11.004 -0.0526  0.0492 -0.1750
 9228W        W25489   8.869   3.700   0.897  0.1004  0.2172 -0.0574
 9229W        W25490  10.720  15.177  15.576 -0.0924 -0.2521 -0.5013
 9230W        W25491   0.128   3.989  10.845 -0.0952 -0.3415  0.1250
 9231W        W25492  12.725  12.254  12.598 -0.4338  0.0434  0.3191
 9232W        W25493   0.646   4.348  13.766  0.2553  0.0583  0.0834
 9233W        W25494  18.307   2.412  11.480  0.5382 -0.3440  0.0460
 9234W        W25495  11.234  12.964  13.709  0.0991  0.0988 -0.1041
 9235W        W25496  18.781   6.388  14.476 -0.1393 -0.1301  0.2171
 9236W        W25497   1.644   6.232   2.543 -0.0695 -0.1550 -0.0472
 9237W        W25498  15.938  10.951  10.432 -0.0459 -0.0468 -0.0056
 9238W        W25499  13.555   3.526  14.968  0.1036  0.1612 -0.0651
 9239W        W25500  10.320   3.545  12.719 -0.1051  0.5013  0.2391
 9240W        W25501   1.425  12.111   2.408 -0.1213 -0.1480  0.0597
 9241W        W25502   0.601   9.179   2.758 -0.1076  0.2421  0.1338
 9242W        W25503  13.698   8.370   3.532 -0.2167  0.1865  0.0560
 9243W        W25504  11.765  12.431  12.927 -0.1033 -0.0280  0.3850
 9244W        W25505   9.782   0.748   4.416  0.3684 -0.1203 -0.0376
 9245W        W25506  15.898   4.462   2.626 -0.1624 -0.0089  0.2954
 9246W        W25507   0.212   7.165  11.446  0.0324  0.0147 -0.0214
 9247W        W25508  16.192  11.013   3.982 -0.1649 -0.0741 -0.0386
 9248W        W25509  13.008  10.642  10.666 -0.1605  0.3694 -0.0961
 9249W        W25510   3.491   6.892   4.375 -0.0458  0.3581  0.2500
 9250W        W25511   1.995  12.942  10.768  0.0012 -0.0291 -0.1521
 9251W        W25512   1.215  16.964  11.644  0.0889 -0.0880  0.0175
 9252W        W25513  12.954   6.062   0.889 -0.2677  0.2231  0.0253
 9253W        W25514  15.673   9.979  13.802 -0.1158 -0.0952 -0.3667
 9254W        W25515  15.341   4.075   3.325  0.1497 -0.1111 -0.3219
 9255W        W25516   6.049   3.650   3.722 -0.2336  0.0452 -0.3384
 9256W        W25517  12.719  15.587   2.934 -0.0407 -0.0133 -0.1395
 9257W        W25518  18.082   7.037   2.109  0.2197  0.1752  0.0849
 9258W        W25519  15.483   7.015   0.323 -0.1464  0.1682  0.0942
 9259W        W25520  11.711   7.502   4.433  0.2885 -0.0408 -0.0611
 9260W        W25521   6.353   9.798   1.493 -0.0027  0.0187 -0.0528
 9261W        W25522  17.401   1.615   1.573  0.0348 -0.0502  0.2399
 9262W        W25523   5.254   0.659  13.616  0.0302 -0.1281  0.1804
 9263W        W25524   3.016  17.059   2.781  0.0281  0.3893 -0.0715
 9264W        W25525   6.134   8.931  10.120 -0.0493 -0.1982 -0.1871
 9265W        W25526  17.644  15.402   3.380 -0.1129  0.0474 -0.0734
 9266W        W25527   1.717   3.346  15.036 -0.3490  0.0764  0.1031
 9267W        W25528   4.675  10.242   1.205 -0.0179  0.0393 -0.3127
 9268W        W25529   6.616  16.346   5.468 -0.0025 -0.1678  0.3769
 9269W        W25530   1.362  17.348  12.740 -0.1242  0.5749  0.1139
 9270W        W25531   1.323   3.041  13.880 -0.0598 -0.0344  0.0133
 9271W        W25532  12.204   6.104   3.862  0.1419 -0.0523  0.1032
 9272W        W25533   2.065  10.798   0.020  0.2730 -0.3892 -0.0723
 9273W        W25534   0.650   2.260   5.724  0.2226 -0.0266  0.0578
 9274W        W25535  11.049   9.239   3.857  0.0651  0.2628 -0.3009
 9275W        W25536  14.656   6.755   4.216  0.3539 -0.0027 -0.1652
 9276W        W25537  13.675  16.648  15.531  0.0156  0.0702  0.1887
 9277W        W25538   1.912   1.106   1.150  0.0391 -0.1911 -0.0042
 9278W        W25539  17.629  18.108  13.770 -0.0777  0.2255  0.0900
 9279W        W25540  14.472  11.988   0.735  0.1064  0.1636 -0.1022
 9280W        W25541   6.991  11.684  14.296 -0.2753  0.2540  0.1334
 9281W        W25542  18.408  16.473   3.379 -0.0199  0.1213  0.0613
 9282W        W25543  18.487   2.942   0.741  0.2636 -0.0105  0.1200
 9283W        W25544   9.357   5.003  12.159  0.0078  0.2783 -0.0760
 9284W        W25545  13.566   6.981   1.338  0.3311 -0.2636  0.0220
 9285W        W25546   1.033  14.507   3.208  0.0108  0.0808 -0.3409
 9286W        W25547   8.591  13.442  13.544 -0.0732 -0.2530 -0.0603
 9287W        W25548   9.892   0.423   0.148  0.0431 -0.2534 -0.0681
 9288W        W25549  15.096  11.681  10.750 -0.1386  0.1966 -0.3895
 9289W        W25550  17.267   3.006  10.528  0.2639 -0.0397 -0.1720
 9290W        W25551   8.653   2.269  12.406 -0.0792  0.3950 -0.2495
 9291W        W25552  15.241  11.401   5.054 -0.1345 -0.1622  0.0002
 9292W        W25553  10.900   8.086  10.859 -0.0278 -0.0224  0.3410
 9293W        W25554  11.412   7.752   2.722 -0.1189  0.1693  0.1400
 9294W        W25555  10.319   6.112   3.866 -0.1152  0.0704  0.2515
 9295W        W25556  17.799   2.814   1.397 -0.1931 -0.1734 -0.3990
 9296W        W25557   5.943  12.267   4.767 -0.1625 -0.1572 -0.0289
 9297W        W25558   3.957   3.612  12.524 -0.0069 -0.0692  0.2912
 9298W        W25559  13.747   9.725   1.815  0.2707 -0.0988  0.1049
 9299W        W25560   6.065   9.680   2.364  0.1762 -0.0419 -0.2466
 9300W        W25561  16.956   4.189   4.371 -0.0127 -0.0161 -0.0510
 9301W        W25562  18.645   0.315  13.249  0.5156 -0.1366 -0.3881
 9302W        W25563   7.868   0.665  15.302 -0.0214  0.0838  0.0769
 9303W        W25564   7.237  15.282   2.678  0.0442 -0.0291 -0.0802
 9304W        W25565   1.016   4.400   2.023 -0.1296 -0.2320  0.2719
 9305W        W25566  18.647   1.361   4.807  0.0154 -0.1346  0.1611
 9306W        W25567   8.727   7.666   1.937  0.1044  0.1011  0.0016
 9307W        W25568  14.359   8.372  15.375 -0.0369  0.1136 -0.0257
 9308W        W25569   6.978   3.315   2.789  0.1566  0.1282 -0.1221
 9309W        W25570   5.381   7.293   2.136  0.1361  0.1006  0.0201
 9310W        W25571  12.189  18.409   4.402  0.3227  0.1524  0.4234
 9311W        W25572  11.444   9.822  13.045 -0.2230 -0.1672 -0.3747
 9312W        W25573  17.086  16.024  14.372  0.0586 -0.0810  0.4286
 9313W        W25574   2.270  15.560  12.576 -0.0619 -0.2425  0.1420
 9314W        W25575   4.056   7.719   0.405 -0.3082  0.2570 -0.1881
 9315W        W25576  14.906   0.422   4.805  0.2055  0.1192  0.1542
 9316W        W25577   9.699   3.773   1.461  0.1792 -0.2353  0.3436
 9317W        W25578  13.096  10.206   0.756  0.0304  0.3534 -0.0901
 9318W        W25579   5.307  10.759   2.159  0.1275 -0.3699  0.0486
 9319W        W25580   9.501   9.567   5.863 -0.2730 -0.1254 -0.0494
 9320W        W25581  18.701   1.451   4.095 -0.0749  0.2766  0.2854
 9321W        W25582  18.011  17.475   2.335 -0.1272  0.2252 -0.0436
 9322W        W25583  13.630  14.381  11.743 -0.2660 -0.3988  0.1449
 9323W        W25584  10.575   0.206  15.375 -0.4575  0.0842 -0.2412
 9324W        W25585  17.778  15.230  12.691  0.1779 -0.1109  0.0715
 9325W        W25586  10.967   0.134  13.837  0.0484  0.3286 -0.0018
 9326W        W25587   1.564  11.006   4.497  0.5854 -0.1144  0.0142
 9327W        W25588  17.164  17.524  11.078  0.1479  0.2719 -0.1035
 9328W        W25589   4.410  11.383   2.969  0.0296 -0.0068  0.0307
 9329W        W25590   3.487  18.447  12.116 -0.2113  0.3472 -0.0501
 9330W        W25591   9.346   5.343   0.725 -0.0777 -0.0400 -0.1126
 9331W        W25592  17.848   9.848   4.661  0.1085 -0.0635 -0.3041
 9332W        W25593  15.781  11.813  10.541 -0.3046  0.1061  0.0370
 9333W        W25594   9.225  11.145   0.082 -0.0337 -0.0991 -0.0178
 9334W        W25595   3.139   9.818  14.197 -0.2194  0.0133  0.2376
 9335W        W25596  17.509   7.659  13.586 -0.0689 -0.0676 -0.0780
 9336W        W25597   8.970  13.003   0.908  0.3057  0.2786 -0.0277
 9337W        W25598  12.418   0.399  10.633  0.0680  0.1166  0.0527
 9338W        W25599  12.760  10.876  15.151  0.0854 -0.1371  0.2267
 9339W        W25600   9.008  18.092   4.065  0.0674 -0.0503  0.2894
 9340W        W25601  12.091  16.239   3.458 -0.1281 -0.0123  0.4016
 9341W        W25602  18.548  18.550   5.007 -0.4386 -0.0009  0.1310
 9342W        W25603  16.580  14.743   3.624 -0.0083 -0.2120  0.1487
 9343W        W25604   9.845   3.678   5.427  0.0304 -0.1445  0.0146
 9344W        W25605  10.276   4.421   2.386  0.3070 -0.3439  0.2178
 9345W        W25606  16.677  14.053   9.941  0.2968  0.0719 -0.2441
 9346W        W25607  13.621   7.413   1.048  0.2053  0.0828  0.1752
 9347W        W25608   9.113  13.080   4.026 -0.0063  0.0819  0.0034
 9348W        W25609  16.687  16.660   2.791 -0.0817  0.1476 -0.0958
 9349W        W25610  12.870  15.184  14.741 -0.0506 -0.1332 -0.1391
 9350W        W25611  13.809   8.281  14.467 -0.1495 -0.0568  0.0641
 9351W        W25612  10.517   3.293  14.061  0.0818  0.0940 -0.0177
 9352W        W25613  17.415  15.143   1.619 -0.2390  0.0392 -0.1688
 9353W        W25614  13.630   1.988  12.659  0.0902 -0.0368  0.0054
 9354W        W25615  11.091   0.673  13.349 -0.0534 -0.0843 -0.1777
 9355W        W25616  10.053  18.534  10.763  0.0627  0.3634  0.0058
 9356W        W25617  10.690   6.923   2.814  0.1523  0.0774 -0.2642
 9357W        W25618   5.570  11.126  14.665  0.2835  0.0849 -0.0756
 9358W        W25619   9.389   1.752  11.189  0.0119 -0.0274  0.2076
 9359W        W25620  10.934   4.885   2.804  0.3180  0.1464  0.1731
 9360W        W25621  13.284   9.098  11.620  0.0392 -0.0174 -0.2897
 9361W        W25622  10.985   1.835   4.475  0.2204 -0.1081 -0.0606
 9362W        W25623   1.152  12.100  11.523  0.1370  0.0918  0.0127
 9363W        W25624   7.994  15.164   1.659 -0.0377  0.1670  0.1357
 9364W        W25625  14.960  10.831   3.745  0.2101 -0.1245 -0.0274
 9365W        W25626   2.490   4.821  14.093  0.1420 -0.0583 -0.0463
 9366W        W25627   1.456  14.591  12.020  0.1644 -0.0906 -0.0471
 9367W        W25628   6.012  17.067  15.518 -0.0946 -0.1059 -0.0984
 9368W        W25629  18.302   8.257  11.604 -0.1090  0.0601  0.2653
 9369W        W25630  18.520  14.156  14.460 -0.0232 -0.2497  0.1954
 9370W        W25631   6.661   7.236   0.530  0.1915  0.3521 -0.1728
 9371W        W25632   8.345   2.423   2.366  0.3091  0.0364  0.1624
 9372W        W25633  18.172  15.953  11.159  0.0504 -0.2793  0.2481
 9373W        W25634   8.666   8.623  15.373  0.4141 -0.1704 -0.2115
 9374W        W25635   5.568   9.022   0.707  0.1311 -0.1937 -0.1890
 9375W        W25636  14.631  11.996  14.629 -0.2027 -0.1855  0.1306
 9376W        W25637  11.730   7.935   3.061  0.6484 -0.0357 -0.4251
 9377W        W25638  15.270  18.615   3.357 -0.0416  0.1485  0.0971
 9378W        W25639  14.660  17.340  10.993  0.2400 -0.1332 -0.0098
 9379W        W25640  15.207   1.490   0.880  0.1252  0.0537 -0.1452
 9380W        W25641   8.432   6.661  14.469  0.0588  0.0196 -0.0650
 9381W        W25642   7.356   4.141   1.828  0.0550 -0.0636 -0.1526
 9382W        W25643  16.448  10.965   9.738  0.0532  0.1675  0.0970
 9383W        W25644   3.233   5.718  14.316 -0.1256  0.0968 -0.1895
 9384W        W25645  12.489   1.144   4.059  0.0584  0.0528  0.0676
 9385W        W25646  13.830  10.341  11.662 -0.2915  0.0659  0.1167
 9386W        W25647   8.595   6.099  11.438  0.2368 -0.0069 -0.0406
 9387W        W25648  11.498  18.244  12.987  0.0487 -0.0544  0.1145
 9388W        W25649   7.866  18.134   1.538 -0.2416 -0.0877  0.0625
 9389W        W25650   0.933   2.381   2.496 -0.3054 -0.3487  0.0298
 9390W        W25651   1.582   8.812   2.607 -0.0545 -0.4418  0.1614
 9391W        W25652  16.154   9.636  13.707  0.0146 -0.0476  0.1652
 9392W        W25653  16.212  16.711   2.657 -0.3461  0.0720  0.1359
 9393W        W25654  13.745  14.141  14.423  0.0779 -0.1259  0.0302
 9394W        W25655  10.553  11.662  12.814 -0.2525  0.3355 -0.0984
 9395W        W25656   6.599   6.216   1.276  0.1119  0.0415  0.0779
 9396W        W25657   6.637   8.795  12.145 -0.0727  0.1209 -0.4452
 9397W        W25658  14.636  17.151   5.866  0.0629  0.1306  0.0068
 9398W        W25659   9.829  15.726  11.921  0.0931  0.0169  0.0659
 9399W        W25660  16.288  16.200   4.885  0.0439 -0.0290 -0.1577
 9400W        W25661  13.700  13.617  10.437  0.2205 -0.0400  0.0127
 9401W        W25662  13.898   4.532   2.294 -0.2374 -0.2325 -0.0631
 9402W        W25663   6.120   3.111   3.906  0.0682 -0.1358 -0.0827
 9403W        W25664   7.942   3.398  11.137  0.0577 -0.0739 -0.0966
 9404W        W25665  18.283   4.197  11.580 -0.1551 -0.0453 -0.1605
 9405W        W25666  17.605   0.383   0.270  0.0090 -0.0345 -0.1149
 9406W        W25667   8.940  15.319   2.051  0.1155 -0.0341  0.3988
 9407W        W25668  16.855   6.928  11.321 -0.1572 -0.1524  0.0782
 9408W        W25669  16.001   1.942  13.063 -0.0704  0.1315 -0.2147
 9409W        W25670  16.667   3.756  14.270 -0.1422 -0.3317  0.3566
 9410W        W25671   9.136  14.280  15.354  0.0497 -0.0275 -0.3698
 9411W        W25672  18.740   5.137  15.257 -0.1819 -0.0775  0.2113
 9412W        W25673  15.713  10.239   3.458  0.0835 -0.3378 -0.0089
 9413W        W25674  14.273   1.022  12.159  0.2388 -0.2505 -0.0287
 9414W        W25675   4.815   5.848   0.836  0.0463  0.0702  0.0353
 9415W        W25676   1.385  11.240   1.991 -0.1432 -0.2996 -0.0174
 9416W        W25677   4.392  11.036   1.094 -0.1197 -0.0154  0.0894
 9417W        W25678  17.199  18.486   4.864  0.0165 -0.1049 -0.0752
 9418W        W25679   1.931   1.579   4.590 -0.1444  0.0339 -0.0879
 9419W        W25680   7.376   6.062   1.282  0.0994  0.0693 -0.5142
 9420W        W25681   3.505  18.772  12.818  0.0263 -0.1759  0.0843
 9421W        W25682  12.639  11.069  13.718  0.2783  0.1952  0.1676
 9422W        W25683   8.231   3.505  14.404 -0.0337 -0.1354 -0.0896
 9423W        W25684   2.557  15.594  14.397  0.0688 -0.2128 -0.0429
 9424W        W25685   7.198  18.143  13.607  0.0889 -0.1965 -0.1595
 9425W        W25686  10.721  13.262  11.743  0.3670  0.1812  0.2092
 9426W        W25687   0.372  10.739  11.587 -0.0106  0.2393 -0.2940
 9427W        W25688   9.077  14.653   3.836  0.0327 -0.1287  0.1898
 9428W        W25689   0.482   3.743   2.930 -0.0278 -0.3314 -0.1512
 9429W        W25690   9.717   9.204  12.275  0.0327 -0.2203 -0.0919
 9430W        W25691   5.090   2.378  11.461 -0.2721  0.1436  0.0438
 9431W        W25692  14.679  14.400   1.994 -0.1858 -0.0242  0.4785
 9432W        W25693   9.964  15.939   2.915 -0.2566 -0.1724 -0.2487
 9433W        W25694   5.285   0.101   0.533 -0.1580  0.0906 -0.1556
 9434W        W25695  10.974   1.612  11.715  0.1893  0.0908 -0.4608
 9435W        W25696   8.794   0.863  12.246 -0.0437 -0.0502  0.1264
 9436W        W25697  12.875   1.974  14.008  0.2450  0.2331  0.0820
 9437W        W25698  15.801   3.023  12.176  0.1468  0.3481 -0.2627
 9438W        W25699  16.444   2.919   0.543  0.1480  0.1805 -0.2343
 9439W        W25700  14.779   9.622   0.590 -0.0758  0.1915  0.0095
 9440W        W25701   7.285  13.714   3.798  0.2780  0.0709 -0.3250
 9441W        W25702  16.035   7.471  10.432  0.1488  0.1858 -0.1276
 9442W        W25703   0.613   8.650   2.660 -0.0967 -0.1001 -0.0513
 9443W        W25704  15.211   5.006   2.913  0.1488 -0.0968 -0.0830
 9444W        W25705   3.931   7.073   0.923 -0.0436  0.0035  0.0977
 9445W        W25706   6.739   6.640   5.490 -0.0344 -0.1033 -0.1631
 9446W        W25707  14.493  10.834   1.803 -0.2128 -0.0687  0.1823
 9447W        W25708   5.045   8.095   1.372 -0.0274 -0.0573 -0.0454
 9448W        W25709   7.706  15.820  13.198  0.0580  0.0734  0.0567
 9449W        W25710  12.131  17.217   0.947  0.1536  0.1231  0.3628
 9450W        W25711  17.386  14.398   0.127 -0.0093  0.0632  0.1327
 9451W        W25712   6.301  13.915   4.502  0.1225  0.2701 -0.1018
 9452W        W25713   5.967  15.737  12.809  0.1550 -0.1190 -0.0021
 9453W        W25714   0.629   0.076   2.477  0.0593 -0.3776 -0.4027
 9454W        W25715   6.641  12.703   3.359 -0.0779  0.0094 -0.0589
 9455W        W25716   7.576   3.794   4.828  0.1553  0.3198 -0.1602
 9456W        W25717  17.789   0.971  15.438  0.1971  0.1474 -0.2457
 9457W        W25718   7.616  12.135  13.343  0.2248  0.2040 -0.1766
 9458W        W25719   5.283   4.146  11.538  0.0625  0.0685  0.0271
 9459W        W25720   3.635  12.618   1.519  0.0228 -0.2943 -0.0592
 9460W        W25721  10.092   1.518   0.655  0.1748 -0.4757  0.0301
 9461W        W25722  13.651   1.088  14.493 -0.0025 -0.0400  0.4825
 9462W        W25723   8.652   2.081  13.350  0.1485  0.0933  0.2131
 9463W        W25724   6.676   1.586  12.026  0.2587  0.1499  0.0534
 9464W        W25725   1.685  13.739   1.436 -0.0478  0.0748 -0.1342
 9465W        W25726   5.734   0.420   1.687  0.0048  0.1998  0.0568
 9466W        W25727   3.406   3.393   3.511 -0.0915  0.2143 -0.3420
 9467W        W25728  12.400   6.940   2.734 -0.2753  0.0059 -0.3199
 9468W        W25729   6.445   7.978  10.786 -0.0342 -0.0695 -0.3778
 9469W        W25730   4.824   1.075  11.623 -0.0728  0.0207  0.1086
 9470W        W25731   8.375  10.135   0.216  0.1484 -0.0463  0.1079
 9471W        W25732   8.011  10.972  11.717 -0.2119 -0.1602  0.1885
 9472W        W25733   9.545  12.676  15.275 -0.0338  0.0676  0.1330
 9473W        W25734  11.568  17.183   0.770 -0.1505  0.0287 -0.1831
 9474W        W25735  13.051  10.774  12.730  0.2443 -0.1506 -0.1211
 9475W        W25736   6.893  12.841  14.615 -0.0526  0.1718 -0.1871
 9476W        W25737  12.112  11.572  11.253 -0.0038  0.0102  0.0808
 9477W        W25738   6.259   3.143   4.955  0.2437 -0.2142  0.0806
 9478W        W25739  10.617  13.444   0.814 -0.0305  0.0030 -0.3454
 9479W        W25740   9.334   8.222  10.379 -0.2432 -0.2193 -0.2267
 9480W        W25741   9.104  11.286   0.890 -0.0864 -0.1664 -0.0619
 9481W        W25742  14.585   5.428  12.702 -0.2575 -0.2055 -0.1779
 9482W        W25743  10.821   5.957   1.195  0.3668  0.3099 -0.1657
 9483W        W25744  12.832  12.547   4.143 -0.4047 -0.1795  0.3135
 9484W        W25745   2.917   9.383  11.741 -0.6547 -0.2051  0.0942
 9485W        W25746  10.112   8.295   4.819  0.0592 -0.3664 -0.2628
 9486W        W25747  12.742   3.082  11.084 -0.0161  0.0986  0.3088
 9487W        W25748   9.650   0.108  11.510  0.0017 -0.1404 -0.2462
 9488W        W25749  15.536  18.183  11.314 -0.1558 -0.3155  0.0769
 9489W        W25750   7.638  13.535   1.577  0.5170 -0.2040  0.4948
 9490W        W25751   2.376  10.084  13.641  0.1322 -0.1065 -0.1110
 9491W        W25752  17.279   7.346  11.234  0.0893  0.0023  0.1936
 9492W        W25753  13.934   7.552  12.192  0.1263 -0.0266 -0.0473
 9493W        W25754   2.662  10.426   3.453 -0.1186  0.2980  0.1875
 9494W        W25755   4.337   7.503   1.786  0.1766  0.0309  0.0253
 9495W        W25756   1.031  18.451  11.066  0.0462  0.0278 -0.1570
 9496W        W25757   3.554   3.105   1.188 -0.1211  0.0550 -0.1468
 9497W        W25758   9.596   5.892  11.201 -0.0251 -0.4373  0.3209
 9498W        W25759   3.141  14.694   3.523  0.0830  0.1403 -0.1020
 9499W        W25760  13.770   7.477  14.008  0.0155 -0.3006  0.0615
 9500W        W25761   5.786  14.749  14.549  0.0105  0.1811  0.0120
 9501W        W25762   1.351  10.382   1.083  0.2115 -0.0062 -0.3778
 9502W        W25763   2.595   0.024   4.094 -0.3070 -0.3060  0.0045
 9503W        W25764   5.300   5.487  13.249 -0.1788 -0.0927 -0.2614
 9504W        W25765   1.262   7.136  13.774  0.0238 -0.1735 -0.1530
 9505W        W25766   0.650   6.151   1.703 -0.3335 -0.1867 -0.0990
 9506W        W25767   7.918   7.176   1.491 -0.2227 -0.2269 -0.0611
 9507W        W25768   7.834  16.754  13.256 -0.0955 -0.1613 -0.0047
 9508W        W25769   9.104  15.515  13.265 -0.0813  0.0117 -0.1849
 9509W        W25770  17.902  11.592   1.483  0.0951  0.2546  0.0177
 9510W        W25771  16.240   5.688  12.119  0.0993  0.1962 -0.1036
 9511W        W25772  11.851   1.660  13.070  0.1335 -0.1660  0.0757
 9512W        W25773   3.814   4.743  13.656 -0.3145 -0.2107 -0.0681
 9513W        W25774   4.733  16.513  14.126 -0.2123 -0.1938 -0.5376
 9514W        W25775  11.150  16.116  14.838  0.0989  0.0808 -0.1979
 9515W        W25776  16.974   0.110  15.511  0.0806 -0.0349 -0.1048
 9516W        W25777  12.129  15.461   4.316  0.4685  0.4713  0.3839
 9517W        W25778  14.780  10.688   2.311 -0.2186 -0.0824  0.2536
 9518W        W25779  17.223   5.415  11.552  0.0497 -0.0482 -0.6411
 9519W        W25780  11.001  16.668  12.744 -0.4333  0.3327  0.0166
 9520W        W25781  14.378   1.814   1.517  0.2088  0.2080 -0.0935
 9521W        W25782   8.616  12.762   3.259 -0.2143  0.1651  0.2587
 9522W        W25783   0.958   5.476  14.362  0.1818  0.0529 -0.1502
 9523W        W25784  12.031   8.527   2.399 -0.0166  0.0484 -0.1961
 9524W        W25785   3.564  10.733  13.730 -0.1310 -0.3087  0.0441
 9525W        W25786  17.907   6.819   1.701  0.1961  0.3683 -0.1052
 9526W        W25787   0.867  12.077   2.185 -0.2562  0.2461  0.2433
 9527W        W25788   4.110   9.528   5.178 -0.2086 -0.3311 -0.0038
 9528W        W25789  15.850   3.937  12.782  0.1315  0.1890  0.0423
 9529W        W25790   6.324  17.424  12.582 -0.2330 -0.1214  0.1289
 9530W        W25791   0.349   6.333   1.243 -0.2163 -0.0848 -0.1210
 9531W        W25792  18.473   0.240   2.189 -0.0539 -0.2049 -0.4538
 9532W        W25793   9.549   7.392   2.393 -0.1327 -0.3472  0.1549
 9533W        W25794   7.644   2.470   3.055 -0.2253  0.0431 -0.1934
 9534W        W25795   8.675   9.551   4.152  0.3112  0.1435 -0.2105
 9535W        W25796   7.201   6.881   4.313  0.1054  0.0086 -0.1432
 9536W        W25797   6.918   5.856   1.332  0.0256 -0.2280 -0.1672
 9537W        W25798  15.594   1.191   4.924 -0.0918 -0.0166 -0.1122
 9538W        W25799   5.173   0.685  14.914 -0.0721  0.2257 -0.2412
 9539W        W25800  14.002   4.182   4.448 -0.4562 -0.1237  0.1190
 9540W        W25801  16.272  16.420  14.668 -0.1391 -0.0730  0.1217
 9541W        W25802   1.111  12.644  10.994  0.0662  0.0298 -0.2753
 9542W        W25803  17.034   2.316   0.978 -0.1988  0.2682 -0.3588
 9543W        W25804  12.787   2.519  12.554 -0.0764  0.0746 -0.1441
 9544W        W25805   7.627  13.925   6.033 -0.3444  0.1059 -0.0289
 9545W        W25806  10.857  16.514   5.236  0.0333 -0.2448  0.5399
 9546W        W25807   7.409  14.500   4.591 -0.0223 -0.2533  0.3041
 9547W        W25808   2.628   2.006  14.536  0.1207  0.2474  0.0671
 9548W        W25809  16.477   5.017   4.804  0.0151 -0.2747 -0.1500
 9549W        W25810  18.816   3.003   3.205 -0.1309  0.0583  0.0793
 9550W        W25811   3.925   9.426   0.889 -0.0518 -0.0908 -0.1385
 9551W        W25812   8.511   9.398   3.721  0.2958 -0.1019 -0.1749
 9552W        W25813   3.893   4.767   4.793  0.2571 -0.3292 -0.3252
 9553W        W25814  12.971   4.143  11.085 -0.1767  0.0429 -0.2571
 9554W        W25815  11.304   3.605   3.584 -0.0099 -0.0490 -0.1262
 9555W        W25816  10.292   4.471   2.864  0.0271 -0.3971 -0.0691
 9556W        W25817  17.368  10.825  11.785 -0.1537 -0.0832 -0.0497
 9557W        W25818   4.959   2.111   3.871  0.0697  0.0896  0.0907
 9558W        W25819   5.942  18.211  12.021 -0.1866 -0.0920 -0.2937
 9559W        W25820   6.977   1.544   5.361  0.0807  0.1833  0.0311
 9560W        W25821  16.968  18.552   3.031  0.3022 -0.1117 -0.1417
 9561W        W25822  18.344  14.544  12.374  0.0300  0.1671  0.1596
 9562W        W25823  17.181   9.902   0.384  0.2136 -0.2812  0.4513
 9563W        W25824  12.113  18.225  13.639  0.1007  0.2367 -0.0365
 9564W        W25825  11.327   1.899   3.118  0.1229 -0.1376  0.1040
 9565W        W25826  16.380  16.998   2.258  0.0123  0.1474  0.0922
 9566W        W25827  12.799   3.237   1.777 -0.1766 -0.0999 -0.1215
 9567W        W25828   1.920  15.949   0.559 -0.1689  0.2405 -0.0108
 9568W        W25829   1.159  10.204  13.953  0.0967  0.1160  0.3241
 9569W        W25830  14.594   9.791  10.812  0.0697  0.0710 -0.2516
 9570W        W25831  15.197   5.453   5.630 -0.3252 -0.0907 -0.1611
 9571W        W25832  16.604   1.290   1.785  0.0839  0.2379  0.2976
 9572W        W25833   2.940  11.591   0.377 -0.1550  0.2072 -0.4098
 9573W        W25834   7.561  15.393   0.631  0.1918  0.2380 -0.1840
 9574W        W25835  11.243   3.557   0.286  0.0277  0.4441 -0.0547
 9575W        W25836   6.088  10.910   1.490 -0.3105 -0.1123  0.3292
 9576W        W25837   6.288   6.845  13.740 -0.0123 -0.0761  0.1020
 9577W        W25838   9.267  17.983  11.873 -0.2116 -0.1372 -0.0137
 9578W        W25839   4.176  12.256  11.743 -0.0815 -0.3846 -0.1977
 9579W        W25840   5.561   2.521   2.230 -0.1557  0.0235  0.1223
 9580W        W25841   1.341   6.053   3.151 -0.1756 -0.2619  0.1282
 9581W        W25842  16.947  12.988  12.070 -0.0031 -0.1727 -0.2159
 9582W        W25843  10.211   0.897   3.099  0.0827 -0.1791  0.1171
 9583W        W25844   7.556   7.765   3.653  0.1576 -0.0100  0.2925
 9584W        W25845  11.535  18.095   9.926 -0.2253 -0.2774  0.0037
 9585W        W25846   0.811   1.597   0.814  0.0546 -0.2885  0.0522
 9586W        W25847  11.088  18.017   5.240  0.1431 -0.1324 -0.0669
 9587W        W25848   5.443  11.443   0.873  0.2231  0.1904 -0.1336
 9588W        W25849   9.160   3.170   6.188  0.2558 -0.1371  0.1557
 9589W        W25850   5.182  11.222   0.501  0.1871  0.0050 -0.1114
 9590W        W25851   4.995   4.391   3.216 -0.2148 -0.0964  0.0691
 9591W        W25852  14.419  10.681  14.546  0.2671 -0.2735  0.1131
 9592W        W25853   3.130  14.689   1.167 -0.0074 -0.1005 -0.1300
 9593W        W25854   6.767  11.160  13.350 -0.1358  0.0858 -0.2120
 9594W        W25855  18.739   2.678   3.539  0.0712 -0.3610 -0.1236
 9595W        W25856  12.241  11.786   2.677  0.0605  0.1987 -0.3935
 9596W        W25857   0.110  15.347  15.104 -0.1016 -0.0730 -0.0326
 9597W        W25858  17.359   3.780   4.978 -0.1607  0.1161 -0.0727
 9598W        W25859   0.178   5.316   4.771  0.1939  0.0382  0.0711
 9599W        W25860  11.400  12.380   9.533  0.1223 -0.0020 -0.0080
 9600W        W25861  16.705   7.186   1.929 -0.2236  0.1149 -0.3665
 9601W        W25862  10.004  15.775  14.289 -0.2702  0.0553 -0.0647
 9602W        W25863   2.582  16.875   5.214 -0.1574  0.0624 -0.1638
 9603W        W25864  11.771  13.736   4.485  0.0471 -0.0066  0.1337
 9604W        W25865   1.914   1.040   3.171 -0.3158 -0.2875  0.0053
 9605W        W25866  15.534  16.836   1.163  0.0396 -0.0456 -0.3119
 9606W        W25867  15.442  10.593  12.337  0.1661  0.2983 -0.1007
 9607W        W25868   2.988  13.364   4.530  0.1380 -0.2133 -0.1348
 9608W        W25869   9.449  15.400   5.007 -0.0724 -0.1813  0.1926
 9609W        W25870   1.976  10.509   0.569 -0.0682 -0.3746  0.0235
 9610W        W25871   6.451   7.595   1.701 -0.0017  0.1624 -0.0243
 9611W        W25872   2.643  14.301  13.513 -0.1956 -0.2762  0.2793
 9612W        W25873   2.894   9.911   2.852  0.2867 -0.1271  0.0916
 9613W        W25874  10.310   4.181   3.330 -0.0786  0.1667  0.4075
 9614W        W25875   5.124   9.620  14.129 -0.2089 -0.1049  0.1780
 9615W        W25876   4.792  16.197  14.540 -0.2931 -0.2290 -0.2557
 9616W        W25877   9.053  16.548   3.883 -0.0768  0.0914 -0.3631
 9617W        W25878  14.120  13.495  12.040  0.3323 -0.0284 -0.0531
 9618W        W25879   2.529   4.454   5.748  0.4438 -0.1342 -0.2080
 9619W        W25880   6.399   5.947   2.227  0.2914 -0.0039 -0.1715
 9620W        W25881   0.783  16.169  10.842  0.0773 -0.0385 -0.1290
 9621W        W25882  15.207   8.239  12.578 -0.2792  0.0630 -0.0404
 9622W        W25883  10.370   5.952  10.546 -0.2510  0.0342 -0.0311
 9623W        W25884  14.665  13.513   2.875 -0.2380 -0.2836 -0.0795
 9624W        W25885  13.652   1.467   3.320  0.2102  0.4490  0.2917
 9625W        W25886  17.168  11.386  15.017 -0.4231  0.0762 -0.0037
 9626W        W25887   9.347  18.765  13.639 -0.3895 -0.0010  0.2167
 9627W        W25888  15.484  15.530  14.251 -0.1726  0.0289 -0.1069
 9628W        W25889  16.765   0.616   0.153 -0.1393  0.0982  0.2446
 9629W        W25890  11.901  11.031   0.687  0.5504  0.3482  0.0672
 9630W        W25891   3.644   8.149   4.024  0.0978 -0.1234 -0.0143
 9631W        W25892  15.607  12.505   4.065  0.0048  0.0455  0.3027
 9632W        W25893  11.184   2.757   4.580  0.0232  0.2229 -0.2522
 9633W        W25894   8.683   7.401   0.252  0.0396 -0.0467  0.2287
 9634W        W25895   2.259   3.816  15.589  0.0183 -0.3009  0.1149
 9635W        W25896   5.719   6.334   1.887 -0.0811  0.2160 -0.0111
 9636W        W25897  18.286   9.431   1.103  0.2249  0.0195 -0.1746
 9637W        W25898  11.925   9.419  15.569  0.1664 -0.0559  0.3238
 9638W        W25899  16.302   4.536   4.561 -0.1542 -0.1035 -0.1200
 9639W        W25900  16.651  16.978  12.464  0.0205  0.0847  0.2519
 9640W        W25901  14.406   0.134   3.994 -0.1032  0.1018  0.3218
 9641W        W25902  11.263  13.153   1.862 -0.1205  0.0117  0.0592
 9642W        W25903   1.353  10.330   1.655  0.3055 -0.0946  0.0768
 9643W        W25904  14.750  17.890  14.437 -0.0595 -0.0886 -0.1637
 9644W        W25905   8.133  14.075   5.305 -0.0850 -0.1852  0.0648
 9645W        W25906   8.781  18.551   4.443  0.0306  0.0068  0.1994
 9646W        W25907   8.565   9.864  10.791  0.3122  0.2365  0.3548
 9647W        W25908   5.858   4.029   1.604 -0.0779 -0.0889  0.1997
 9648W        W25909  10.746   1.527   4.794 -0.1307  0.0934 -0.0416
 9649W        W25910   4.738   5.976   5.275  0.0210 -0.2541  0.1757
 9650W        W25911   4.065  13.577  14.742  0.2856 -0.0413  0.1332
 9651W        W25912  14.932   4.887   9.540  0.1235 -0.0912 -0.2243
 9652W        W25913   6.260   1.067  13.783  0.0895 -0.0966 -0.1729
 9653W        W25914  10.299   5.124   5.278 -0.5252 -0.0068 -0.2152
 9654W        W25915   0.042   8.248   9.736 -0.1296  0.2611 -0.1056
 9655W        W25916   7.225   3.868  12.361 -0.0348 -0.2142 -0.2504
 9656W        W25917   9.623  17.635  15.635  0.1930 -0.0701 -0.2674
 9657W        W25918   3.722   7.785   2.415  0.2395 -0.0777  0.1643
 9658W        W25919  15.468   4.510  12.275 -0.0522 -0.3874 -0.2081
 9659W        W25920  12.590   4.979  15.238 -0.0897 -0.1224  0.1424
 9660W        W25921   5.910  13.783  13.424 -0.1663 -0.0547 -0.1484
 9661W        W25922  12.503  18.496   2.227 -0.0101 -0.1944 -0.5413
 9662W        W25923   9.533   1.076  14.029 -0.0628  0.3502 -0.2980
 9663W        W25924  13.508   0.969   4.516  0.1659  0.0376 -0.0353
 9664W        W25925  10.661  10.273  11.521 -0.1385  0.0707 -0.0712
 9665W        W25926   7.768   7.084  12.922  0.1578  0.0056 -0.0439
 9666W        W25927   8.907  15.518  11.456  0.0124  0.6698 -0.1236
 9667W        W25928   5.011   8.073   4.297  0.1288 -0.0731  0.1668
 9668W        W25929  14.581  11.951   2.715  0.2319 -0.3940  0.1474
 9669W        W25930  13.614   0.985   3.175 -0.0280  0.2449  0.4769
 9670W        W25931   7.863   6.124   4.693 -0.3173 -0.2895 -0.0164
 9671W        W25932  14.096   6.130   3.699  0.0410 -0.0341 -0.3700
 9672W        W25933  14.375  14.058  11.062 -0.1408  0.1672  0.2016
 9673W        W25934  16.912   2.234   5.777  0.0747  0.0413 -0.0895
 9674W        W25935  16.536   3.002  13.949  0.1569 -0.0229 -0.1622
 9675W        W25936   7.412  17.828   1.546 -0.0216 -0.1453 -0.1927
 9676W        W25937  17.717   3.073  13.173  0.0347  0.0184 -0.1619
 9677W        W25938  18.520   4.849  12.777  0.0625 -0.0172 -0.2903
 9678W        W25939  11.533  15.019  12.789 -0.0536  0.0493 -0.0536
 9679W        W25940  13.028  15.456   1.940  0.4861 -0.0036 -0.0259
 9680W        W25941   8.498   8.864   2.398  0.0590  0.3703  0.1575
 9681W        W25942   6.496   2.509   0.779 -0.4265  0.1910  0.0382
 9682W        W25943   7.128   0.868   1.970 -0.2885  0.1572 -0.0483
 9683W        W25944  15.870  18.275   4.304  0.2486 -0.0554 -0.5268
 9684W        W25945  18.614   7.685  14.421 -0.0366  0.0639 -0.0991
 9685W        W25946  11.621  17.120   4.456 -0.0169 -0.0571 -0.0124
 9686W        W25947  16.854  14.163  10.804  0.4842 -0.1573 -0.1038
 9687W        W25948  16.581   7.621   0.856 -0.2855 -0.1272 -0.0524
 9688W        W25949   1.925  15.481   0.305  0.1633  0.2837  0.0722
 9689W        W25950  16.532   2.931  15.269 -0.0682  0.0188 -0.3578
 9690W        W25951  11.254   1.171  12.453  0.2235 -0.1671  0.0048
 9691W        W25952   4.738   8.899  10.614  0.2975 -0.2235 -0.1018
 9692W        W25953  18.070   6.356   1.451 -0.0711 -0.2037 -0.1206
 9693W        W25954  14.185   7.581  14.282  0.0883  0.0626  0.0338
 9694W        W25955   2.437   5.607  14.788  0.2157 -0.2347 -0.0808
 9695W        W25956   3.507   7.701   5.301  0.0346 -0.2788 -0.0070
 9696W        W25957  11.793   8.420   1.915  0.0066  0.2206  0.3578
 9697W        W25958  11.390   7.762   5.309 -0.0602  0.1150  0.3281
 9698W        W25959   8.369  12.868  14.904  0.3455  0.2232  0.3283
 9699W        W25960   0.397   3.479   0.394 -0.0601 -0.1640  0.1142
 9700W        W25961   3.322   8.120  11.123  0.2931  0.1194 -0.3126
 9701W        W25962   3.045   2.224   5.651  0.0351  0.3594 -0.2665
 9702W        W25963   7.038   4.210   4.368  0.0432 -0.1240  0.2781
 9703W        W25964  17.326  13.137   2.815  0.1447 -0.2156  0.0592
 9704W        W25965   0.766  11.082  13.366 -0.2651  0.4268 -0.1473
 9705W        W25966  17.622   4.284   4.783 -0.0276  0.1366 -0.1266
 9706W        W25967   7.045   3.254   6.035 -0.6581 -0.3771 -0.0822
 9707W        W25968  11.354  14.599   4.517 -0.1184 -0.0356  0.0718
 9708W        W25969  11.193  10.666   4.304 -0.3313 -0.2351 -0.0258
 9709W        W25970  13.480  10.664  13.609 -0.2222  0.0935 -0.3695
 9710W        W25971  17.485   0.106  10.750 -0.1423  0.0720 -0.2346
 9711W        W25972  14.501   2.607  14.007  0.0000 -0.0075 -0.1062
 9712W        W25973   1.036   7.294   3.816  0.0243  0.0128  0.0826
 9713W        W25974  15.563   7.906  15.589  0.1866 -0.2565 -0.1539
 9714W        W25975   1.545  14.368   2.819  0.0056  0.2905  0.0314
 9715W        W25976  10.853  12.659  12.351 -0.0413 -0.1552 -0.1820
 9716W        W25977  12.955   5.870   3.413  0.4104  0.0046 -0.0556
 9717W        W25978   7.998   9.787   1.550  0.0169  0.1399 -0.1442
 9718W        W25979  12.976   1.101   4.560 -0.2588  0.1874  0.0252
 9719W        W25980  15.433  18.610  10.388 -0.1505  0.2141 -0.0718
 9720W        W25981   5.687  16.705  13.823 -0.0561  0.1528 -0.1204
 9721W        W25982   8.127   4.489  13.307  0.1342 -0.0915 -0.1112
 9722W        W25983  12.817   5.311   1.513 -0.2919 -0.2442 -0.1385
 9723W        W25984   5.083   5.412  14.981 -0.0436 -0.3598 -0.3830
 9724W        W25985  11.076  17.258  12.552  0.1592  0.0865 -0.1017
 9725W        W25986   5.650   6.257   2.702  0.1803 -0.4355 -0.1563
 9726W        W25987  17.710  11.666  12.929 -0.0588  0.2864  0.2757
 9727W        W25988   7.042  13.837   0.824  0.0326 -0.1365 -0.2074
 9728W        W25989   9.690   7.282   4.140  0.1540  0.0463  0.0864
 9729W        W25990  11.938  18.651   3.236  0.1855  0.0805 -0.0818
 9730W        W25991   7.796   6.628   3.787 -0.0054  0.2425 -0.0599
 9731W        W25992  15.148   1.325   4.120  0.0111 -0.3958 -0.0934
 9732W        W25993   5.959  17.551  12.830 -0.0068  0.3247  0.3207
 9733W        W25994  10.330  18.804   3.989 -0.3019 -0.0570 -0.0761
 9734W        W25995   6.099   5.198   3.274  0.0025 -0.3189  0.1801
 9735W        W25996  17.318   9.878   3.972 -0.2999  0.3082 -0.5398
 9736W        W25997  14.540   0.709   3.456  0.0424  0.0781 -0.1931
 9737W        W25998  14.651  13.661  14.494 -0.1544 -0.0599  0.0228
 9738W        W25999   4.389   2.571  12.660 -0.1177 -0.0895  0.2442
 9739W        W26000  14.533   2.409  12.824  0.1926  0.0563  0.1782
 9740W        W26001  13.277  12.011  11.204  0.0896 -0.2596  0.0503
 9741W        W26002  15.162  16.063  10.829 -0.0311  0.3023  0.3865
 9742W        W26003   3.095  16.351  14.178  0.1242  0.3009 -0.1186
 9743W        W26004  10.400   7.588   0.651 -0.1744 -0.1454  0.3515
 9744W        W26005   4.440  13.406   5.794 -0.0252  0.2292  0.0824
 9745W        W26006   7.035  14.088  10.540  0.3191  0.0406 -0.0505
 9746W        W26007  10.742   7.876   1.493  0.2095  0.2227  0.0350
 9747W        W26008  14.032  15.383   3.248  0.0526 -0.2169  0.2334
 9748W        W26009  17.600  12.124  11.083  0.2079  0.0866 -0.1281
 9749W        W26010   4.346   4.346  11.327 -0.1743  0.0322 -0.0236
 9750W        W26011  17.301  11.197   3.617 -0.1535  0.1595  0.2361
 9751W        W26012   1.784   5.997  14.268  0.0633  0.2939 -0.3093
 9752W        W26013   5.810   2.270  11.945 -0.4685 -0.0801  0.0602
 9753W        W26014   0.594  16.296  15.336  0.0138  0.1695  0.0101
 9754W        W26015   0.001   1.547  12.467  0.2065 -0.0990 -0.0969
 9755W        W26016   5.984  15.908   3.556 -0.1075  0.2663  0.0419
 9756W        W26017  18.249  17.663  13.073 -0.1305  0.0016 -0.0716
 9757W        W26018   7.666  10.634   3.606  0.1946 -0.1251  0.0824
 9758W        W26019  14.267   5.203  15.532 -0.3928  0.0343 -0.3759
 9759W        W26020  16.035   5.704  10.531  0.0973  0.1771 -0.0405
 9760W        W26021  15.820   1.671   4.917  0.1833  0.0205 -0.0028
 9761W        W26022   1.649  18.686   0.015  0.2547  0.2708 -0.2348
 9762W        W26023   6.402  16.703   2.626 -0.3926 -0.2861  0.1472
 9763W        W26024   0.724  10.813   0.294 -0.1791  0.0366  0.1297
 9764W        W26025  11.416  15.043   2.752 -0.4041  0.0120 -0.1524
 9765W        W26026  15.630   1.453  11.262  0.1469  0.2773  0.0006
 9766W        W26027  13.017  12.680   0.027  0.0450  0.3153  0.1911
 9767W        W26028  11.099  12.002  13.070 -0.1675 -0.2648  0.1749
 9768W        W26029  15.572   3.033   4.374 -0.2473 -0.1839 -0.1742
 9769W        W26030  14.738  12.828   4.565  0.1651  0.1400  0.0806
 9770W        W26031   3.706  14.479   2.511  0.3596  0.0866 -0.2367
 9771W        W26032  15.861  17.172  10.648  0.2801 -0.0598 -0.0968
 9772W        W26033   3.565   8.232  13.132  0.0504 -0.1368  0.2208
 9773W        W26034  18.565  16.170  14.697 -0.1826  0.0013  0.0665
 9774W        W26035  16.536  16.817  12.909 -0.0551  0.3134  0.1853
 9775W        W26036   8.859   0.809  10.839  0.2323 -0.2382  0.0798
 9776W        W26037  12.213   4.613   4.539  0.1280 -0.0719 -0.1966
 9777W        W26038   3.099   1.651   4.957 -0.0405 -0.2934 -0.3260
 9778W        W26039   1.892   9.245   4.037 -0.1741 -0.0867  0.0239
 9779W        W26040  16.527   7.980   1.306 -0.1853 -0.2865  0.1788
 9780W        W26041  17.618   2.307   4.308 -0.0205 -0.2459  0.0616
 9781W        W26042  15.419   8.598   1.837  0.1137 -0.0670  0.0403
 9782W        W26043   3.231  13.011   5.359 -0.2133 -0.0270  0.0196
 9783W        W26044  15.377  15.582  12.837 -0.0922  0.2947  0.0638
 9784W        W26045   7.591   7.105   1.820 -0.0583  0.0293  0.3341
 9785W        W26046  15.107  10.456   3.280 -0.2501 -0.2658 -0.0777
 9786W        W26047  10.143  11.119  10.975  0.0151 -0.1490  0.2627
 9787W        W26048  11.645   1.818   2.150 -0.0279  0.2515 -0.2626
 9788W        W26049   5.468   9.875  14.366  0.1085  0.0225  0.0557
 9789W        W26050  14.511   2.918  11.638 -0.0905  0.0639 -0.0572
 9790W        W26051  11.925   4.922   1.430 -0.0216 -0.0579 -0.0818
 9791W        W26052   2.779   6.768  13.466  0.0629 -0.0680  0.0785
 9792W        W26053   5.120  17.388  12.857  0.4040  0.1624  0.1021
 9793W        W26054   3.873   8.515  14.812  0.0129 -0.1400 -0.2107
 9794W        W26055   0.756  16.934  14.414  0.5392 -0.3113  0.0806
 9795W        W26056   5.083   1.796   0.516 -0.1433 -0.0192  0.1672
 9796W        W26057  15.851  10.429   1.055  0.2874 -0.2181  0.1553
 9797W        W26058   0.449   6.888   0.683  0.4162 -0.0175 -0.1196
 9798W        W26059   5.989   8.860  14.110 -0.2943 -0.0839  0.1567
 9799W        W26060  10.091  16.841  15.325  0.0406  0.0417  0.0145
 9800W        W26061   2.509   0.264  15.127 -0.3525 -0.0242 -0.0551
 9801W        W26062   0.308   8.106  12.848 -0.3715  0.0407  0.0164
 9802W        W26063  10.921  12.782   4.038 -0.2764 -0.1799 -0.1862
 9803W        W26064  17.952  10.500   3.435 -0.0180  0.2464  0.0556
 9804W        W26065   5.336   8.127  12.858  0.0534  0.2923 -0.0678
 9805W        W26066   4.187   7.220   2.479  0.4122  0.3713  0.0325
 9806W        W26067   3.509   2.530  11.627  0.2206 -0.1632  0.0835
 9807W        W26068  18.438   3.257  12.991 -0.1100  0.2451  0.0843
 9808W        W26069  12.856  12.256   1.506  0.1109  0.0744  0.0934
 9809W        W26070   2.886   4.599   1.818  0.1624 -0.1084 -0.0581
 9810W        W26071   2.407   9.518   3.608 -0.0982 -0.2589  0.2501
 9811W        W26072   0.746   7.735   2.841  0.1353 -0.0987 -0.0688
 9812W        W26073  16.222   8.547  12.670  0.1951  0.0576 -0.1490
 9813W        W26074   2.185  10.215   3.740  0.1145  0.0353  0.0152
 9814W        W26075  12.797   4.901  13.933  0.0272 -0.1264 -0.1008
 9815W        W26076  17.287   9.393  15.294 -0.1865  0.2018 -0.0929
 9816W        W26077  13.427   6.317  13.881  0.0317 -0.2407  0.3257
 9817W        W26078  18.292  13.298  14.918  0.0597  0.2747  0.1154
 9818W        W26079  10.617   2.831   2.106  0.0670 -0.0694  0.0004
 9819W        W26080   7.017  13.543  11.030 -0.0869  0.0815  0.1625
 9820W        W26081   3.219  18.004   4.759 -0.0660 -0.1657 -0.0301
 9821W        W26082  10.743   7.132   2.289  0.0932  0.0164 -0.3400
 9822W        W26083  11.704  11.623   0.897 -0.1816 -0.0100 -0.0050
 9823W        W26084   5.948  10.753   0.871 -0.1151 -0.6440  0.0484
 9824W        W26085  15.201  18.208   1.776 -0.1512 -0.0385  0.2619
 9825W        W26086   8.907   9.989   1.858 -0.2551 -0.0578  0.3180
 9826W        W26087   5.216  17.303  10.957  0.4268  0.0309 -0.0938
 9827W        W26088  16.337   1.289   4.275  0.0384 -0.0711 -0.2440
 9828W        W26089   1.568  10.019  14.238  0.0202 -0.3271  0.1798
 9829W        W26090   6.145   4.925  13.524 -0.0926 -0.0912 -0.0299
 9830W        W26091  15.238  17.517   3.809 -0.0550 -0.1964  0.3207
 9831W        W26092  11.319   6.676  13.816 -0.1237 -0.0179  0.0262
 9832W        W26093   5.183   9.864   3.137  0.3245  0.3216 -0.2592
 9833W        W26094  15.770  16.153   4.956 -0.0326  0.0410 -0.0568
 9834W        W26095   4.696  15.485   4.079 -0.0870 -0.0069 -0.4246
 9835W        W26096   6.744   8.525   5.766 -0.1677 -0.0385 -0.2055
 9836W        W26097   8.198   1.930  15.646 -0.2792 -0.2557 -0.2211
 9837W        W26098  17.250  12.611   2.818 -0.0990 -0.2347  0.0369
 9838W        W26099  18.069  10.017   3.232 -0.3656 -0.2220  0.0751
 9839W        W26100   5.130   6.212   0.582 -0.2775  0.0318  0.2413
 9840W        W26101   5.279   6.002  11.130  0.2269  0.3444  0.3267
 9841W        W26102  10.965  10.595  11.757  0.0570  0.0290  0.2913
 9842W        W26103  15.746   8.824  13.720 -0.1313 -0.1389  0.0183
 9843W        W26104   4.678  16.272   2.847  0.3283  0.0314 -0.0487
 9844W        W26105   9.131   1.152  13.570  0.0063 -0.0015  0.3956
 9845W        W26106   9.601  13.560  10.881  0.0054 -0.2751 -0.1270
 9846W        W26107  12.041  17.738   0.296 -0.0233 -0.0252 -0.0293
 9847W        W26108  11.042  14.904  13.871  0.2182 -0.0006  0.2070
 9848W        W26109  14.889  17.426   3.434  0.1812  0.0276 -0.0875
 9849W        W26110   1.885  11.273  10.934 -0.1116  0.0193 -0.0069
 9850W        W26111  15.463  16.116  13.945  0.1552  0.0584  0.4033
 9851W        W26112  10.282  18.533  12.037 -0.0117 -0.3924 -0.0466
 9852W        W26113   3.857  16.110  11.319 -0.0617 -0.0374 -0.1231
 9853W        W26114   8.353  14.457   2.383  0.3986 -0.0696 -0.0479
 9854W        W26115   7.006   5.221   2.271 -0.0845 -0.1297 -0.0807
 9855W        W26116  12.792  17.917   0.435  0.1164  0.0540  0.5475
 9856W        W26117   0.851  16.700   2.602 -0.1313 -0.0968  0.0427
 9857W        W26118  14.922   4.600  15.544 -0.2206  0.1510  0.0564
 9858W        W26119   9.599   9.763   0.477  0.3786  0.0890 -0.0704
 9859W        W26120   4.573   5.672   2.777  0.2270  0.0720 -0.0973
 9860W        W26121   5.228  11.075   2.589  0.1332  0.2177 -0.1565
 9861W        W26122  13.324  13.885  10.854  0.0393  0.1121 -0.0894
 9862W        W26123   3.625  14.470  14.929  0.0553 -0.1997 -0.1332
 9863W        W26124   2.036   5.737   3.991 -0.0878 -0.1265  0.2111
 9864W        W26125   2.795   5.400   2.458  0.1587 -0.2415 -0.2693
 9865W        W26126  15.511   5.024  11.404  0.0145 -0.0213 -0.0696
 9866W        W26127   6.929  13.375  15.079 -0.3072 -0.2002  0.5109
 9867W        W26128  16.398  15.699  15.094 -0.0498 -0.3415 -0.0270
 9868W        W26129   3.785   8.001   3.464 -0.0077 -0.1941 -0.0660
 9869W        W26130   0.557  15.861  13.843 -0.1137 -0.1054 -0.1766
 9870W        W26131  11.689  11.086  12.270 -0.2254 -0.2349 -0.0365
 9871W        W26132  13.373  16.291  12.471  0.4387 -0.3023 -0.3773
 9872W        W26133   9.746  14.278   3.075  0.1608 -0.3097  0.1477
 9873W        W26134   3.806   5.738   1.725  0.3271  0.1493 -0.2766
 9874W        W26135  14.377  13.052  12.013  0.0142  0.1776 -0.0966
 9875W        W26136   3.546   8.211   5.041 -0.2118 -0.1414 -0.2513
 9876W        W26137  14.710   8.539   1.085  0.0311 -0.2645 -0.2895
 9877W        W26138   3.776   2.757  14.498 -0.3618  0.0311  0.2128
 9878W        W26139  12.262   3.843   3.967 -0.0887 -0.0993 -0.1388
 9879W        W26140   5.942  17.713   0.642  0.2469 -0.0082 -0.1732
 9880W        W26141  18.737   3.323  14.965 -0.3156  0.2426  0.0155
 9881W        W26142   5.495  14.722  14.937  0.0494  0.0784 -0.4066
 9882W        W26143   0.520   7.062   3.851  0.2047  0.3013 -0.1838
 9883W        W26144  11.785  17.800  13.420 -0.0020  0.2310 -0.0679
 9884W        W26145   8.087  14.831  14.167  0.1380  0.2974 -0.0886
 9885W        W26146   9.707  17.123   2.627  0.1186 -0.1607  0.1099
 9886W        W26147  15.191   3.691  11.163 -0.3299  0.2095 -0.0123
 9887W        W26148  10.755  10.371  15.385 -0.1792 -0.1087 -0.2958
 9888W        W26149   2.094   5.906   3.483 -0.1378  0.1549 -0.2180
 9889W        W26150   4.493  12.684   3.276 -0.1246 -0.1273 -0.0206
 9890W        W26151   2.940  11.497  11.268 -0.1359  0.0643 -0.2045
 9891W        W26152   4.483   3.750  13.761 -0.0422  0.3104  0.1902
 9892W        W26153  10.747  13.528   4.487 -0.0217 -0.1402  0.0990
 9893W        W26154   1.080  17.799  14.570 -0.3128 -0.2888  0.0708
 9894W        W26155   3.444   2.965  11.827  0.3826 -0.0858 -0.1399
 9895W        W26156  17.342  13.196  13.306 -0.3862  0.1783  0.0284
 9896W        W26157   8.710  11.250  14.753  0.0072  0.2599  0.0078
 9897W        W26158   4.664  13.416   1.316  0.2128  0.0899 -0.1706
 9898W        W26159  13.295  17.531   2.118 -0.1337  0.3510  0.2085
 9899W        W26160   9.754   8.907  15.635  0.3226  0.6250  0.0548
 9900W        W26161  16.083   6.137  12.728  0.3913  0.3512 -0.0368
 9901W        W26162   2.060   8.267   3.521 -0.2054  0.1060  0.1409
 9902W        W26163   9.315  14.617  15.061  0.0429 -0.0491  0.1569
 9903W        W26164  12.063   7.473  12.616  0.2267 -0.3287  0.1871
 9904W        W26165  16.306   4.451   2.887  0.2072  0.2365 -0.0988
 9905W        W26166  17.776  14.925  13.124 -0.2918 -0.0335 -0.2298
 9906W        W26167  10.151  12.854   4.389  0.3540 -0.0550  0.0814
 9907W        W26168  18.039  16.735  10.782 -0.0364 -0.1336  0.3097
 9908W        W26169   9.428  18.114   1.643 -0.1872 -0.0526 -0.1207
 9909W        W26170  14.203   0.277   3.505 -0.0152  0.2322  0.2292
 9910W        W26171   1.835   8.906  15.141  0.0620 -0.1089 -0.0516
 9911W        W26172   0.562   5.568  12.345 -0.4523 -0.1880 -0.1706
 9912W        W26173  16.112   1.831  12.609  0.0874 -0.0235  0.3827
 9913W        W26174  16.723  12.009  10.516 -0.1233 -0.3204  0.0979
 9914W        W26175   7.956  14.354   4.898 -0.0031 -0.2232  0.1419
 9915W        W26176   9.691   0.319   2.700  0.0519 -0.3128 -0.3704
 9916W        W26177   5.760   3.758  13.359  0.3474  0.1297 -0.3334
 9917W        W26178  11.114  10.988   0.493  0.1614 -0.1206  0.2761
 9918W        W26179  11.382   5.498  12.514 -0.1533  0.1360 -0.0897
 9919W        W26180   3.270   6.396  15.204 -0.3326  0.3522 -0.0152
 9920W        W26181   2.022   0.008   1.764  0.0318  0.0810  0.1940
 9921W        W26182  15.744  16.002  14.427 -0.3270 -0.1049 -0.1351
 9922W        W26183   6.980   5.796   2.226  0.1999 -0.3338 -0.3093
 9923W        W26184  15.075  14.656  11.154 -0.0997 -0.0808 -0.0661
 9924W        W26185  12.756  14.164   4.507 -0.4248  0.0187 -0.0180
 9925W        W26186  11.511  11.803   3.932 -0.1555 -0.0966 -0.0990
 9926W        W26187  14.364  13.278   0.058  0.3822  0.2553  0.3035
 9927W        W26188  10.188   4.601  11.659  0.0987 -0.0345  0.2488
 9928W        W26189   0.847  18.337  11.550 -0.1673 -0.0011 -0.0395
 9929W        W26190  13.656   1.492  11.895  0.2915  0.2971  0.0726
 9930W        W26191  14.455   3.479  14.924  0.0600 -0.0482  0.1645
 9931W        W26192   9.295  13.942  10.636 -0.0797 -0.3847  0.1327
 9932W        W26193  13.954  11.113   4.847 -0.0213  0.0369 -0.1855
 9933W        W26194   7.213   0.285   4.589  0.1612 -0.1315 -0.0829
 9934W        W26195  11.301   9.205   1.592  0.1067  0.1201 -0.2182
 9935W        W26196  16.388  14.502  13.280 -0.3969 -0.0405  0.1443
 9936W        W26197   6.829  18.083  13.966 -0.0137  0.2635  0.0932
 9937W        W26198   0.708  15.033   3.895  0.3034  0.0186  0.1343
 9938W        W26199   5.933  12.370  13.718  0.0525  0.0534 -0.0190
 9939W        W26200  14.817   8.291  12.164 -0.0297 -0.0842 -0.1091
 9940W        W26201  10.553   2.623  12.565  0.2345 -0.1086  0.1605
 9941W        W26202   0.357  17.584  10.333 -0.0368 -0.2223  0.3605
 9942W        W26203  15.044   6.513   0.806  0.0076 -0.0497 -0.2335
 9943W        W26204  17.225  10.594  15.636  0.0884  0.1247  0.1531
 9944W        W26205  10.864   8.447   5.379 -0.1060 -0.3406  0.0117
 9945W        W26206  12.022   4.593  14.362 -0.1181 -0.0715 -0.0871
 9946W        W26207  17.022   2.078  11.062 -0.0437 -0.0994  0.0324
 9947W        W26208  17.386   2.687  15.404 -0.1367  0.0128 -0.1829
 9948W        W26209  17.088   0.628   0.494  0.0390  0.1228 -0.1393
 9949W        W26210   7.053   9.900   0.398 -0.1609 -0.2498 -0.0510
 9950W        W26211  13.414  14.476  15.397  0.1002  0.0496 -0.0009
 9951W        W26212   6.791   0.476   1.904  0.0086  0.0632  0.2942
 9952W        W26213  11.808  16.834  13.124  0.0672 -0.2538 -0.0705
 9953W        W26214   8.316  17.030   3.300 -0.3392  0.1571  0.0444
 9954W        W26215  11.389  14.395   3.416  0.0069 -0.0220 -0.2081
 9955W        W26216  17.541  12.598  11.299 -0.1409  0.3193  0.1973
 9956W        W26217   4.681  14.429  15.294 -0.2941  0.3533  0.2278
 9957W        W26218  16.481  14.246  12.216  0.0053  0.0417  0.0752
 9958W        W26219   1.025   1.193   1.263  0.2573 -0.0895 -0.0324
 9959W        W26220  12.432   8.419  13.510  0.0230  0.0587  0.4829
 9960W        W26221  13.869  14.466  10.380 -0.0081 -0.1383 -0.0707
 9961W        W26222  13.135   6.255  14.979 -0.2661  0.0936  0.0249
 9962W        W26223  17.876   9.591   2.533  0.0828 -0.0822  0.0611
 9963W        W26224  15.351   9.704  14.566  0.0024  0.0048  0.1169
 9964W        W26225  12.618   4.358   1.014 -0.1058 -0.0817 -0.0306
 9965W        W26226  16.415   4.884   3.765 -0.2694  0.1287 -0.3156
 9966W        W26227   9.718  16.720  12.334  0.0329 -0.2332 -0.0214
 9967W        W26228   6.833   1.867   2.069  0.0356  0.2158  0.1598
 9968W        W26229   8.710  16.964  12.821  0.2398  0.0079  0.0718
 9969W        W26230   3.810  10.612   9.853  0.0381 -0.0041 -0.0556
 9970W        W26231  13.080   6.311   2.397 -0.1535 -0.2769  0.2367
 9971W        W26232  12.477  12.162   1.159  0.1228 -0.1743  0.1614
 9972W        W26233   0.140   5.804   4.539  0.1376 -0.1768 -0.0960
 9973W        W26234  16.703  15.840   2.766  0.2202 -0.1768  0.1491
 9974W        W26235   6.216  11.101   4.550  0.0033 -0.1289  0.0991
 9975W        W26236   6.724  15.206  14.649 -0.0209 -0.2282 -0.3686
 9976W        W26237   8.753  10.885  13.102  0.0769 -0.1617 -0.0906
 9977W        W26238   8.719  11.921   0.328 -0.1303  0.2326 -0.1803
 9978W        W26239   7.658   3.941   5.582  0.3652 -0.1468 -0.0065
 9979W        W26240   0.457   6.411  13.550 -0.0995 -0.0543  0.0072
 9980W        W26241   3.828  11.768  14.179 -0.0337  0.0625  0.0556
 9981W        W26242  16.583  14.339   5.956  0.3921  0.0516  0.1784
 9982W        W26243  14.669   7.706   3.829 -0.4750 -0.5329 -0.0572
 9983W        W26244   2.691  11.040   4.525 -0.0014  0.1504 -0.2705
 9984W        W26245   6.989   2.805   3.831  0.3146 -0.0484  0.0121
 9985W        W26246   9.068  13.534  13.693  0.3982 -0.2061 -0.0222
 9986W        W26247   5.505  16.898   2.339  0.0278  0.1645 -0.0551
 9987W        W26248   8.151   9.024  13.255  0.0072 -0.0303  0.0765
 9988W        W26249   8.593   3.479   0.081 -0.0822 -0.0557 -0.2652
 9989W        W26250  17.485  11.218   2.845 -0.0544  0.1568 -0.1772
 9990W        W26251  10.216  17.113   1.040 -0.2080  0.0152  0.3025
 9991W        W26252   6.006  12.410   5.752 -0.0351 -0.2361 -0.0167
 9992W        W26253  15.285   5.689  14.517 -0.0170 -0.0220  0.2044
 9993W        W26254  12.071   1.116  12.494  0.2400 -0.1351 -0.0447
 9994W        W26255   3.434  10.936   1.651  0.0937  0.2244  0.1347
 9995W        W26256   3.877   7.170  13.032 -0.1819  0.1939 -0.0395
 9996W        W26257   5.738  15.065  12.207 -0.0105  0.3552 -0.4376
 9997W        W26258   8.128  17.707   5.121  0.2307  0.1782  0.0396
 9998W        W26259  12.596   6.630  12.832 -0.2351  0.0207  0.1545
 9999W        W26260  12.515  11.292   0.389 -0.1341 -0.3872  0.1567
10000W        W26261  14.909  10.053  11.082  0.2473  0.1143  0.1360
10001W        W26262   1.097   9.518   0.620 -0.2867 -0.4294  0.0683
10002W        W26263  12.214  17.333  13.881 -0.0141  0.3441  0.0566
10003W        W26264   2.413   8.003   0.843 -0.3610  0.0148  0.1996
10004W        W26265   2.677   0.714  12.009 -0.0565  0.3816  0.0338
10005W        W26266  10.502  10.661  12.231 -0.5263 -0.0675 -0.0156
10006W        W26267  18.396  18.687   2.961 -0.0064 -0.2561 -0.3557
10007W        W26268   8.529   3.558   5.805 -0.2881 -0.1551 -0.1713
10008W        W26269  16.010  11.026   2.148  0.1901  0.1748 -0.0155
10009W        W26270   2.877   4.370   4.823  0.1592  0.2793 -0.3028
10010W        W26271  14.723   4.093   1.909 -0.2852 -0.1603  0.0721
10011W        W26272   3.444  15.306   2.413 -0.0900  0.0225 -0.1783
10012W        W26273   9.096  11.421  14.426  0.0451  0.1391  0.0515
10013W        W26274   9.342  11.562   0.431  0.2309 -0.1816  0.1002
10014W        W26275  18.554  17.906  14.449 -0.0668  0.2859 -0.0040
10015W        W26276  13.298  12.478  14.582 -0.3314  0.0821 -0.4448
10016W        W26277  12.539  11.633  14.357  0.1800 -0.3496  0.0370
10017W        W26278   4.766  16.690  12.722  0.2764 -0.0830 -0.1670
10018W        W26279   9.209   8.873   5.921  0.0676  0.0110 -0.0835
10019W        W26280   0.805   4.326  11.616  0.1153 -0.1435  0.1619
10020W        W26281   0.201  14.163   3.825  0.0029  0.1509  0.0095
10021W        W26282  15.701  14.549   3.186 -0.1128  0.0320 -0.0590
10022W        W26283  16.007  11.387  11.362  0.0715 -0.0364  0.0348
10023W        W26284   9.928   3.658  15.326 -0.0352 -0.0453  0.1892
10024W        W26285   5.524  15.217  13.497  0.1359  0.2056  0.1814
10025W        W26286  14.465   7.094  15.300 -0.1100 -0.1499  0.2137
10026W        W26287   5.003   1.018   0.944  0.0481 -0.2299 -0.1541
10027W        W26288   0.471   3.614   2.062  0.1811  0.0035  0.1211
10028W        W26289  16.403  17.394   4.717  0.1467  0.1048 -0.0467
10029W        W26290   8.684   5.595  14.262 -0.0845 -0.0154 -0.2291
10030W        W26291  16.670  12.606   1.191 -0.0259 -0.1778 -0.0287
10031W        W26292  15.173   3.859   3.762 -0.1388  0.1920 -0.1743
10032W        W26293   4.939   6.448  13.397  0.1928  0.2162  0.0580
10033W        W26294   2.785   8.636  15.374 -0.2434  0.3541  0.2392
10034W        W26295  17.166  11.666  13.035 -0.2026 -0.0423 -0.1942
10035W        W26296   9.193   8.162  13.658 -0.1017  0.0762  0.0097
10036W        W26297  12.907   6.470   3.297 -0.1792 -0.3838  0.1220
10037W        W26298  11.591   7.709  14.145  0.0656 -0.3290  0.2108
10038W        W26299   4.790  11.162   0.831 -0.1791  0.1227 -0.3101
10039W        W26300   3.351   9.944   0.442 -0.1820 -0.3491  0.2680
10040W        W26301  12.591   5.761   2.218  0.0702  0.1206 -0.0511
10041W        W26302  15.769   6.485  12.607  0.2270 -0.0769  0.0245
10042W        W26303  11.139  10.257  13.201 -0.0764 -0.0083 -0.3158
10043W        W26304  15.676   7.707  11.528 -0.3493  0.2059 -0.1248
10044W        W26305   7.422   9.765  11.706 -0.2500 -0.2508  0.3685
10045W        W26306  10.570  10.994   1.372 -0.0282  0.2663  0.2051
10046W        W26307   9.472  13.875   5.049 -0.0424  0.2014 -0.0775
10047W        W26308   9.857   3.022  14.471  0.3312 -0.0631 -0.0839
10048W        W26309   5.992  13.100   2.445  0.0782 -0.0878 -0.1178
10049W        W26310  15.898   7.972  11.202  0.2280  0.0998  0.0716
10050W        W26311   1.638   0.620  14.221  0.1255  0.0341 -0.1518
10051W        W26312   4.442  15.335   5.192  0.0489 -0.1744 -0.1277
10052W        W26313  14.951  13.858   1.739 -0.0153 -0.0289  0.2009
10053W        W26314  11.033  16.638   1.390 -0.1954 -0.3636 -0.3379
10054W        W26315   6.338   4.315  12.268 -0.1135 -0.1090 -0.0164
10055W        W26316  10.028   5.871   4.134  0.3540  0.1085  0.2601
10056W        W26317  12.149   1.516   0.717  0.1175  0.2900 -0.0216
10057W        W26318   5.515  11.499   2.872 -0.1298  0.2360  0.0441
10058W        W26319   0.200  16.695   4.595  0.0047  0.2477 -0.0199
10059W        W26320   7.232   1.573  12.821 -0.1727 -0.1012  0.0320
10060W        W26321  11.576  16.272  13.248 -0.3734 -0.2688  0.1922
10061W        W26322   8.421  18.398   1.793  0.3160 -0.0193  0.2752
10062W        W26323   2.666  14.818   4.943 -0.1433 -0.2132  0.5862
10063W        W26324   8.218   8.661   0.906  0.2711 -0.0881  0.2627
10064W        W26325  16.275  14.799  11.324 -0.0062  0.0740 -0.1640
10065W        W26326   3.280   9.998  12.350 -0.0361 -0.1428  0.1111
10066W        W26327  10.792  17.842   1.604 -0.0217 -0.1614  0.2208
10067W        W26328  12.005   0.119   5.109 -0.0160  0.2154  0.0054
10068W        W26329   5.845   4.491  14.211 -0.0951 -0.3953 -0.0343
10069W        W26330   5.728   8.567  12.374  0.4066  0.3427 -0.0704
10070W        W26331  16.434  18.171   1.052  0.0726  0.1875 -0.0959
10071W        W26332   6.401   5.325  13.677 -0.1568  0.1540 -0.1691
10072W        W26333   3.278   0.400  11.564 -0.0886  0.1646  0.0856
10073W        W26334   4.830   5.876   2.319  0.2867  0.0335  0.2914
10074W        W26335   1.991   5.484  13.183 -0.0095 -0.2931  0.2650
10075W        W26336  15.169  16.163   2.333  0.1996 -0.0907  0.0426
10076W        W26337   9.197  14.455   0.711  0.3441 -0.3095  0.0382
10077W        W26338  13.734  12.534   3.744 -0.1694 -0.1376 -0.1067
10078W        W26339  16.238  18.818   4.251 -0.0589 -0.0400  0.1699
10079W        W26340  15.255  16.771  12.593  0.1745  0.1410  0.0756
10080W        W26341   9.125  15.310   4.603  0.2899 -0.1061 -0.2214
10081W        W26342  13.678   7.300   4.543  0.3491 -0.1608 -0.1055
10082W        W26343   2.493   1.438  15.354 -0.0371 -0.0632  0.1203
10083W        W26344  11.811   2.783  11.646 -0.1759  0.1596 -0.0217
10084W        W26345  13.920   7.131   2.844 -0.1597 -0.2111  0.1854
10085W        W26346  18.381  13.165   4.725 -0.1818 -0.0814 -0.1395
10086W        W26347  12.302   1.796   0.300 -0.1913  0.0661  0.1317
10087W        W26348  11.451   4.386   1.931 -0.0436 -0.2386 -0.1490
10088W        W26349   9.998  13.517  13.458 -0.1726 -0.3299  0.2529
10089W        W26350  17.179  14.258   3.974  0.0323  0.2512  0.0284
10090W        W26351  15.798   4.242  10.569 -0.3021 -0.1148 -0.3469
10091W        W26352   0.598  14.507   3.942 -0.0537  0.0192 -0.1206
10092W        W26353  18.625   0.841   4.897  0.0872  0.0814  0.0647
10093W        W26354  11.290   0.248  14.758  0.0120  0.0174  0.0573
10094W        W26355  10.648  13.824   5.266  0.0173 -0.2294 -0.1570
10095W        W26356  12.647   0.823  13.237 -0.0416 -0.0750  0.1815
10096W        W26357   7.131  12.136  13.154  0.0590  0.1909  0.0418
10097W        W26358   8.416  10.358  13.819 -0.0748  0.1181  0.0942
10098W        W26359  16.993   9.278   3.800 -0.0368  0.1007 -0.1441
10099W        W26360  11.331   1.453   4.788 -0.1155 -0.0169 -0.1080
10100W        W26361  15.003  14.432  15.108  0.0537  0.2383 -0.0437
10101W        W26362  13.894   8.199  11.152 -0.0457  0.0394 -0.0072
10102W        W26363   0.999   8.996   2.034 -0.1737  0.0053 -0.1670
10103W        W26364  18.006   7.100  14.538  0.0604  0.2481  0.2491
10104W        W26365   0.278   8.084   0.016  0.3543 -0.1103  0.1915
10105W        W26366   6.760   3.573  14.696  0.2042  0.0431 -0.3177
10106W        W26367  12.871   5.332  11.413  0.1196 -0.1177 -0.1124
10107W        W26368   4.369  11.009  12.622  0.1789 -0.0864  0.1268
10108W        W26369  17.930   1.552   1.088 -0.0472 -0.1164  0.2555
10109W        W26370  17.229  13.176   0.687 -0.1234  0.0447  0.2385
10110W        W26371  13.843   9.707  14.432  0.2193 -0.0778  0.0841
10111W        W26372  12.986  16.464  10.568  0.1797 -0.1121 -0.3408
10112W        W26373  11.212   4.509   1.082  0.4794  0.1976  0.1888
10113W        W26374  10.122   2.698   3.226 -0.2644 -0.2466 -0.0743
10114W        W26375  12.768  17.273   2.939 -0.3666  0.0852  0.5048
10115W        W26376  16.043  14.193   1.520 -0.2449 -0.2674  0.0137
10116W        W26377  17.387   3.982   4.375 -0.3051 -0.2140  0.0658
10117W        W26378   8.004  17.435   1.245  0.1329  0.0142 -0.0624
10118W        W26379  16.522   2.242   0.694  0.1979  0.1888 -0.1227
10119W        W26380   4.181  13.432   1.273 -0.1886  0.2280  0.0831
10120W        W26381  10.508   3.525   3.577  0.4850  0.1862 -0.1355
10121W        W26382  10.708   9.876   3.169 -0.2011  0.1804 -0.0052
10122W        W26383  15.741   4.364   5.536 -0.4555  0.0467 -0.0174
10123W        W26384  18.434  17.560  11.192 -0.4308 -0.0644 -0.2598
10124W        W26385   9.038   5.596   6.229 -0.4972  0.0878  0.0160
10125W        W26386  15.130   5.321   1.179  0.1700  0.0586 -0.4268
10126W        W26387   5.183   1.229   2.485  0.0718 -0.0331 -0.1297
10127W        W26388   1.681   3.507   1.046 -0.0571  0.0606  0.2206
10128W        W26389  12.936  11.959  13.349 -0.0469 -0.0905 -0.2393
10129W        W26390   5.919  16.962   5.457 -0.0379 -0.1530  0.1218
10130W        W26391  16.644  15.389  12.265 -0.0514 -0.0818 -0.0197
10131W        W26392  16.890  11.560   3.431 -0.1601 -0.1811 -0.2322
10132W        W26393  12.433  10.263  15.258  0.1275 -0.0061  0.4179
10133W        W26394   5.651   4.094  13.781 -0.1487  0.3192  0.2723
10134W        W26395   7.594   8.297   0.509 -0.2299  0.3804  0.1568
10135W        W26396   9.339   8.799  11.660  0.1713 -0.0610  0.1281
10136W        W26397  10.315   7.850   4.688 -0.0699  0.1396 -0.1951
10137W        W26398   7.708  14.752   1.189  0.0188  0.2119  0.2613
10138W        W26399  11.323   3.750   4.925 -0.1227 -0.1208  0.2434
10139W        W26400  15.845   6.595   0.458  0.1025 -0.3036  0.1316
10140W        W26401   7.339  10.975  14.700 -0.0238 -0.0750 -0.3243
10141W        W26402   4.457   4.128   4.976  0.1015  0.2428 -0.0342
10142W        W26403   3.416  16.243   0.989 -0.0154 -0.3074  0.0076
10143W        W26404   7.236  11.790   0.297 -0.0514 -0.2746  0.3467
10144W        W26405   4.333   4.515   5.278 -0.0822 -0.4024 -0.0581
10145W        W26406  12.213  11.991  13.663  0.0156  0.2089  0.2119
10146W        W26407   6.937   9.448   1.904  0.0272 -0.1121  0.0568
10147W        W26408  11.807  17.967   3.039  0.0911  0.1438  0.0087
10148W        W26409   7.582  17.315   6.270 -0.1085 -0.0285  0.1251
10149W        W26410  13.590   7.434   1.999  0.2222 -0.0321  0.1568
10150W        W26411   0.163   3.791  12.333 -0.3484  0.3376 -0.2661
10151W        W26412  16.435  12.588   3.183  0.4481 -0.2747  0.0557
10152W        W26413  15.073   4.370  10.880  0.2093 -0.3350 -0.0527
10153W        W26414  16.417   6.307   2.715  0.0158 -0.2665  0.0905
10154W        W26415   9.969   6.480  14.875 -0.0195 -0.2289 -0.2199
10155W        W26416   9.127   4.162  12.622  0.0299 -0.0607 -0.1752
10156W        W26417  15.441  13.398  15.300 -0.4239  0.3453 -0.2234
10157W        W26418  12.503   5.839  13.148  0.2609  0.2359 -0.3695
10158W        W26419   9.073  13.649   0.929  0.4467  0.0364  0.0304
10159W        W26420   2.747  10.626   3.048  0.0183 -0.1587 -0.4139
10160W        W26421  16.927   6.350   0.955  0.3742  0.0761  0.1228
10161W        W26422  11.881  10.774   3.631 -0.1167  0.5042 -0.3881
10162W        W26423   0.129   9.603  13.817 -0.0317  0.2285  0.1225
10163W        W26424  17.866  17.095   5.616  0.1517  0.0234 -0.0212
10164W        W26425  10.304  14.024  14.229  0.1202  0.0708  0.0883
10165W        W26426  11.659   1.778  13.523 -0.1665  0.0392 -0.3591
10166W        W26427   1.767  17.476   2.414 -0.3911 -0.2073  0.1423
10167W        W26428   3.566   5.703   3.650 -0.1887 -0.0892 -0.1152
10168W        W26429  13.990   3.225  13.538  0.1311 -0.0788  0.0627
10169W        W26430  11.498   8.033  15.580 -0.0866  0.1125  0.1892
10170W        W26431  13.490   1.330   4.070 -0.2285  0.3327 -0.2201
10171W        W26432   9.792   2.618   4.519 -0.1419  0.1795 -0.2566
10172W        W26433  17.965  13.498  14.254  0.1447 -0.3153 -0.0464
10173W        W26434  18.113  13.214  11.918  0.0691 -0.0834 -0.2320
10174W        W26435   7.020   0.967  12.411  0.2218  0.0283 -0.1921
10175W        W26436   5.239  10.948  11.550  0.3814 -0.0657 -0.2102
10176W        W26437   0.131   4.262   1.775  0.0518 -0.1804 -0.1027
10177W        W26438   7.085   0.303  11.507  0.1152 -0.0163  0.0115
10178W        W26439  13.999   9.863   0.467  0.3719  0.1301 -0.1269
10179W        W26440   2.353  18.271  14.088  0.0537  0.1888 -0.0653
10180W        W26441  18.429  13.163  10.169 -0.1201 -0.6181 -0.1083
10181W        W26442   8.898   4.437   3.762 -0.2744 -0.0998  0.0593
10182W        W26443   8.804   2.593  13.375 -0.1004  0.0092 -0.2655
10183W        W26444   0.696   8.691  12.483 -0.0253 -0.2407 -0.0642
10184W        W26445  14.444   7.490  12.035 -0.2307  0.1269 -0.0230
10185W        W26446   9.174   0.890   5.738 -0.0589  0.0163  0.3184
10186W        W26447   7.754  17.928   3.615  0.1514  0.2024  0.0235
10187W        W26448   9.533  12.430   3.475 -0.0218 -0.2005  0.1214
10188W        W26449  17.536  18.405  13.405 -0.1180 -0.0559  0.0961
10189W        W26450  16.510   3.032   3.926  0.1464  0.1100  0.2303
10190W        W26451   1.095   0.438  14.152 -0.2774 -0.1527  0.0260
10191W        W26452  17.311  18.505   4.384 -0.0526  0.1079  0.0368
10192W        W26453   6.364   1.937   6.179 -0.0457 -0.0858 -0.1381
10193W        W26454   9.423  10.141   5.429  0.2501  0.0959  0.0037
10194W        W26455  14.760   9.153  11.608 -0.1026  0.1011  0.2622
10195W        W26456   5.790  11.174  11.523  0.0248 -0.2454 -0.1093
10196W        W26457  18.620  11.314   2.030  0.1389  0.0035  0.2434
10197W        W26458  10.836  17.627  10.617 -0.2151 -0.1700 -0.1996
10198W        W26459   4.571  11.475  12.495 -0.2221  0.3074  0.0855
10199W        W26460   0.679   3.860  14.008  0.1240 -0.1238 -0.0234
10200W        W26461  15.152  16.927  10.648  0.1321  0.0384  0.1118
10201W        W26462  18.272  11.047  13.634 -0.0644 -0.0205 -0.2647
10202W        W26463  10.305   8.012   4.225  0.1215 -0.3184  0.0600
10203W        W26464  16.922  11.001   5.566  0.0900 -0.0301 -0.1296
10204W        W26465   1.499  13.636   4.996 -0.3093 -0.3166 -0.1567
10205W        W26466   6.794   6.228   3.599  0.0204  0.2484  0.1886
10206W        W26467   9.094   6.303   1.903  0.3876  0.0186  0.1643
10207W        W26468  10.965   5.488   1.530  0.1567  0.4008 -0.3420
10208W        W26469   5.555  18.700  14.704  0.1030 -0.3313  0.2672
10209W        W26470  17.782  17.782   0.031  0.1895 -0.2966 -0.3369
10210W        W26471   2.834  17.731  15.069  0.0932  0.1680  0.0200
10211W        W26472   5.643   7.548  13.767 -0.0169  0.1146 -0.1062
10212W        W26473  18.290   8.975   5.042  0.0100  0.2269  0.0741
10213W        W26474  12.102   9.293   2.559 -0.0046  0.1133  0.0446
10214W        W26475  17.166  15.778   4.376 -0.2527 -0.1107  0.1817
10215W        W26476  17.344  16.767   0.736 -0.3588  0.0549 -0.0416
10216W        W26477   8.613   1.956   5.496  0.2707  0.3492  0.0749
10217W        W26478   5.123   3.904  14.564 -0.0430 -0.1480 -0.3028
10218W        W26479   3.765  12.362   3.051 -0.1267 -0.0123  0.1131
10219W        W26480   8.050  11.960  13.098 -0.0100  0.0141 -0.2100
10220W        W26481   1.691  12.692  12.615 -0.1451 -0.2273 -0.4454
10221W        W26482  18.280  18.439  13.758  0.1834  0.3467  0.0091
10222W        W26483   1.378  13.390   5.421  0.1676 -0.3037 -0.2739
10223W        W26484   9.559  14.793   0.942  0.2010 -0.1418 -0.0513
10224W        W26485  12.233  14.472   3.953 -0.1463  0.0561 -0.0538
10225W        W26486   3.833   0.630  13.050 -0.3585 -0.3173  0.3571
10226W        W26487  13.123  10.187  11.138  0.3001  0.1717 -0.0168
10227W        W26488   8.928   9.451  14.915  0.0779 -0.0763 -0.3136
10228W        W26489  10.863   5.984   1.732 -0.0806  0.0733 -0.2392
10229W        W26490  10.157  14.518  14.965 -0.0187 -0.1614 -0.2892
10230W        W26491   0.644   6.429   0.781  0.3572 -0.1654  0.0470
10231W        W26492  13.399   0.511   4.699 -0.1632 -0.0974  0.1695
10232W        W26493   2.296  11.391   2.834  0.1806 -0.1722 -0.0544
10233W        W26494  12.444  10.849   1.695  0.1872 -0.4017 -0.2384
10234W        W26495   8.134   4.320  14.610 -0.1020  0.1446  0.0438
10235W        W26496   2.860   8.330   4.777  0.0571  0.2324  0.1309
10236W        W26497   7.042  15.954  11.759  0.2710  0.0014 -0.0427
10237W        W26498   4.565  14.151   2.561 -0.0976 -0.0233  0.2459
10238W        W26499  18.453  13.359  15.458 -0.1436  0.1482  0.0442
10239W        W26500  16.466   9.693  11.850 -0.1455  0.0747 -0.3164
10240W        W26501  12.964   9.748   5.525  0.1069 -0.0599 -0.0232
10241W        W26502  10.267  12.003  10.451  0.2701  0.1338  0.2347
10242W        W26503   8.301   0.945  15.000  0.0786  0.0977 -0.1846
10243W        W26504  18.392  12.468   0.230  0.1145 -0.0421  0.0288
10244W        W26505   1.035  16.431  11.733  0.1582 -0.4192  0.0334
10245W        W26506  18.099  17.479   5.355  0.1020 -0.0801  0.3415
10246W        W26507   9.548   7.001  14.546  0.0647  0.3906 -0.0229
10247W        W26508  11.789   3.580   5.435  0.2474  0.1353  0.0691
10248W        W26509   5.854   9.947   1.496  0.0465 -0.2737  0.2015
10249W        W26510   6.552   0.669  13.760 -0.0378 -0.1290 -0.1880
10250W        W26511   9.577  13.728  12.984 -0.1384 -0.0237 -0.1277
10251W        W26512  10.754   2.437  14.894 -0.1321  0.2118 -0.0727
10252W        W26513  14.113  11.458  11.773  0.0714  0.1545  0.1521
10253W        W26514   7.617   9.518   0.076 -0.2957  0.2337 -0.1923
10254W        W26515   4.860  14.650   1.072 -0.0631 -0.0184 -0.0535
10255W        W26516   1.742  18.109  12.920 -0.0900 -0.3532  0.1698
10256W        W26517   7.306   4.881   0.836 -0.2410  0.1588 -0.0940
10257W        W26518   0.598  17.404   2.256  0.1700 -0.3419 -0.0885
10258W        W26519  18.380  16.992   3.113  0.0898  0.1091  0.0365
10259W        W26520   4.552  12.423  13.730 -0.1287  0.3626  0.3399
10260W        W26521  13.392   6.956   5.842  0.0791  0.2388 -0.1552
10261W        W26522  13.867  10.802   2.980 -0.1469  0.1210 -0.0048
10262W        W26523  11.533  12.966  14.198 -0.1435  0.1841 -0.0926
10263W        W26524   5.022   5.214   4.660  0.3287 -0.2844 -0.0697
10264W        W26525   9.235   2.958   2.960 -0.0229 -0.3494 -0.3431
10265W        W26526  13.665   4.112  11.738 -0.1339 -0.0541  0.1216
10266W        W26527  16.693   1.824   5.038 -0.3186 -0.1628 -0.0806
10267W        W26528  18.814   4.775  10.684  0.0006  0.0362  0.0163
10268W        W26529   5.570  17.685  14.534 -0.0519 -0.2762 -0.1971
10269W        W26530   7.864  13.609   5.095  0.3307  0.0195  0.2643
10270W        W26531   7.141   3.750   1.066  0.3041  0.1049  0.2661
10271W        W26532  13.022   8.173   3.618  0.1048 -0.0497 -0.1387
10272W        W26533  18.628  16.451  12.054 -0.0717  0.0317 -0.0218
10273W        W26534   7.326  10.108   2.624  0.0900  0.1691  0.1150
10274W        W26535   5.902  18.501  14.997 -0.0902 -0.2259 -0.0589
10275W        W26536   8.134  16.594  15.334  0.0140 -0.3824  0.1748
10276W        W26537   6.207   4.706   1.068  0.1058 -0.0014 -0.0067
10277W        W26538  11.638  17.663   4.515 -0.1706  0.2924 -0.2826
10278W        W26539  16.961   3.772  11.099 -0.1881 -0.1793 -0.0541
10279W        W26540   2.850   0.286  11.665 -0.0954 -0.3120  0.1842
10280W        W26541  15.131  12.413   1.718 -0.2780 -0.1147 -0.1467
10281W        W26542  17.282   2.911   0.280  0.0293 -0.0530 -0.3175
10282W        W26543   4.731  18.679  14.918  0.1506 -0.1028  0.0219
10283W        W26544  12.856  16.943   1.558 -0.0888 -0.0523 -0.4255
10284W        W26545  16.061  10.149   0.607 -0.2369  0.0092  0.0602
10285W        W26546  17.365  12.606  15.622 -0.1638  0.0550  0.1530
10286W        W26547  13.825   5.382   0.130 -0.2154 -0.0497  0.1915
10287W        W26548   3.948   3.961   2.980 -0.3214 -0.1041 -0.0965
10288W        W26549  17.271  15.424   1.238 -0.0027 -0.1944  0.0752
10289W        W26550  15.864   6.563  12.045 -0.0959  0.2211 -0.1106
10290W        W26551   8.782   9.542  12.552  0.1578  0.2771 -0.2813
10291W        W26552  11.950   4.233  13.052 -0.1540  0.1285  0.0165
10292W        W26553  13.445  10.088  15.294 -0.0855  0.0207  0.1418
10293W        W26554   5.482   7.037   1.304 -0.0191 -0.3584 -0.2348
10294W        W26555  15.972  15.794   2.788 -0.0022  0.1536  0.1331
10295W        W26556  18.638  13.720   0.805  0.1130  0.2931 -0.0520
10296W        W26557  15.017  15.907   0.999  0.1538  0.2197  0.1828
10297W        W26558  15.113   2.917   1.294 -0.0762  0.0618 -0.0549
10298W        W26559  18.218  18.196   2.205 -0.0006 -0.1838  0.1497
10299W        W26560  18.707  12.447  14.520  0.0814  0.1948  0.1220
10300W        W26561  14.972  11.226   0.596 -0.0159 -0.1306 -0.3170
10301W        W26562  12.579  16.973  11.689 -0.2487  0.0460 -0.1796
10302W        W26563  11.767  18.059  12.202  0.0158 -0.1011  0.1831
10303W        W26564   6.105   3.984  13.077 -0.0258 -0.1867 -0.0140
10304W        W26565  11.790   4.675   1.796  0.1911  0.1226  0.2598
10305W        W26566  11.465  13.034  11.872  0.3886 -0.1801 -0.1105
10306W        W26567   3.167   8.058   0.320  0.3850 -0.3843  0.0766
10307W        W26568   4.280   1.570  15.611  0.3545  0.0017  0.3823
10308W        W26569   7.103   6.707   2.455 -0.0534 -0.4091 -0.0883
10309W        W26570  15.885  13.068   0.652  0.2859  0.1205 -0.0170
10310W        W26571  14.839  11.983  14.063  0.0425  0.1490 -0.2549
10311W        W26572  14.270   7.662   0.284 -0.1997 -0.0220  0.0902
10312W        W26573   7.071   0.893   5.050  0.3071 -0.1053  0.3271
10313W        W26574  16.921   4.518  11.465 -0.1110 -0.3663  0.0942
10314W        W26575   9.785   4.193  14.906  0.1073  0.0424 -0.3640
10315W        W26576  16.737  14.061  11.815 -0.0199  0.0234  0.0208
10316W        W26577   3.013   0.219  13.358 -0.1538  0.3088 -0.2174
10317W        W26578   8.641  14.598   1.206  0.1325 -0.1083 -0.1482
10318W        W26579  17.637   6.139   2.166  0.1313  0.3958  0.4719
10319W        W26580   5.445   4.645  12.460 -0.0318  0.2052  0.0736
10320W        W26581  15.275   8.490  13.860  0.4243  0.0823 -0.1384
10321W        W26582  13.727  17.437   1.193  0.2216 -0.3014 -0.3168
10322W        W26583  13.920  13.229  14.836 -0.0236 -0.1647  0.2615
10323W        W26584   3.934  11.236  12.480  0.0407  0.2076 -0.0017
10324W        W26585  12.969  13.057  14.757 -0.2142  0.1763 -0.1560
10325W        W26586   9.415   7.952  12.126  0.4301 -0.1437  0.1536
10326W        W26587   2.953   1.260  10.910  0.2634  0.0957 -0.0388
10327W        W26588   9.336   6.210  13.536  0.0317 -0.0464 -0.1905
10328W        W26589  15.366   0.101   3.858 -0.0651 -0.1336 -0.2630
10329W        W26590  11.070  17.361   3.795 -0.2431  0.0154  0.1119
10330W        W26591   0.155   5.990   2.384 -0.2840 -0.5488 -0.0657
10331W        W26592  11.455   1.831   5.291 -0.1115  0.3815  0.5094
10332W        W26593   5.772  14.938   1.210 -0.0525 -0.0238  0.3788
10333W        W26594  13.201   2.558   4.707  0.0134 -0.0995  0.0796
10334W        W26595   0.883   4.846   3.495 -0.0090  0.0727 -0.0924
10335W        W26596  10.064   7.269   5.298 -0.1665 -0.3263  0.2739
10336W        W26597   1.167   2.128   4.390 -0.1984 -0.1647  0.1191
10337W        W26598   0.008  10.470  13.736 -0.2002  0.2815 -0.1795
10338W        W26599  12.940  16.183   0.728 -0.2309 -0.3064 -0.0043
10339W        W26600  11.758   2.388   0.424 -0.2788  0.0506 -0.0541
10340W        W26601  12.276  17.883   3.938  0.3281  0.1936  0.1837
10341W        W26602   2.761   5.172   4.399 -0.0680  0.1182 -0.0886
10342W        W26603  15.723   9.690   3.331  0.0295 -0.0836  0.2625
10343W        W26604  10.468  13.498  10.923  0.2841 -0.1632 -0.0072
10344W        W26605   0.500  12.855  14.866 -0.1312  0.2452 -0.0882
10345W        W26606  16.105  15.108  12.155  0.2942 -0.2195  0.1800
10346W        W26607   9.881  16.760   2.276  0.2532 -0.1218  0.1610
10347W        W26608  17.177  12.933  12.893 -0.1134  0.0209 -0.2590
10348W        W26609  15.570   1.549  14.702 -0.4329 -0.1788 -0.7118
10349W        W26610   1.322   1.250  13.025  0.0601 -0.0702  0.0833
10350W        W26611  15.818   4.336  13.264  0.4315 -0.0371  0.1462
10351W        W26612   0.214  17.673  14.376  0.2829  0.1242  0.0722
10352W        W26613  15.418  16.350  13.527 -0.1819 -0.2578  0.5232
10353W        W26614  12.139  15.106   2.153 -0.1630  0.0854 -0.0407
10354W        W26615   2.649  18.290   2.444 -0.0507  0.2611 -0.2537
10355W        W26616   1.395   3.881   3.758  0.1549  0.0435 -0.1326
10356W        W26617   3.598  13.749  10.719  0.0732  0.1096 -0.1156
10357W        W26618  14.587  11.314   3.932 -0.0426  0.3087 -0.1386
10358W        W26619   2.434   9.178   3.950 -0.0584  0.0808 -0.0457
10359W        W26620   2.261  13.983  10.932  0.1163 -0.0753  0.1628
10360W        W26621   0.509   7.714   1.408 -0.0874  0.0238  0.2351
10361W        W26622   2.688   4.708   4.517 -0.2842 -0.0754 -0.1827
10362W        W26623   9.305  16.874   2.233  0.4482 -0.1126  0.0995
10363W        W26624   1.573  18.216   4.966  0.0201 -0.2018 -0.3562
10364W        W26625   1.550  11.573   2.687 -0.2385  0.3854  0.2249
10365W        W26626   3.329  16.738  14.470 -0.3726 -0.1323 -0.0875
10366W        W26627   7.171  17.884   4.692  0.0541 -0.0075 -0.0718
10367W        W26628   1.293  10.876  10.928  0.0690 -0.1540  0.1212
10368W        W26629  17.188   4.411  14.860  0.0625  0.1907  0.0788
10369W        W26630   4.272   5.930   1.794 -0.2703  0.0824  0.2454
10370W        W26631  17.252   1.440  12.949  0.3594 -0.0882 -0.0831
10371W        W26632  14.462   6.455  14.753  0.0135 -0.0310  0.1793
10372W        W26633  15.025  16.298   4.258  0.0782  0.1685 -0.0450
10373W        W26634   5.911   2.894  11.880  0.4260 -0.0145  0.1726
10374W        W26635   1.673   7.325   0.522 -0.3069 -0.2087 -0.0277
10375W        W26636   1.947  14.448   5.744 -0.1404 -0.0043 -0.0495
10376W        W26637   6.716  17.384   1.886 -0.2324 -0.1050  0.1422
10377W        W26638  11.434  14.531  11.115  0.0288 -0.2062  0.2755
10378W        W26639   0.686   0.503  11.567  0.1970 -0.1917 -0.0434
10379W        W26640  12.696  11.239  12.719 -0.0788 -0.1053  0.0360
10380W        W26641   3.084  18.607  10.884 -0.4724  0.3629 -0.3772
10381W        W26642   2.089  13.401  12.657 -0.1866 -0.1964  0.0528
10382W        W26643  17.403   5.256  15.342  0.2674 -0.0295 -0.2139
10383W        W26644  17.435  13.439  12.783 -0.1128  0.1609  0.2895
10384W        W26645   8.377   3.939   3.130 -0.0948 -0.0854  0.1403
10385W        W26646  15.661  18.009   5.204  0.0351 -0.3418  0.1195
10386W        W26647  16.560  16.113   3.552  0.1471 -0.0198 -0.0014
10387W        W26648   0.556   1.364   3.687 -0.3552  0.0960 -0.2123
10388W        W26649  12.821  15.739  13.507  0.0350  0.0885  0.0005
10389W        W26650   3.024  17.586   0.216  0.0939  0.1706 -0.1217
10390W        W26651   0.740   8.826   5.969  0.5440 -0.4339 -0.3669
10391W        W26652   8.795  16.307   0.288  0.2486  0.1519 -0.0653
10392W        W26653  10.794  17.563   5.152  0.1400  0.1210  0.1169
10393W        W26654  12.586   9.497   1.271 -0.3628  0.2570  0.0378
10394W        W26655  18.272  18.040   4.075  0.1172  0.2762 -0.2796
10395W        W26656  10.152   2.267   4.452 -0.0092 -0.2816 -0.2388
10396W        W26657   6.804   2.020  11.196  0.3800 -0.2253  0.0099
10397W        W26658  11.027   7.236  15.335 -0.0853  0.2384  0.0134
10398W        W26659  15.004  10.654   0.715  0.1188 -0.1752  0.1509
10399W        W26660  11.773   6.271   0.565  0.0514 -0.4872 -0.0575
10400W        W26661   9.801   7.882   4.695 -0.0100 -0.1837 -0.1920
10401W        W26662   1.395   2.448  11.974 -0.0074  0.1471 -0.1278
10402W        W26663   6.786  15.561  11.387  0.0745 -0.2685  0.0660
10403W        W26664  12.490   4.597   2.843  0.0095  0.0211 -0.3579
10404W        W26665  10.154  15.597  10.867  0.1828 -0.2912  0.0324
10405W        W26666  10.633  10.677   3.808 -0.1406 -0.0582  0.2436
10406W        W26667   0.110  15.108  11.189 -0.1152 -0.0586 -0.2433
10407W        W26668   4.050   1.359  11.164 -0.1237 -0.1036  0.1143
10408W        W26669   3.018   9.508   2.527  0.2940 -0.1368  0.1583
10409W        W26670   9.521  16.898  13.860  0.2785 -0.2434  0.3487
10410W        W26671   3.864  13.175   0.848 -0.4206  0.2227  0.2925
10411W        W26672   7.339   6.226   4.980 -0.1502 -0.1390  0.0019
10412W        W26673   1.293   8.170  12.708 -0.2319 -0.3357 -0.2065
10413W        W26674   6.575  14.495  11.784 -0.1212  0.0239 -0.0904
10414W        W26675   7.266   2.396   1.380 -0.2879  0.3416  0.3190
10415W        W26676   8.585   5.349  12.880  0.4112 -0.1304  0.0481
10416W        W26677   6.158   2.427  12.779  0.2570 -0.2834 -0.0390
10417W        W26678   0.988   0.310  11.098  0.0938 -0.5114  0.1394
10418W        W26679   0.612  16.052   0.370 -0.1620 -0.0913 -0.0443
10419W        W26680   9.760  14.141  10.708 -0.1691  0.0572  0.4237
10420W        W26681   6.254  16.300  11.755 -0.1181 -0.0367  0.0731
10421W        W26682   4.499   1.470  10.916 -0.1526  0.0917 -0.0312
10422W        W26683   0.544   4.209   3.041 -0.2769 -0.1158  0.4823
10423W        W26684  15.690  10.721  13.343 -0.0064  0.1019  0.0709
10424W        W26685   6.964   5.245   5.156  0.0620  0.1674 -0.0786
10425W        W26686   5.304   5.161  13.606 -0.5352 -0.0537 -0.0320
10426W        W26687  18.630   1.491   3.052  0.3597 -0.1396  0.0870
10427W        W26688  11.250  10.670  12.936  0.3250 -0.0862  0.0174
10428W        W26689  12.453   1.223  11.111 -0.0400 -0.2112  0.0630
10429W        W26690  12.147  18.221  14.198 -0.0203 -0.4082  0.1266
10430W        W26691  10.235  17.824  11.296 -0.1274  0.1989 -0.0123
10431W        W26692  13.771  16.289   4.444 -0.3176  0.1742 -0.1691
10432W        W26693  14.336   1.546  11.982  0.0087  0.0711  0.1977
10433W        W26694   6.657  10.147   1.148 -0.1109  0.0517  0.0715
10434W        W26695   8.861  17.304  10.705 -0.1581 -0.0831  0.1263
10435W        W26696   1.834   2.287   2.065 -0.2153  0.3083 -0.1700
10436W        W26697  16.783   0.393   2.217  0.0033 -0.0212 -0.0621
10437W        W26698   1.424   8.046  12.234 -0.2596 -0.1928  0.2812
10438W        W26699   7.270  15.466  11.450 -0.0942 -0.0813 -0.3748
10439W        W26700   7.916   2.305  13.002 -0.1979 -0.1710 -0.0670
10440W        W26701  17.894  17.156   3.248  0.1765  0.0005  0.2056
10441W        W26702  17.411  12.344  14.752 -0.0255  0.5610  0.0191
10442W        W26703   1.295   1.318  11.916 -0.0590 -0.0437  0.1038
10443W        W26704   8.500   0.757   0.889 -0.0828  0.1549 -0.0753
10444W        W26705   2.174   7.165   0.135  0.2852 -0.0531 -0.1949
10445W        W26706  13.858  11.404   4.361  0.1188  0.0233 -0.2018
10446W        W26707   2.987  18.520  14.680  0.0826 -0.0058  0.2363
10447W        W26708  14.018  15.271   1.396  0.0098  0.3587 -0.2673
10448W        W26709  14.558  13.360  12.932 -0.2647 -0.0328  0.1602
10449W        W26710  12.867   9.220   5.666  0.4044  0.2352  0.4335
10450W        W26711  10.733   0.170   2.876 -0.0099  0.0262 -0.1262
10451W        W26712  13.651   2.222  13.483 -0.2125  0.1053  0.2327
10452W        W26713  15.146   3.207  10.872 -0.3990 -0.1056  0.3057
10453W        W26714  12.525   9.377  11.794 -0.1406  0.4168  0.0542
10454W        W26715  11.005   2.656  14.200 -0.1874 -0.0279 -0.0232
10455W        W26716   2.644  15.064   5.396  0.2792  0.1615  0.3876
10456W        W26717   1.208   7.361   2.483  0.1976 -0.0140  0.1119
10457W        W26718   3.957  15.367  14.246  0.0933  0.1746 -0.1512
10458W        W26719  10.728  12.872  12.801 -0.2772  0.1353 -0.3092
10459W        W26720  16.966   5.199  15.028 -0.0435 -0.0290 -0.0380
10460W        W26721   8.642  17.060   0.915  0.0337 -0.0398 -0.1145
10461W        W26722   5.534  12.638   1.496 -0.0322 -0.0850 -0.1320
10462W        W26723  12.964   3.710  13.613  0.2032  0.2010  0.0608
10463W        W26724   8.680  18.051   4.507 -0.1289  0.0567  0.1840
10464W        W26725   7.729  10.543  14.091  0.0125 -0.0890 -0.1246
10465W        W26726   7.208   5.467  11.609 -0.1020 -0.0401  0.3341
10466W        W26727   0.581   7.907  14.745  0.3074  0.1627  0.1609
10467W        W26728   5.066  18.767  11.220  0.1001  0.0374 -0.1017
10468W        W26729   0.667   0.470   2.782  0.1071 -0.1060 -0.0311
10469W        W26730  11.576   1.306   2.316 -0.4027 -0.0234  0.0840
10470W        W26731   1.971  12.958  12.330  0.3065 -0.1545 -0.1746
10471W        W26732  18.583   4.005  12.488 -0.0679 -0.1901  0.3441
10472W        W26733  17.615   5.914  14.872 -0.0390 -0.0516  0.2297
10473W        W26734   8.498  16.135  12.410  0.0502  0.2596 -0.3288
10474W        W26735   2.754   7.030  11.975  0.2690 -0.0752 -0.1141
10475W        W26736  10.798  11.809   2.870  0.2181  0.2967 -0.2566
10476W        W26737   9.311   6.076  11.924 -0.1667  0.0048  0.0248
10477W        W26738   0.622   7.722   3.816 -0.0782 -0.0230  0.0963
10478W        W26739  16.766   2.401  11.900 -0.1052 -0.0717 -0.3865
10479W        W26740   2.611  14.095  10.659  0.0693  0.0957  0.2165
10480W        W26741  13.487  14.705   4.217  0.1081  0.0731 -0.2517
10481W        W26742   9.194   8.823  14.570 -0.4219 -0.0551  0.0399
10482W        W26743  10.685   4.790   0.442 -0.2046  0.1303 -0.1124
10483W        W26744   7.700   5.892   1.666 -0.0554 -0.4434 -0.3230
10484W        W26745  16.023   3.852   4.190 -0.0951 -0.0695  0.0400
10485W        W26746  17.335  10.684   2.867  0.1563  0.2135 -0.0890
10486W        W26747  13.269  12.558   4.661 -0.1042  0.2287  0.2142
10487W        W26748  14.673  10.048   2.496 -0.3535 -0.0948 -0.2860
10488W        W26749  13.100  14.881   2.674  0.1907  0.1375 -0.0962
10489W        W26750   1.650  13.186  13.935 -0.1204  0.2184  0.2924
10490W        W26751   4.991   5.967   5.817  0.2419 -0.1207  0.0462
10491W        W26752   4.304   8.219  12.609 -0.1364 -0.0123 -0.1058
10492W        W26753  12.413  16.816   0.997  0.0842  0.0881 -0.1521
10493W        W26754   6.438   1.940  13.894  0.0708 -0.1101  0.2622
10494W        W26755  10.085   3.776   3.587  0.0242 -0.0416 -0.0637
10495W        W26756   3.471   0.953   1.962  0.1680 -0.0488  0.0643
10496W        W26757  17.555   0.816  14.585 -0.2870 -0.3019 -0.3256
10497W        W26758  11.831   6.162  12.816 -0.2342  0.2512 -0.1178
10498W        W26759   0.989  16.044   2.108  0.0577  0.0092 -0.0093
10499W        W26760   2.186   1.579  11.589 -0.2518  0.0563  0.2166
10500W        W26761   9.553  18.022   4.337  0.0381  0.0524  0.0307
10501W        W26762  13.203  11.096   3.761  0.3641 -0.1931  0.0674
10502W        W26763   2.966   2.035  10.974 -0.0266 -0.0667  0.2365
10503W        W26764  17.215   6.259  11.861  0.0530 -0.3379  0.0657
10504W        W26765   0.421   9.855   2.996 -0.0616  0.2702  0.3710
10505W        W26766   6.857   6.897   2.897 -0.0272 -0.0215 -0.0893
10506W        W26767  11.009  14.722   5.142 -0.3725  0.0680  0.1198
10507W        W26768   3.084   5.042   2.289  0.3667  0.3445  0.3538
10508W        W26769   2.847   8.728   1.327  0.2261  0.1324 -0.3156
10509W        W26770   9.763   1.230   3.347 -0.1765 -0.1371  0.0955
10510W        W26771   6.277   6.395   0.930  0.0544 -0.0813  0.3173
10511W        W26772   5.465  14.132  13.104 -0.3825 -0.1794 -0.1760
10512W        W26773   1.330   9.801   4.713 -0.2962 -0.1140 -0.2751
10513W        W26774   0.263  10.923   1.149  0.0954  0.1535 -0.0805
10514W        W26775  13.027   1.678  13.451  0.3014 -0.1312 -0.0860
10515W        W26776   1.375   2.911   1.334  0.0249  0.1391  0.2721
10516W        W26777   9.143   8.730   2.832  0.1267  0.1554  0.1134
10517W        W26778   2.914  11.843  14.467  0.2604 -0.2994  0.2401
10518W        W26779   9.899  12.047  11.459  0.2529 -0.2647  0.0835
10519W        W26780  12.735   4.928  11.770 -0.1779 -0.0265 -0.0758
10520W        W26781   2.550   6.822  14.248 -0.0207  0.0080  0.1640
10521W        W26782   7.201   8.949   3.515 -0.0000  0.0610  0.2416
10522W        W26783   8.592  15.683  11.094  0.0325 -0.0077 -0.1010
10523W        W26784  18.205  17.883   5.643  0.2061  0.0496 -0.2752
10524W        W26785   6.672  16.761  14.132 -0.0596  0.4723 -0.0549
10525W        W26786   1.867   6.550   2.198  0.1510 -0.1164 -0.1031
10526W        W26787   4.770  13.552  11.291 -0.0199 -0.2041  0.1449
10527W        W26788   9.572  12.374  10.826 -0.1973 -0.0816  0.1482
10528W        W26789   2.490  13.932   1.922 -0.1594  0.0538  0.0322
10529W        W26790  16.673  11.598  14.212  0.2072 -0.0090 -0.0409
10530W        W26791   8.695   1.665   6.641  0.1949  0.1968 -0.1558
10531W        W26792  14.654   1.291   5.029 -0.0367 -0.3351  0.2256
10532W        W26793  16.043  17.334   2.503  0.3158 -0.0969 -0.0146
10533W        W26794   0.012  16.343  15.344 -0.0259  0.0891 -0.0667
10534W        W26795   1.026  10.454   0.337 -0.2025  0.1365 -0.1896
10535W        W26796   6.867   8.549  12.604 -0.3058 -0.1044 -0.0614
10536W        W26797   9.341   8.861   0.335  0.0102 -0.3951  0.3120
10537W        W26798  13.424   4.477   1.390 -0.1494 -0.1338  0.0376
10538W        W26799   1.916  12.142  10.918  0.2587 -0.0966 -0.2838
10539W        W26800  11.440  14.194  13.563  0.0927 -0.0034 -0.0084
10540W        W26801   0.500   8.870   1.750 -0.1318  0.1236 -0.4073
10541W        W26802   6.134  14.434  14.255 -0.2632 -0.0882  0.1503
10542W        W26803  16.719   0.213   5.356 -0.0414  0.1580 -0.0526
10543W        W26804   7.013   3.804  14.275  0.2765 -0.0245  0.1995
10544W        W26805   6.101   9.317   5.704 -0.2910  0.0157 -0.1462
10545W        W26806   7.156  13.761   0.309  0.0038  0.1062 -0.2092
10546W        W26807  16.793   5.680   0.252  0.1103  0.0081 -0.0194
10547W        W26808   2.409  13.716  10.318  0.0225  0.0716  0.1077
10548W        W26809   0.135   3.795   2.564 -0.2177 -0.0336  0.2666
10549W        W26810   1.470   2.097  11.639  0.2547 -0.1552 -0.1360
10550W        W26811  18.746  17.696   4.108  0.0748  0.0888 -0.1987
10551W        W26812  18.568   8.632   1.984  0.0350 -0.2099  0.1161
10552W        W26813  16.135   9.371   1.479 -0.1630  0.1472  0.2236
10553W        W26814   2.225  12.979  14.844 -0.3113 -0.4594 -0.3035
10554W        W26815  14.884   1.360  15.119  0.0274  0.2203 -0.1352
10555W        W26816   2.345   5.525   4.405 -0.0112 -0.1350  0.1628
10556W        W26817  17.217  12.675  15.121  0.1165 -0.3105 -0.1979
10557W        W26818   4.311   7.315   1.277  0.1794  0.3268  0.0149
10558W        W26819   6.687  10.786   0.227  0.1012  0.3149 -0.0196
10559W        W26820  16.135   8.957  12.282  0.0558  0.1823 -0.0852
10560W        W26821  18.293   2.882  14.245  0.5138 -0.0589  0.0007
10561W        W26822   7.138   0.044  15.035 -0.1593 -0.2400  0.0976
10562W        W26823   9.477   8.126   2.303  0.0302 -0.1008 -0.0302
10563W        W26824   4.540   6.508   5.200 -0.1896 -0.1104 -0.0620
10564W        W26825  13.402   1.433  15.335 -0.0044 -0.0537 -0.1087
10565W        W26826   3.631  14.511   9.954 -0.2253  0.2099  0.0474
10566W        W26827   4.327  11.647   0.084  0.1928  0.0464  0.0821
10567W        W26828  18.608   5.929   3.548  0.0992  0.0765 -0.3266
10568W        W26829   7.711  14.662   3.352  0.0137 -0.0440  0.2234
10569W        W26830   3.299  16.563   9.804  0.0248  0.0668 -0.3801
10570W        W26831   0.558  15.585   5.221  0.0249  0.0559  0.3527
10571W        W26832   7.079  12.403   4.068 -0.0585  0.1940 -0.0278
10572W        W26833  18.582   8.052   3.369 -0.3933 -0.1591  0.1610
10573W        W26834  11.425   2.092  15.318 -0.0424  0.0275 -0.0443
10574W        W26835   7.741   4.167  13.341  0.0746 -0.0998  0.0652
10575W        W26836   7.015   8.837   6.109  0.1062 -0.2373  0.1041
10576W        W26837   2.714  11.645   2.756 -0.0183  0.1936  0.0463
10577W        W26838   4.963  12.211   3.714 -0.1003  0.0347 -0.1691
10578W        W26839   9.298   7.586   1.030  0.0645  0.2222  0.2614
10579W        W26840  12.848  11.650   5.184  0.3808 -0.0809 -0.2072
10580W        W26841  16.198  14.586   3.364  0.1836  0.1635 -0.0401
10581W        W26842   3.127   0.552   3.657 -0.1593  0.1743 -0.2187
10582W        W26843   8.398  17.509  11.002 -0.0737  0.2562 -0.0308
10583W        W26844   6.446  18.349   4.438 -0.5286  0.0370  0.3767
10584W        W26845  14.039  17.301  14.046  0.1663 -0.0832 -0.0001
10585W        W26846  17.063  12.693   0.896 -0.1789  0.1299  0.1048
10586W        W26847   7.396   0.261  13.373 -0.1318 -0.2884 -0.0229
10587W        W26848  14.151  14.049  10.342 -0.1140 -0.0270  0.1427
10588W        W26849   5.440  13.114   0.712  0.0368  0.0137  0.4084
10589W        W26850   9.324   9.935  11.571 -0.1018  0.0042  0.1440
10590W        W26851   7.493  12.034  12.819  0.1518 -0.0306  0.1172
10591W        W26852   6.365  13.816  14.011 -0.1121  0.1706  0.1170
10592W        W26853   5.881  11.628  11.363 -0.0820  0.3180  0.1083
10593W        W26854  12.628  12.697   0.428 -0.3407  0.1839  0.1024
10594W        W26855  12.543  18.233   5.436  0.2253 -0.1539 -0.3072
10595W        W26856   1.862   2.518  14.020 -0.0640 -0.2475 -0.2872
10596W        W26857  16.991   9.462   2.659  0.0220  0.0152  0.0242
10597W        W26858   1.706  18.473  15.240  0.1572  0.1056  0.0586
10598W        W26859  11.791   8.821   0.280  0.0510  0.2901  0.1059
10599W        W26860   8.522  18.275  13.751 -0.0027 -0.0580  0.2006
10600W        W26861   5.512  18.534   4.564 -0.4137 -0.1193 -0.2334
10601W        W26862   7.993   9.850   1.033  0.5464  0.1238 -0.2691
10602W        W26863   1.307  15.569  14.910  0.0115  0.2532 -0.0718
10603W        W26864   7.920   8.235   4.141  0.1071  0.1275  0.2055
10604W        W26865   2.458  11.000  14.146  0.1372  0.0415 -0.1319
10605W        W26866  10.614   7.875   3.834 -0.1705 -0.1443  0.1809
10606W        W26867  18.722  17.330  10.302  0.0315  0.2785 -0.1652
10607W        W26868  16.821  16.463  13.079  0.1097  0.0091 -0.1565
10608W        W26869   5.375   8.101  11.635 -0.1065 -0.0269 -0.1148
10609W        W26870  17.406  17.250   3.236 -0.1910 -0.2662  0.0498
10610W        W26871  13.790   6.148  10.672  0.0312 -0.1037  0.4218
10611W        W26872  15.206   7.356  14.727  0.4104  0.1707 -0.2226
10612W        W26873  13.845   2.864  12.951 -0.3208  0.0052  0.0852
10613W        W26874   7.356  11.405  14.535  0.1156  0.1037  0.0635
10614W        W26875   2.606   0.803  15.250 -0.3143  0.0761 -0.0286
10615W        W26876  15.903  12.110  11.411  0.3633  0.0177 -0.2257
10616W        W26877   6.408   8.483   4.899 -0.1577 -0.2368 -0.0135
10617W        W26878   0.155  16.048   2.733 -0.2082  0.1269 -0.3289
10618W        W26879   1.015  15.304   5.460  0.0075  0.0246  0.2968
10619W        W26880   5.705  12.014   2.946 -0.0318 -0.3305  0.0293
10620W        W26881   9.989   1.224  12.349  0.3084  0.0278  0.4572
10621W        W26882   5.355   7.750  14.790 -0.0768 -0.0114 -0.2934
10622W        W26883   8.149   2.581  13.326  0.1071 -0.0066  0.1651
10623W        W26884  13.942   1.447  10.112 -0.0262  0.0152 -0.1308
10624W        W26885   6.396  11.932   3.704 -0.1195  0.0388 -0.0065
10625W        W26886   1.296  17.004   1.324  0.0092 -0.0789 -0.2767
10626W        W26887   4.128   8.668   2.443  0.1450 -0.1994 -0.0904
10627W        W26888   4.454  17.311   3.136 -0.0341  0.0003  0.1406
10628W        W26889  14.794  10.661  11.673  0.2296  0.4585 -0.1413
10629W        W26890   4.430   6.497  14.569 -0.1490 -0.0523  0.2444
10630W        W26891  15.698   5.773   1.024 -0.3112 -0.0413 -0.0292
10631W        W26892   3.774   6.166   1.414 -0.0443 -0.0291  0.2974
10632W        W26893  18.308   9.938  11.736  0.0575  0.0678 -0.2368
10633W        W26894  13.105  15.784  12.014  0.0059 -0.2601  0.0188
10634W        W26895   4.561   1.690   1.375 -0.0687 -0.3661 -0.0859
10635W        W26896  13.016   2.903   0.027  0.0707 -0.0072  0.1636
10636W        W26897   0.104  12.716   1.659 -0.0704 -0.4002 -0.2390
10637W        W26898   2.082  18.493   3.498  0.1742  0.0435  0.1346
10638W        W26899   9.922   4.879  11.334  0.1051 -0.1284 -0.0033
10639W        W26900   8.139  18.410  11.191  0.0746  0.1275 -0.1088
10640W        W26901   2.771  14.487  12.067  0.3447 -0.0316 -0.0476
10641W        W26902  11.465   6.175  11.922 -0.1503  0.0341 -0.2576
10642W        W26903  12.743  14.121  13.356 -0.1355 -0.0664  0.3539
10643W        W26904   5.287   4.029   4.968  0.0231 -0.1893  0.1288
10644W        W26905   2.376   8.618   3.296  0.2432 -0.2680 -0.0189
10645W        W26906  10.948  14.904  14.777 -0.2266  0.1841 -0.2153
10646W        W26907  16.264   8.951  11.338  0.0133 -0.2031  0.0193
10647W        W26908  16.129  11.950  11.012  0.2376  0.1849 -0.1580
10648W        W26909  13.439  16.139   0.778  0.2298 -0.2115  0.0226
10649W        W26910  12.865  10.057  13.345  0.1356 -0.0211 -0.1436
10650W        W26911  11.333   2.756  11.065 -0.1625  0.1278  0.3245
10651W        W26912   1.646   8.216   4.000 -0.2820 -0.0117  0.0776
10652W        W26913   5.721  14.032   2.958  0.1410 -0.1375 -0.0153
10653W        W26914  10.696   1.999   0.211  0.1770  0.0370 -0.0452
10654W        W26915   9.030   9.172   4.451  0.0780  0.0108 -0.0742
10655W        W26916  12.618   6.517   2.819 -0.0064 -0.1387  0.2343
10656W        W26917   3.615   6.185   3.695 -0.0336  0.2753 -0.0075
10657W        W26918  14.002   8.985  10.450 -0.2024 -0.1368  0.1705
10658W        W26919  17.655   5.010  12.308 -0.1898 -0.4189  0.1478
10659W        W26920  10.360  18.697  15.073  0.1350 -0.2185 -0.3496
10660W        W26921   8.637   1.719   1.732  0.1012 -0.1549  0.1014
10661W        W26922   4.770  14.296  14.100  0.0503 -0.0391  0.0397
10662W        W26923   0.169   0.018   0.578 -0.1182 -0.0442  0.0363
10663W        W26924   9.185  17.266   5.197 -0.0232  0.2157  0.1168
10664W        W26925   1.958   7.815   3.721  0.1157  0.0800  0.1846
10665W        W26926  11.539  15.436   5.136 -0.2663 -0.1030 -0.2329
10666W        W26927  12.927   3.615   5.378  0.1619  0.1676  0.0420
10667W        W26928   8.071   7.725   4.911 -0.0151  0.0517 -0.2438
10668W        W26929   6.821   9.900   3.542 -0.0343  0.1130 -0.0434
10669W        W26930   1.587  11.762   3.315  0.0958  0.0121  0.0938
10670W        W26931  18.181  17.778   1.917  0.2364  0.1402 -0.0148
10671W        W26932   4.666  17.904   1.900  0.1600 -0.1765  0.1870
10672W        W26933  13.428   1.690  12.273 -0.1004  0.1426 -0.2492
10673W        W26934   6.535  15.622   0.376  0.2745 -0.1815  0.1018
10674W        W26935   3.778   1.488   3.749  0.1232  0.2230 -0.2128
10675W        W26936   2.697  11.232   0.144  0.0858  0.0967  0.0493
10676W        W26937   5.442   4.868   3.818  0.0356 -0.0694  0.1145
10677W        W26938   3.548  18.392  13.561  0.1150  0.2226  0.2995
10678W        W26939  13.980  11.752   4.666 -0.0870 -0.1118  0.0988
10679W        W26940   5.061  12.207   5.356 -0.0957  0.0300 -0.1487
10680W        W26941   7.970  17.402  10.278  0.2830 -0.0034  0.0801
10681W        W26942  12.454   1.936   3.017  0.0932 -0.5076 -0.1329
10682W        W26943  16.788  17.533  13.197  0.0602  0.0027 -0.5315
10683W        W26944   0.774  10.901  13.868  0.1216 -0.0319 -0.0176
10684W        W26945   4.207  13.669   3.437 -0.3764 -0.1428  0.0317
10685W        W26946  15.104  12.019  10.116  0.1389 -0.0956 -0.0697
10686W        W26947   9.747   7.505   3.727  0.0398  0.2742  0.2664
10687W        W26948   4.963   1.818   2.206 -0.0457 -0.1621 -0.1073
10688W        W26949   3.118  12.021   0.653 -0.0708  0.0400  0.1564
10689W        W26950   2.018  13.650  14.494 -0.4771 -0.1937 -0.4453
10690W        W26951   0.672  13.583   1.839 -0.0870 -0.3378  0.2513
10691W        W26952  18.004   0.025  14.057 -0.0069 -0.0862  0.0178
10692W        W26953  17.500  17.042   2.684  0.1862  0.2181  0.2004
10693W        W26954   2.845   5.138  15.264 -0.0520 -0.1124  0.0691
10694W        W26955   7.260  10.265   1.286 -0.0683  0.2202 -0.2741
10695W        W26956   2.419   6.764  15.293  0.3998 -0.1043  0.2358
10696W        W26957  18.713   3.805  15.234  0.0304  0.0518  0.2998
10697W        W26958   7.173  15.128   5.128  0.3837  0.1585 -0.0991
10698W        W26959   1.836  16.164  11.826  0.1398 -0.4223  0.1774
10699W        W26960  15.640   6.228  11.745 -0.0104 -0.0072  0.1856
10700W        W26961   0.358   7.130   0.235  0.0740  0.2157  0.3700
10701W        W26962   4.260   5.570   3.736 -0.1554 -0.0570  0.2964
10702W        W26963  17.362  18.194   2.994  0.3193 -0.1074 -0.1555
10703W        W26964  16.736  15.128   3.883  0.1056 -0.0898 -0.1498
10704W        W26965  10.577   1.471   2.258  0.0489  0.2074 -0.0340
10705W        W26966  13.440   8.815   2.520  0.0087  0.1538 -0.1437
10706W        W26967   0.458   2.715   1.728  0.0044  0.0985  0.0218
10707W        W26968   6.288  13.848  14.857 -0.3299 -0.0853  0.3064
10708W        W26969  16.371  12.298  11.254  0.1331 -0.2335 -0.3645
10709W        W26970  11.749   5.171  11.538 -0.0785 -0.3270 -0.2441
10710W        W26971   6.486  15.523  11.906  0.1202  0.3685  0.2500
10711W        W26972  13.554  13.568   4.729  0.0195  0.3148  0.1741
10712W        W26973   2.704   3.160   2.813 -0.1541  0.0897  0.2284
10713W        W26974  11.542  17.525  15.245 -0.1452  0.3010  0.0045
10714W        W26975  11.825  14.919   3.672 -0.0710 -0.2502  0.0644
10715W        W26976   0.796  14.793   0.569 -0.0881 -0.2612 -0.3532
10716W        W26977   3.652  14.323  13.434 -0.2571  0.0185 -0.1323
10717W        W26978  12.834   7.363   3.466 -0.1465 -0.0949  0.4334
10718W        W26979   3.767   8.915   3.556  0.0989 -0.1635  0.0144
10719W        W26980   3.749   9.439   4.278 -0.1926  0.0747 -0.0344
10720W        W26981   2.783  17.180   4.841 -0.2740  0.3645 -0.5312
10721W        W26982   9.448   9.108  13.664 -0.0506  0.1175 -0.3342
10722W        W26983   1.257   2.858  12.530 -0.2404  0.2840 -0.1664
10723W        W26984   8.798   9.425  13.060  0.0590  0.2236 -0.1758
10724W        W26985  18.793  10.043   0.384 -0.1243  0.3262 -0.0951
10725W        W26986   7.237   2.016   5.507 -0.5470  0.1002  0.2001
10726W        W26987   1.070   1.872  15.435 -0.1039 -0.0934 -0.0242
10727W        W26988  13.707  14.098  13.886  0.0995 -0.1667  0.0634
10728W        W26989   7.032   5.002  11.805 -0.0435 -0.3156 -0.3779
10729W        W26990  15.168  16.148   1.474 -0.0796  0.1182  0.1364
10730W        W26991   8.982   3.345   3.100 -0.2588  0.0794 -0.2564
10731W        W26992  14.594  16.066  13.034 -0.1315 -0.1197 -0.1983
10732W        W26993  18.071   0.186   5.142 -0.3266 -0.0497  0.4564
10733W        W26994   5.952   6.187   3.873  0.0416  0.2383 -0.1251
10734W        W26995   3.851  17.650  11.668  0.2107  0.1728 -0.3592
10735W        W26996  15.448   3.502   3.027 -0.0300  0.0287 -0.3047
10736W        W26997   0.188  14.231  11.933  0.0905  0.1544 -0.1159
10737W        W26998   2.122  18.555   1.275 -0.4777  0.0063 -0.2238
10738W        W26999   8.281  10.332   3.400  0.0050  0.6433  0.4307
10739W        W27000  18.808  18.452   3.142 -0.0906 -0.4724  0.0360
10740W        W27001   4.922   9.863   3.571  0.1819  0.2613 -0.1351
10741W        W27002  16.056   8.675  15.493 -0.1216 -0.0288 -0.0920
10742W        W27003   9.512   1.927   5.309  0.0744 -0.4086  0.0306
10743W        W27004   5.016   2.307  13.872 -0.0705 -0.2219  0.0631
10744W        W27005   8.056  13.303  11.914 -0.2099 -0.3491  0.0017
10745W        W27006  16.808   2.008   9.788 -0.0205  0.5907 -0.2356
10746W        W27007  14.539   1.265  14.418 -0.1745  0.0059  0.0978
10747W        W27008   2.330   5.270   2.654 -0.2928 -0.0448 -0.4271
10748W        W27009  11.787   6.954  15.077 -0.1581  0.0930 -0.1737
10749W        W27010  12.309   5.592  14.203  0.1436 -0.0671  0.0462
10750W        W27011  18.208  16.435   2.862 -0.2239  0.1741  0.0773
10751W        W27012  18.574   8.587  12.734 -0.0442  0.1379 -0.0837
10752W        W27013  14.234   2.883   4.241  0.1330 -0.3017  0.2403
10753W        W27014   6.547  18.231   1.975 -0.0615  0.4428  0.0691
10754W        W27015  16.801   3.014   0.162 -0.3723 -0.0995 -0.0131
10755W        W27016  18.481  11.125  13.165 -0.0458  0.3059 -0.0155
10756W        W27017  15.951   1.350   3.536  0.3474  0.3509 -0.2373
10757W        W27018  10.564   9.090   1.996  0.0802 -0.0791 -0.2196
10758W        W27019  13.652  10.477   3.578 -0.1075  0.0944 -0.0342
10759W        W27020   7.608   6.701   5.902  0.0166 -0.0801  0.0112
10760W        W27021  13.970  16.033   3.489 -0.1904 -0.0119 -0.0546
10761W        W27022  14.379  18.817  13.788 -0.0703  0.1012 -0.0198
10762W        W27023  18.140  14.824  15.646 -0.2313  0.0035 -0.4215
10763W        W27024  13.696   2.918  15.218  0.0638 -0.0400 -0.2491
10764W        W27025  12.264   8.420   3.718 -0.1615 -0.1031  0.2443
10765W        W27026   0.113   4.872   0.984  0.2028  0.1319 -0.1607
10766W        W27027   2.363   9.004  13.466  0.0010  0.0349 -0.0814
10767W        W27028   4.015   1.286   4.286 -0.0236 -0.3331 -0.3765
10768W        W27029   3.991  11.286   0.910  0.3456  0.2536  0.1350
10769W        W27030  11.272   6.441  13.347 -0.3619  0.0978  0.3239
10770W        W27031   5.887   4.177   2.574  0.0308 -0.0683  0.0720
10771W        W27032   3.803  11.228   1.823  0.1027 -0.2214  0.0229
10772W        W27033  17.060   4.828   2.429 -0.0208 -0.3109 -0.2227
10773W        W27034   2.326  16.930   1.277  0.2971 -0.1503  0.2255
10774W        W27035   6.704  13.029  12.493  0.2405  0.6065  0.2364
10775W        W27036  14.990   3.353  14.093  0.1166 -0.0139  0.0769
10776W        W27037  17.901  18.771   0.293 -0.1908 -0.0216  0.0207
10777W        W27038  17.996  11.319   2.887  0.1595 -0.2527 -0.1220
10778W        W27039   4.111  16.521   2.309 -0.2802 -0.0638  0.0294
10779W        W27040   0.480   1.472  13.551  0.1451  0.1400 -0.1740
10780W        W27041  10.963   8.939   2.340 -0.1681 -0.0237 -0.0517
10781W        W27042  18.390  16.565  14.462  0.3574 -0.1063 -0.0785
10782W        W27043  16.970   8.355  11.461 -0.1205 -0.3038  0.1841
10783W        W27044   1.641  11.002  12.341  0.0801  0.1388 -0.6472
10784W        W27045   4.295   0.031  15.089 -0.0519 -0.5312  0.0940
10785W        W27046   7.054  13.505   3.390  0.2150 -0.0449 -0.1290
10786W        W27047   4.342  16.366   0.837 -0.1720  0.0841 -0.1065
10787W        W27048  14.201   6.805  15.003 -0.2735 -0.2998 -0.1093
10788W        W27049  13.967   0.586  13.391 -0.0198  0.0875  0.1590
10789W        W27050   7.457   7.202   0.797  0.1604  0.5792 -0.3423
10790W        W27051  16.135   6.232  14.555 -0.0916  0.2454 -0.1825
10791W        W27052  10.841  18.466   0.318 -0.0509  0.0530 -0.0278
10792W        W27053  16.408   1.911  15.104 -0.1708 -0.0438 -0.0938
10793W        W27054  17.368   5.948  11.480 -0.2941 -0.1665  0.2390
10794W        W27055  11.605   7.012   1.636  0.1013 -0.3913  0.1573
10795W        W27056  14.402  12.968  12.484 -0.2827 -0.3161  0.1575
10796W        W27057  14.844  15.034  10.435 -0.1793  0.0387 -0.0982
10797W        W27058  10.959   0.591   0.444  0.0672  0.3008 -0.1087
10798W        W27059   5.384   7.904   0.106 -0.2848 -0.0687 -0.0557
10799W        W27060   2.798  14.999  12.412  0.2113 -0.0922  0.0334
10800W        W27061   9.192  11.911   2.894  0.0076  0.4326  0.3135
10801W        W27062  10.286   2.383   2.598 -0.1633 -0.0569 -0.3156
10802W        W27063   2.864  11.186  13.101 -0.1130 -0.2802  0.3266
10803W        W27064  12.477   2.035  10.867  0.0354  0.0208  0.1616
10804W        W27065   4.389   6.810  14.180  0.2032  0.1354  0.3337
10805W        W27066   3.037   0.810   4.566  0.2918 -0.1257  0.1120
10806W        W27067   1.428  11.785  12.864  0.1780  0.3412  0.1197
10807W        W27068  16.348   1.285  14.509 -0.5135 -0.0902  0.4745
10808W        W27069   3.804   5.382  11.938 -0.0179  0.3706 -0.3549
10809W        W27070   2.406  13.603  13.922 -0.1137 -0.0224 -0.1508
10810W        W27071  11.020   8.642  13.781  0.0932 -0.0409  0.1615
10811W        W27072  13.191  18.758  11.264 -0.0920 -0.0450 -0.1739
10812W        W27073  17.187  14.175  13.193  0.2841 -0.2036  0.0298
10813W        W27074   4.439  17.580  15.077  0.0123 -0.0233 -0.2638
10814W        W27075   1.149  11.805  11.113  0.2087  0.3392 -0.1344
10815W        W27076   6.330   1.839  15.251  0.3636 -0.2071  0.2419
10816W        W27077   7.269  18.752   5.726 -0.1907  0.2282 -0.3793
10817W        W27078   5.363   7.791   1.995 -0.0768 -0.0562  0.1533
10818W        W27079  13.702   0.721   0.019  0.3631  0.3038  0.0925
10819W        W27080   2.237  10.769  11.688  0.3557 -0.0660 -0.1548
10820W        W27081  13.494  18.278   3.323 -0.0533 -0.1831  0.1071
10821W        W27082  18.388  14.544   2.006  0.1784  0.4109  0.2672
10822W        W27083   6.795   6.394  11.522 -0.1466  0.2161  0.4592
10823W        W27084  14.999  16.918   3.167  0.1083 -0.2745 -0.2181
10824W        W27085  13.960   0.629  14.385 -0.1209 -0.0946 -0.1237
10825W        W27086  16.971   2.451   2.592 -0.0292 -0.1495 -0.0989
10826W        W27087  13.278  17.781   1.184  0.0468  0.1189 -0.0252
10827W        W27088   1.572  13.990   1.880 -0.0285  0.0685 -0.2748
10828W        W27089   7.779   8.721   3.908  0.3469  0.0316 -0.3111
10829W        W27090   8.441   2.144   5.007  0.0563  0.1864 -0.0612
10830W        W27091   1.664   1.797  13.347  0.1349 -0.0877  0.1318
10831W        W27092   9.303  16.176   0.806 -0.0802  0.2528  0.0068
10832W        W27093   9.488  14.530  12.522  0.1606  0.2010  0.3198
10833W        W27094  12.463   4.499   5.226  0.1541 -0.0179  0.1070
10834W        W27095   0.448  17.718  12.257  0.0997  0.0478 -0.0371
10835W        W27096  12.552  12.074  10.367  0.2407 -0.1529 -0.2046
10836W        W27097   6.900  14.588  12.299 -0.1172 -0.0821  0.0186
10837W        W27098  13.101   2.217   5.376 -0.3374  0.0730  0.3241
10838W        W27099  11.479  14.898   3.291  0.3971  0.3859  0.2303
10839W        W27100   8.646   3.998   3.561 -0.2026  0.0673  0.3260
10840W        W27101   0.691   4.522  14.579  0.2108  0.3982  0.1245
10841W        W27102   7.281  15.639   1.372 -0.1207 -0.3453 -0.1453
10842W        W27103   4.625   0.958  14.919 -0.0100 -0.0467  0.0697
10843W        W27104  10.648  17.642   4.369  0.0086  0.0007 -0.0149
10844W        W27105  14.506  14.280   4.039 -0.0185 -0.0242  0.0149
10845W        W27106  12.874  10.962   4.705  0.1088  0.2578  0.1696
10846W        W27107  17.647   8.133  13.015 -0.2227  0.1012  0.0092
10847W        W27108  14.613  17.812  12.871  0.4298 -0.0070 -0.1525
10848W        W27109  17.904  12.801   4.850  0.0295  0.5490 -0.0345
10849W        W27110   6.444  14.086  13.496  0.2700 -0.3444  0.1846
10850W        W27111  14.748  12.629  12.196  0.2610  0.1341  0.0835
10851W        W27112   8.016   3.830  14.749  0.0502  0.2180 -0.0122
10852W        W27113   2.007  17.963   9.764  0.0361  0.1028 -0.0439
10853W        W27114   0.648   1.781   1.884 -0.0876 -0.1677 -0.0282
10854W        W27115  15.442   6.220  12.243  0.2771 -0.3118  0.0238
10855W        W27116   2.643   3.721   3.127  0.2160  0.1855 -0.1705
10856W        W27117  11.325   7.330  10.107  0.2388  0.2682 -0.1973
10857W        W27118   2.264  18.237   4.794  0.1175  0.3736 -0.1244
10858W        W27119  18.304  11.643  12.146  0.1238 -0.1616  0.2800
10859W        W27120  12.348  12.211   3.331 -0.0265 -0.1114 -0.3472
10860W        W27121  16.633   5.928  15.321 -0.1769  0.1439 -0.0930
10861W        W27122   5.549   6.412  13.357 -0.1874  0.0235  0.1729
10862W        W27123   1.575  11.931  11.329 -0.1325 -0.0246  0.1782
10863W        W27124  11.986  17.257   3.377  0.3039 -0.1997  0.2617
10864W        W27125  14.080   4.600  14.232  0.1149 -0.1257  0.2679
10865W        W27126  18.420   8.225  13.457 -0.0302  0.1426 -0.0689
10866W        W27127  10.216   8.108  14.698  0.1034 -0.0884 -0.1797
10867W        W27128  12.749  13.647  15.456  0.2406  0.1626  0.1317
10868W        W27129   7.417  10.551  11.128 -0.2415 -0.0206 -0.1643
10869W        W27130   8.003   2.047  12.550 -0.0095  0.0475 -0.1089
10870W        W27131   3.212   4.180   0.246  0.1522  0.1838  0.0667
10871W        W27132   7.522   5.892   5.300  0.1557  0.4557  0.1026
10872W        W27133  14.260  10.460   4.223  0.0842 -0.1103  0.1237
10873W        W27134  17.802   4.933  13.371  0.1125  0.2275  0.5776
10874W        W27135  11.375  12.837   0.774  0.4498 -0.0263 -0.0317
10875W        W27136  14.169   2.241   4.690  0.3111  0.3168  0.0665
10876W        W27137   4.986  17.929   1.514 -0.0102 -0.1207  0.0982
10877W        W27138   9.814  16.082   0.588 -0.3338  0.0446 -0.1191
10878W        W27139   1.817  14.435  14.118 -0.0452 -0.1372 -0.1381
10879W        W27140   5.591   2.530   6.056  0.0719 -0.0073 -0.0053
10880W        W27141  10.587   1.771  11.440  0.0405 -0.0923 -0.3446
10881W        W27142  14.721  17.142  14.761  0.0383 -0.0599 -0.0912
10882W        W27143  10.754  10.114   4.792  0.2301  0.1474  0.1186
10883W        W27144   4.174  18.235   2.674  0.1644  0.1242  0.1262
10884W        W27145   9.413   3.660  13.598 -0.5061 -0.3451 -0.0941
10885W        W27146   6.914  18.466   0.761 -0.0634  0.1931 -0.2158
10886W        W27147   3.372   7.791   3.855  0.0195  0.1905  0.1580
10887W        W27148  16.728   7.281   3.960 -0.1023  0.0429 -0.0691
10888W        W27149   7.965  14.395  14.432 -0.0962  0.1256  0.0503
10889W        W27150  11.145  17.212  12.018  0.1534 -0.3399 -0.1507
10890W        W27151  11.197   8.296  11.266  0.5338 -0.2313  0.0559
10891W        W27152  10.430   8.812   2.428 -0.2249 -0.0870 -0.0395
10892W        W27153  11.026  18.586   4.273 -0.0091  0.0976  0.2542
10893W        W27154  15.902  14.004   2.001  0.0944  0.1761  0.2102
10894W        W27155   7.502  16.801   1.150  0.0299  0.0624  0.0158
10895W        W27156   3.821   7.794  15.506 -0.0094  0.0965  0.1376
10896W        W27157  16.449  17.107   2.763  0.0525  0.1077 -0.1949
10897W        W27158  15.115   7.644  14.304 -0.2860 -0.3171 -0.1468
10898W        W27159  13.040  18.616   4.099 -0.0743 -0.0730  0.1554
10899W        W27160   7.843   8.942   3.474  0.2932  0.0755 -0.1332
10900W        W27161   8.151   4.715   0.145 -0.3142  0.1665  0.0399
10901W        W27162   3.633  15.941   2.719  0.2021  0.0978 -0.1415
10902W        W27163  11.978   8.324   1.476  0.1992  0.1157 -0.1960
10903W        W27164  10.630  16.015   5.195 -0.0756  0.0104  0.0103
10904W        W27165  12.648   2.209  14.391  0.0707 -0.0158 -0.2956
10905W        W27166  11.539  17.088  11.114 -0.1117 -0.3207  0.2091
10906W        W27167  14.534   5.900  11.961  0.1384 -0.3183  0.2632
10907W        W27168   8.676   8.527   3.870  0.3943 -0.2089  0.2325
10908W        W27169   5.095   8.010   4.834 -0.1193 -0.1156  0.1803
10909W        W27170   9.332   0.072  11.046 -0.2437  0.0908 -0.1682
10910W        W27171   3.625   7.816   0.742 -0.0573 -0.1889  0.1585
10911W        W27172   7.754   9.810  14.779  0.1611  0.2552 -0.3017
10912W        W27173  10.548   1.995   4.791 -0.1942 -0.1970 -0.1372
10913W        W27174   0.663   5.017   1.127 -0.0858 -0.2304  0.1204
10914W        W27175  18.717  10.255  12.303  0.1543  0.1198 -0.1402
10915W        W27176   9.808   6.094  12.694  0.1173 -0.1320  0.0379
10916W        W27177  15.510  15.089   3.203  0.2309  0.0415 -0.0955
10917W        W27178   3.649  12.687   0.999 -0.0556  0.0351  0.1839
10918W        W27179   4.944   2.580   1.707 -0.3509 -0.0599 -0.2750
10919W        W27180   2.750   2.545   5.140 -0.0523  0.3524 -0.0645
10920W        W27181  17.126  11.669  13.973  0.0324 -0.0100 -0.0099
10921W        W27182  10.052  17.171  12.159  0.1873 -0.2908 -0.0155
10922W        W27183   7.009  14.220   1.849 -0.0049  0.2064  0.2259
10923W        W27184   2.320   3.071   0.588 -0.1178 -0.3982  0.2985
10924W        W27185  11.853   6.881   4.250  0.0992 -0.1354 -0.0173
10925W        W27186  15.061   0.501   3.657  0.1614 -0.3001 -0.0426
10926W        W27187   6.924  12.174   4.991  0.0465 -0.3144 -0.0622
10927W        W27188   0.464   4.015   5.959 -0.0246  0.1851  0.1202
10928W        W27189   6.533   7.979  13.126  0.0455 -0.0129 -0.1053
10929W        W27190   6.787  17.903   2.436 -0.1792 -0.2355 -0.0047
10930W        W27191  12.657  15.032   2.892  0.1493  0.2588 -0.1949
10931W        W27192   0.784   6.979  14.052 -0.0603  0.2392 -0.0654
10932W        W27193   7.544   6.974  11.558 -0.0596 -0.2046  0.0202
10933W        W27194   8.760  14.282  13.837  0.0442  0.0626  0.2474
10934W        W27195   3.930  10.832  14.774  0.1089  0.1877  0.1239
10935W        W27196   7.104  11.488   0.784  0.4980  0.0371  0.0318
10936W        W27197   3.145  18.479   5.313 -0.2752 -0.1302  0.0134
10937W        W27198   8.380  11.162   1.696  0.0109 -0.0007  0.0071
10938W        W27199   9.076  10.264   2.845 -0.2722 -0.1770 -0.1533
10939W        W27200   5.672   7.144  12.421  0.0162  0.1290  0.2761
10940W        W27201   0.226   7.245  12.350 -0.0623 -0.1207 -0.1083
10941W        W27202   9.781   8.571   2.052  0.3371  0.3215  0.1524
10942W        W27203   2.918   3.038   5.022  0.0534 -0.0021  0.4025
10943W        W27204  14.146  16.955   4.545 -0.1101  0.0465 -0.0500
10944W        W27205  10.395  16.198   3.220  0.2099 -0.0210  0.0445
10945W        W27206   3.631   3.892   4.787  0.2917 -0.0651  0.0071
10946W        W27207   8.675   0.228   1.093 -0.2037  0.1698  0.0216
10947W        W27208   7.790  11.434  13.783  0.0495 -0.1668  0.1153
10948W        W27209   6.288  16.774  15.163  0.0823  0.3659 -0.3818
10949W        W27210   0.792   2.850  13.971 -0.2000  0.0507  0.0234
10950W        W27211   2.348  13.133  13.058  0.0011  0.0257 -0.0655
10951W        W27212  12.798  18.358  11.161 -0.1501 -0.3943  0.0714
10952W        W27213   0.608   1.810  15.585 -0.2298  0.1872 -0.3664
10953W        W27214   2.974   0.503  14.970 -0.2965  0.1108 -0.1172
10954W        W27215  18.443  17.036  11.086  0.1433  0.2669  0.2122
10955W        W27216  14.246   2.006   3.802 -0.0099  0.3496  0.4372
10956W        W27217   2.122   4.756  13.708 -0.1960  0.0075  0.0575
10957W        W27218  18.262  10.609   2.538  0.0454 -0.1321 -0.1024
10958W        W27219   4.816  11.247   3.852  0.1037 -0.0048  0.1079
10959W        W27220  11.192  17.313   5.499 -0.3529 -0.0683 -0.2887
10960W        W27221   8.974   0.113   2.802 -0.4910 -0.2009 -0.0644
10961W        W27222   2.772  11.031  13.617 -0.0339  0.0579  0.3375
10962W        W27223  17.470  13.485   0.364 -0.1030 -0.2402 -0.1427
10963W        W27224   6.805   3.015   5.623  0.2028  0.1119  0.0314
10964W        W27225   8.405   7.321   4.809 -0.2828 -0.2536  0.1083
10965W        W27226  14.598   6.027  11.024 -0.0275  0.0293 -0.2179
10966W        W27227   4.681  16.488   1.492  0.0860  0.0400 -0.2634
10967W        W27228  16.696   9.596   4.777 -0.0289 -0.2719  0.0841
10968W        W27229   5.379  15.614   0.731  0.2191  0.0231 -0.3583
10969W        W27230   5.290   8.589   2.621 -0.1309 -0.0741  0.3922
10970W        W27231  17.605  16.811  11.148  0.2249 -0.2634 -0.1143
10971W        W27232  16.509  15.858  10.984 -0.2462 -0.0764 -0.2739
10972W        W27233   4.353   0.780   2.428  0.2840 -0.0947  0.0739
10973W        W27234  17.471   9.436   0.433  0.2639 -0.2145 -0.2534
10974W        W27235  13.737   2.997  14.701 -0.1375  0.1244  0.3469
10975W        W27236   0.419  16.890  13.974  0.0145 -0.1549 -0.2915
10976W        W27237   6.509   2.434  14.138  0.0885 -0.1319 -0.1484
10977W        W27238   2.565   9.960  14.124  0.2984  0.1622 -0.0954
10978W        W27239  17.419  16.599   4.509  0.2781 -0.2057  0.0761
10979W        W27240  10.654  14.666  15.057  0.0372  0.1327 -0.0131
10980W        W27241  10.867   5.093  11.462 -0.0742  0.0790 -0.3109
10981W        W27242   4.638  16.116   3.800 -0.0170  0.1616  0.0395
10982W        W27243  16.206  13.403   5.485  0.0265  0.0537 -0.0877
10983W        W27244  15.011   7.798  10.489  0.2832  0.0804  0.1018
10984W        W27245  15.918  10.957  12.957 -0.1541  0.1363  0.1478
10985W        W27246  15.573   7.558   4.322  0.0533  0.1003  0.1460
10986W        W27247  11.708   8.093  13.258  0.1721 -0.2988  0.3020
10987W        W27248   3.963   1.731  13.463  0.1313  0.0898  0.0561
10988W        W27249   5.631   5.835  13.254 -0.0437 -0.1441  0.1180
10989W        W27250  10.323  15.830   0.504  0.1037  0.0372  0.0582
10990W        W27251  10.768  15.678   3.904 -0.1187 -0.1490 -0.0957
10991W        W27252   1.711  13.687  13.472 -0.0991 -0.1704 -0.1383
10992W        W27253  11.723   4.405   6.130  0.1618 -0.1333 -0.2089
10993W        W27254  11.549  10.556   3.160 -0.1578  0.1333 -0.1087
10994W        W27255  14.495  12.033  15.074 -0.3480  0.0429  0.2460
10995W        W27256   0.211   3.998   4.394 -0.0510  0.1417 -0.2135
10996W        W27257   6.705   8.302   2.699 -0.2478  0.2388 -0.0347
10997W        W27258  16.096  16.641   1.234  0.1932 -0.1544  0.1844
10998W        W27259   1.681   0.980  11.141 -0.1499 -0.1380 -0.1086
10999W        W27260  17.502  15.795   5.686  0.1451  0.0473  0.0282
11000W        W27261  15.694  17.896  12.835 -0.2120  0.3282  0.3165
11001W        W27262   7.279  13.783  15.396  0.1278  0.3642  0.1173
11002W        W27263   4.598  17.047   0.610  0.0997  0.2178  0.1869
11003W        W27264  17.225  11.610   2.641 -0.2428  0.1811  0.0229
11004W        W27265  17.793   0.499   2.144  0.0892  0.0218  0.4057
11005W        W27266   4.988  10.761   0.529 -0.3872 -0.0697  0.0032
11006W        W27267   4.881  17.630  12.416  0.3273  0.2485  0.0011
11007W        W27268   9.257  11.695  10.768  0.1678 -0.2123 -0.2277
11008W        W27269  12.422   5.138  11.404  0.1762  0.0533  0.0255
11009W        W27270  15.394   5.408   2.542 -0.3361 -0.2361 -0.1092
11010W        W27271   3.846  13.930   0.074 -0.1330 -0.2007  0.2919
11011W        W27272  10.819   8.818   0.494 -0.0637  0.1126  0.1576
11012W        W27273  12.640  10.434  14.241  0.0303 -0.1401 -0.1244
11013W        W27274   4.944  11.572  14.115  0.2969  0.0566 -0.0807
11014W        W27275   0.062   3.226   4.651 -0.0460  0.4125 -0.0495
11015W        W27276  18.404   2.430  10.962  0.0366 -0.0784 -0.0756
11016W        W27277  17.302   5.065  12.649  0.2061 -0.3206  0.0237
11017W        W27278   7.101   1.059   2.455  0.3310  0.3095  0.2959
11018W        W27279   1.031   4.140  12.157  0.1727 -0.0710  0.1830
11019W        W27280   9.905  14.697   4.075  0.1637 -0.2403  0.1845
11020W        W27281   9.469  14.657   3.377 -0.2413  0.2824 -0.1932
11021W        W27282   7.769   7.384   0.480 -0.2027 -0.0206 -0.2732
11022W        W27283  11.348   8.245   0.860 -0.0897 -0.1177 -0.3324
11023W        W27284   0.986   5.099  14.015 -0.0305  0.0132  0.3332
11024W        W27285   4.468   7.072   4.447  0.0060  0.0411  0.1036
11025W        W27286   7.263  12.410  12.109  0.0967 -0.2773 -0.0751
11026W        W27287  11.501   5.144   4.765  0.0652 -0.1360 -0.1060
11027W        W27288  15.927  14.047  13.805 -0.0039 -0.0064  0.1013
11028W        W27289  15.315   9.429   4.703 -0.1526 -0.5184 -0.1069
11029W        W27290   0.351   1.495  10.447  0.3442  0.1094  0.1439
11030W        W27291   9.257   3.069   0.420  0.0648  0.2840  0.0892
11031W        W27292   9.677   1.859   0.683  0.1752 -0.0402 -0.5164
11032W        W27293  13.303  15.268  13.001  0.1754  0.1322 -0.2320
11033W        W27294  18.475   4.252  13.584 -0.2210 -0.1966  0.0482
11034W        W27295   5.255  17.033  15.220  0.1794 -0.2292 -0.0375
11035W        W27296   0.273  17.145  14.418  0.3134 -0.3473 -0.1753
11036W        W27297  15.731  14.677   4.461  0.0455  0.2197 -0.0381
11037W        W27298  11.168   5.942  13.237 -0.3543  0.0381 -0.0090
11038W        W27299  15.261   8.597  12.919 -0.2132 -0.1342 -0.0359
11039W        W27300  18.643   4.642  14.392  0.2145  0.0189  0.1313
11040W        W27301  15.322   4.302   1.405  0.1174 -0.1795 -0.3746
11041W        W27302  12.644  14.235   4.007 -0.3246 -0.0678 -0.0413
11042W        W27303  10.151   4.336  12.455 -0.2965 -0.0884 -0.0327
11043W        W27304  14.717  17.189   2.233 -0.3950 -0.4709  0.0692
11044W        W27305   6.203  16.020   0.496 -0.1369 -0.2301  0.2508
11045W        W27306   0.328  14.028   0.044 -0.1390 -0.3262 -0.1491
11046W        W27307   6.876  10.605   4.060  0.1851 -0.2887  0.1197
11047W        W27308   8.938   9.017   2.442 -0.0033 -0.3619  0.1080
11048W        W27309  11.068   7.709  15.460 -0.1686  0.1164  0.1122
11049W        W27310   1.912   0.588   3.660  0.0781  0.0390 -0.0764
11050W        W27311  13.919  15.621   5.610  0.1104 -0.0314 -0.3211
11051W        W27312  13.219  18.248  12.770  0.1814 -0.1144  0.0248
11052W        W27313  17.755  17.066  14.198 -0.1801 -0.0955  0.0831
11053W        W27314  11.008   7.539  12.589  0.0411 -0.2288  0.2138
11054W        W27315  12.079   7.145  11.624 -0.0118  0.4033 -0.3477
11055W        W27316  10.275  18.671  14.022  0.3355 -0.0868 -0.2048
11056W        W27317  17.741  10.393  10.782  0.3422  0.1483 -0.1288
11057W        W27318  13.218   4.894  11.648 -0.1796 -0.1305  0.0377
11058W        W27319  18.405   1.672   2.623 -0.0838 -0.0221 -0.1971
11059W        W27320   8.056   9.959  10.811  0.2124  0.1715 -0.0676
11060W        W27321   3.607  12.289  12.457 -0.3932  0.2706  0.1170
11061W        W27322   1.701  10.123   4.808 -0.1243 -0.3115  0.2975
11062W        W27323  16.375   4.578  13.306  0.0413 -0.0441 -0.0570
11063W        W27324   4.171   9.608   2.179  0.0560 -0.1515 -0.0217
11064W        W27325  14.419  15.359  12.338  0.0232 -0.0238  0.2365
11065W        W27326  13.157   5.128   2.608  0.0114 -0.1872  0.0785
11066W        W27327  11.814  16.323   0.919 -0.0142 -0.0851 -0.0469
11067W        W27328  15.979   3.087   1.596 -0.4707  0.0317 -0.0186
11068W        W27329   0.109   1.473   5.632 -0.0845  0.1485  0.0463
11069W        W27330   1.868   8.927   1.160 -0.1798 -0.1765 -0.1388
11070W        W27331  17.592   7.931   1.211  0.1908 -0.1241  0.2598
11071W        W27332  11.572  14.321   2.110  0.0358 -0.0204  0.1068
11072W        W27333  11.379  15.317   3.619 -0.1672  0.1550 -0.2452
11073W        W27334  14.042  18.587  12.154 -0.3184 -0.1095 -0.1092
11074W        W27335  15.666  10.812  14.475 -0.4378  0.1343 -0.1112
11075W        W27336   9.760  10.430  13.146 -0.1176 -0.0870 -0.2974
11076W        W27337  14.847   3.200   0.949 -0.2605 -0.1707 -0.2645
11077W        W27338   8.652   8.046  13.148  0.4377  0.0852  0.0835
11078W        W27339   9.517  12.883   2.539  0.0615 -0.2245 -0.0957
11079W        W27340  14.480  18.320  13.885  0.1484 -0.2167 -0.1538
11080W        W27341  12.169   5.982   2.544 -0.1209 -0.1447 -0.1346
11081W        W27342   7.628   5.332   0.899 -0.2493  0.2790  0.0839
11082W        W27343  17.691  17.850   2.809  0.2238 -0.0959  0.1025
11083W        W27344   1.964  17.742  13.985 -0.0065 -0.0308  0.4135
11084W        W27345  16.087   1.972   1.940 -0.0965 -0.1975 -0.1148
11085W        W27346   2.334  12.117   2.703 -0.1430 -0.0598  0.1428
11086W        W27347  16.639  11.753  11.941  0.0684 -0.0290  0.5233
11087W        W27348  15.897   7.410  13.273 -0.1316 -0.2626  0.0071
11088W        W27349  16.791  13.591  13.992  0.4102 -0.2481  0.0591
11089W        W27350  11.640   6.055  13.281  0.3106  0.0250  0.1400
11090W        W27351  16.301  15.433   4.674 -0.0661 -0.3899  0.0229
11091W        W27352   1.769   9.216   9.927 -0.3966  0.0514 -0.3060
11092W        W27353   8.166  12.689   0.794 -0.1034  0.1617 -0.0850
11093W        W27354  17.010  16.931  13.733  0.1564  0.1759 -0.2144
11094W        W27355   6.638   6.040  14.513  0.2049  0.1383  0.2394
11095W        W27356   1.821   9.593  10.961  0.0376 -0.0209 -0.1240
11096W        W27357  13.271  10.651  12.260  0.2102  0.1010  0.3435
11097W        W27358  16.283   2.750  13.185 -0.2155 -0.3005  0.1071
11098W        W27359  15.414   5.046   0.118  0.2420 -0.3324 -0.2540
11099W        W27360  18.348   0.099   1.111 -0.0734  0.0044 -0.0512
11100W        W27361  14.085  13.012   4.227 -0.0189 -0.1353  0.1613
11101W        W27362  17.871   3.903   1.280 -0.2851 -0.1824  0.1421
11102W        W27363   3.809   1.956  12.884  0.0785 -0.0426  0.1263
11103W        W27364  18.774   4.755   2.807  0.0858  0.3166 -0.4219
11104W        W27365   8.295   5.270   5.693 -0.0276 -0.2901  0.3747
11105W        W27366  15.375  11.742  15.170 -0.0626 -0.1494  0.4702
11106W        W27367   1.003  13.009   5.165 -0.1875  0.2598  0.0799
11107W        W27368  10.244   8.087  11.883  0.1362  0.0496 -0.0278
11108W        W27369  16.862   6.605  10.953  0.0160  0.2602 -0.0660
11109W        W27370  14.554  11.000   0.554  0.3259  0.0772 -0.0537
11110W        W27371  15.248  15.006   2.782  0.2331  0.1481 -0.1435
11111W        W27372   4.698   3.528   4.392  0.0550 -0.3966 -0.1364
11112W        W27373   3.960  14.644   5.330 -0.3104 -0.0023 -0.1520
11113W        W27374  14.627  16.399  15.375 -0.0252 -0.0195  0.1709
11114W        W27375   5.080   7.171   6.062 -0.0681 -0.2001 -0.2668
11115W        W27376   2.580  10.457  12.723  0.2277 -0.2421 -0.0068
11116W        W27377  16.992   4.219   0.271  0.1332  0.3191  0.2395
11117W        W27378  10.842  15.695   4.469  0.4070  0.3827  0.0746
11118W        W27379   7.574  17.151  13.435 -0.5402 -0.4986  0.1482
11119W        W27380  18.700   1.525   1.618  0.1235  0.3971 -0.0462
11120W        W27381  17.210   4.819  13.705 -0.1525  0.1680 -0.1450
11121W        W27382  15.451   5.656   4.567 -0.0744 -0.0238  0.2410
11122W        W27383   2.299   5.888  13.333 -0.2022 -0.2032 -0.0260
11123W        W27384  16.708  17.866  12.103  0.2538 -0.1378 -0.1730
11124W        W27385   0.202   6.263  13.130  0.0147 -0.0955  0.0161
11125W        W27386   7.890  18.652   5.653 -0.1847  0.1699 -0.1339
11126W        W27387   4.444   4.721  12.305 -0.1985  0.1582  0.2471
11127W        W27388  14.822   5.806  11.485  0.0053  0.0406  0.0905
11128W        W27389  10.144   9.305   2.210  0.1916  0.1048 -0.2020
11129W        W27390   8.603   7.212  12.614  0.1074  0.1692  0.0965
11130W        W27391   0.334   3.387   1.148  0.1120  0.2277  0.2383
11131W        W27392   5.500   7.374   0.355 -0.1008 -0.0921  0.0040
11132W        W27393  13.254  17.139  13.691 -0.1630 -0.1371 -0.1438
11133W        W27394   0.023  14.011   4.426  0.0740  0.1343 -0.1555
11134W        W27395  17.650  10.767  14.876 -0.0796  0.0149  0.0370
11135W        W27396   5.978  11.525  13.931  0.2475 -0.1640  0.0066
11136W        W27397   6.959  12.166   3.094  0.0629 -0.0107 -0.1488
11137W        W27398   1.622  16.603  11.807 -0.0490 -0.1647 -0.0595
11138W        W27399  12.676   1.244   3.207 -0.1612 -0.1434  0.2244
11139W        W27400  13.307   4.768  13.880 -0.1065 -0.4551  0.0027
11140W        W27401   6.042   6.214  13.321 -0.0240 -0.0231  0.1581
11141W        W27402  18.355   7.660  10.961 -0.1962 -0.0989 -0.1474
11142W        W27403   3.457   8.962  11.335  0.0989  0.1363  0.1223
11143W        W27404  12.138   0.397  14.026 -0.0622  0.1159  0.2471
11144W        W27405   0.103   2.071  14.917 -0.1140 -0.1496 -0.2864
11145W        W27406   0.932  18.598  11.972 -0.1237 -0.0172  0.0437
11146W        W27407   3.480   4.360  15.241  0.0888  0.2521 -0.3128
11147W        W27408   5.603   3.669   5.185  0.0031 -0.0059  0.4260
11148W        W27409   9.569  11.369   1.010 -0.2040 -0.0385  0.0716
11149W        W27410   2.041   8.840  11.409 -0.0787 -0.3912  0.0510
11150W        W27411  18.401   5.755  11.322  0.2091  0.1733 -0.1469
11151W        W27412   7.465   7.832   5.343 -0.0033 -0.1700  0.0199
11152W        W27413   9.435  17.631   1.762 -0.1418  0.2723  0.2556
11153W        W27414   7.654  12.980   0.880 -0.2448  0.0539  0.2347
11154W        W27415  14.192   9.446  13.678 -0.1816 -0.0450 -0.1096
11155W        W27416  15.031   5.904  15.247  0.0224  0.0303 -0.0027
11156W        W27417   0.122   9.269   2.824 -0.0495 -0.0721 -0.2576
11157W        W27418   5.861   6.035  15.278 -0.0621 -0.2121 -0.0958
11158W        W27419  15.707  11.018  10.843  0.5377 -0.1056  0.0687
11159W        W27420   2.890  16.409  10.040 -0.0453  0.2632 -0.0704
11160W        W27421   3.874  11.132   3.992  0.1980  0.2027 -0.1659
11161W        W27422   4.464   7.119   2.094 -0.0732 -0.4020 -0.1978
11162W        W27423   9.930  16.813  14.230  0.1105 -0.1150  0.0561
11163W        W27424  18.132   0.818  10.518  0.0723 -0.2284 -0.0759
11164W        W27425   1.801  13.375   3.157 -0.1627 -0.0124 -0.0989
11165W        W27426  11.354  15.445   4.653  0.3363  0.0233 -0.4050
11166W        W27427  17.686  14.861   3.256 -0.2082 -0.0566  0.1299
11167W        W27428   7.104   3.982   4.836 -0.1606 -0.2219  0.0305
11168W        W27429  11.115  16.594  11.943  0.0314 -0.1781 -0.1679
11169W        W27430  17.243   0.414   0.974 -0.2042  0.0113 -0.0918
11170W        W27431   5.357  18.226  12.188  0.0320  0.1411 -0.2852
11171W        W27432  12.545   4.118   4.367 -0.0703 -0.4369  0.5025
11172W        W27433   5.439   2.508   4.512  0.0679  0.1805  0.0069
11173W        W27434  12.256  14.091  14.706  0.1768 -0.1646  0.0600
11174W        W27435  12.918  17.428  11.696  0.1188  0.1108  0.0935
11175W        W27436  15.329  11.173   3.515 -0.0594 -0.4220 -0.1269
11176W        W27437   2.290   6.520   3.500 -0.1377  0.1862  0.3685
11177W        W27438  11.666  10.107  14.559 -0.2064  0.0603 -0.0430
11178W        W27439  18.287   8.190   0.910  0.1198  0.0481  0.3872
11179W        W27440   7.316   0.901  12.015  0.1050 -0.1217  0.1071
11180W        W27441   9.723   6.468  13.712 -0.0517 -0.0539  0.0912
11181W        W27442   2.723  11.899  13.412  0.0371 -0.0575 -0.0932
11182W        W27443  17.561   4.103  12.189  0.3318  0.1134  0.3219
11183W        W27444  14.854   6.333  13.836 -0.1647  0.0629  0.3146
11184W        W27445  15.725   6.481   3.422  0.2144  0.1107  0.0578
11185W        W27446   6.574   9.314  11.429  0.0099  0.1907 -0.1416
11186W        W27447   0.364  15.012  13.891  0.1831 -0.0086 -0.0545
11187W        W27448  11.001   4.695   3.332  0.0047 -0.0512  0.3952
11188W        W27449  18.473  12.552  13.041  0.0682  0.1599  0.0834
11189W        W27450   0.061   5.719  15.448  0.0923  0.0876 -0.0136
11190W        W27451  13.329   0.856  11.013 -0.0472  0.2268  0.1472
11191W        W27452   0.432  14.676  11.760  0.0356 -0.1439 -0.0731
11192W        W27453   8.276   6.596   0.758 -0.0080  0.4450 -0.5553
11193W        W27454  15.324   9.995   5.819  0.3522  0.1423 -0.0702
11194W        W27455   4.633  13.884  12.958  0.0531 -0.1858 -0.2313
11195W        W27456  15.310   9.835   1.308 -0.1128  0.0643 -0.0129
11196W        W27457  18.038  16.703  13.892  0.5187 -0.2718 -0.1352
11197W        W27458  18.248  15.609  15.584 -0.0366  0.0698  0.2263
11198W        W27459   8.929   1.657   5.965 -0.1354 -0.0398 -0.2511
11199W        W27460   3.546  14.891   1.645  0.0839 -0.0359 -0.3977
11200W        W27461   4.561  17.693   1.447  0.0941 -0.0230  0.1489
11201W        W27462  18.201  17.097   0.891 -0.1243 -0.2369  0.2920
11202W        W27463  16.527  12.771  11.111 -0.0966 -0.2246  0.1525
11203W        W27464  15.548   7.654   0.446 -0.1471 -0.4467 -0.5061
11204W        W27465   7.876   5.644   2.205  0.2822 -0.2696 -0.0121
11205W        W27466  11.107  15.340  12.606 -0.2156  0.1858  0.1002
11206W        W27467  15.628   1.110  11.807 -0.0414 -0.2473 -0.2853
11207W        W27468   2.824   0.351   0.859  0.2984  0.2035  0.2167
11208W        W27469   2.189   3.522   4.194 -0.0614 -0.1933  0.0069
11209W        W27470  14.764  10.879   9.893  0.1152  0.1470 -0.1973
11210W        W27471   3.671  15.166  11.361 -0.0027 -0.4299 -0.0674
11211W        W27472  11.576   2.729   0.847  0.3110  0.0268  0.1165
11212W        W27473   0.361   0.591   3.157  0.0402 -0.2609  0.0086
11213W        W27474   4.133  15.092  13.919  0.0949 -0.2325 -0.1196
11214W        W27475  15.298  12.023  13.767 -0.0147 -0.2837 -0.0486
11215W        W27476  16.752  12.051   3.152  0.0907 -0.2467  0.0892
11216W        W27477  17.706   9.449  15.605  0.0219 -0.0257 -0.4748
11217W        W27478   6.335  16.592  13.033 -0.2438 -0.0359 -0.1994
11218W        W27479   9.164  14.862   2.975 -0.2123 -0.2379  0.2351
11219W        W27480  11.061   8.154   1.226  0.1220 -0.3635  0.1782
11220W        W27481   7.332   5.353  14.540  0.3021 -0.0330  0.0972
11221W        W27482  16.153   9.309   5.153  0.0208  0.0932  0.3713
11222W        W27483   4.259  14.145  14.023  0.2435  0.1039  0.3003
11223W        W27484   7.366   2.213   4.819  0.2419 -0.1066 -0.1859
11224W        W27485   5.111  16.409   3.780  0.1648 -0.1440  0.0414
11225W        W27486   8.331  11.726   3.973  0.0363  0.2178 -0.0435
11226W        W27487  16.578  15.052   2.186 -0.0871  0.0329 -0.1631
11227W        W27488  10.626  13.873  15.444 -0.0425 -0.1046 -0.2808
11228W        W27489   7.105  12.032   2.188 -0.0800 -0.0105 -0.0438
11229W        W27490   0.415   0.068  14.681  0.4954 -0.0789  0.1785
11230W        W27491   1.590   2.451   3.202  0.2297  0.0948  0.0259
11231W        W27492   2.016   1.009   3.879 -0.1444  0.4796  0.1588
11232W        W27493   5.867   5.827   2.919 -0.1904 -0.1860 -0.1365
11233W        W27494   1.442   9.269  10.777  0.1436  0.2434  0.4111
11234W        W27495   6.792  11.236  12.459 -0.2495 -0.0823  0.0294
11235W        W27496  18.469  10.420   3.442 -0.1030 -0.0475  0.2098
11236W        W27497  11.984   9.363  15.097  0.3228  0.0762 -0.2658
11237W        W27498   6.251   2.071  11.383  0.2007 -0.0948  0.2866
11238W        W27499  11.094   7.541   6.028  0.2220  0.1151 -0.0366
11239W        W27500   9.240  16.338  14.629 -0.1423  0.0313  0.0231
11240W        W27501  18.380   7.745  13.855  0.3577 -0.1198 -0.0258
11241W        W27502  15.873  16.541   3.971 -0.2729  0.0160 -0.0900
11242W        W27503   4.671   7.207  14.303  0.1206 -0.3850  0.0419
11243W        W27504   5.646   0.793  12.292 -0.0860 -0.1454  0.1926
11244W        W27505   0.807   5.941  14.241  0.0707  0.1282  0.0416
11245W        W27506  17.146  17.254  13.396 -0.0186 -0.1142  0.1577
11246W        W27507   5.703  11.730  15.519 -0.0182  0.0422 -0.2239
11247W        W27508  10.017   5.282  12.816  0.0614  0.1255  0.0042
11248W        W27509   0.477   3.944  13.525 -0.0013  0.1000 -0.0176
11249W        W27510  14.657   5.603   3.290  0.2960  0.0501 -0.0295
11250W        W27511   3.353  13.417   1.664 -0.2453 -0.1552  0.0498
11251W        W27512   8.041   1.804  15.095 -0.2023  0.2157 -0.0316
11252W        W27513   1.579   0.358   5.107 -0.1437 -0.0400  0.1183
11253W        W27514   9.324   0.948   1.977  0.1780  0.2058 -0.1690
11254W        W27515  17.491  12.501   0.561  0.2282 -0.0662 -0.2889
11255W        W27516   3.777   0.514  11.565  0.3043  0.1281 -0.0356
11256W        W27517  13.796  10.346  12.613 -0.0950  0.2428  0.1415
11257W        W27518  17.447  10.418  11.603  0.4374  0.0529  0.2365
11258W        W27519  18.220   5.744  14.252  0.7516 -0.0826 -0.2288
11259W        W27520  10.187   8.416   5.348 -0.2104 -0.1340  0.0932
11260W        W27521  10.587   1.951  14.956  0.0482 -0.0925  0.1036
11261W        W27522  12.700   8.412  11.471 -0.1363 -0.1031  0.1730
11262W        W27523   0.019  14.479   4.159 -0.1248 -0.0633  0.0185
11263W        W27524   7.352  12.575   0.337 -0.0801  0.6126  0.0082
11264W        W27525   5.488   5.115  12.265  0.0416  0.0477 -0.1353
11265W        W27526   2.781   5.558   5.221 -0.0879  0.0272  0.0522
11266W        W27527   5.926   9.994   0.583 -0.0617 -0.0323  0.0182
11267W        W27528  14.982  16.861  14.045  0.2280  0.0674 -0.0192
11268W        W27529   5.701   3.400   2.863 -0.0120  0.3212  0.0213
11269W        W27530  13.226   8.099  10.263 -0.0680 -0.1999 -0.1112
11270W        W27531  16.523  11.093  14.021  0.0504  0.1878 -0.0651
11271W        W27532   2.105   4.422   0.356  0.1798  0.2341 -0.0414
11272W        W27533  15.353   9.353  12.286 -0.1058 -0.0156  0.1832
11273W        W27534  10.177  16.196  12.544  0.2300  0.1124 -0.1584
11274W        W27535  10.721   3.375   0.069 -0.1791  0.2362  0.0484
11275W        W27536  14.720   2.668   4.114  0.2109 -0.1064  0.1633
11276W        W27537   1.779   8.332   2.439  0.1810 -0.0699  0.0264
11277W        W27538   6.405  13.676  15.368 -0.0394  0.0101  0.1866
11278W        W27539   7.776   3.623   4.421  0.2130  0.0907  0.2035
11279W        W27540   4.389  14.392   5.422 -0.1194 -0.0467 -0.0108
11280W        W27541  18.346  15.269   5.514 -0.1168 -0.1963 -0.2952
11281W        W27542  12.606   8.551  11.949  0.1730  0.0572 -0.0590
11282W        W27543   7.600   7.372   0.023  0.0170 -0.1223  0.0054
11283W        W27544   1.995  10.787   0.997 -0.0738  0.0940  0.2346
11284W        W27545   0.904  18.562  12.508 -0.1926  0.0211 -0.1711
11285W        W27546   4.963  17.137  11.524  0.0252 -0.0526  0.0798
11286W        W27547   1.617   1.131  14.026  0.0941 -0.2402 -0.1912
11287W        W27548   3.218   5.461  13.328  0.0348 -0.0078  0.1871
11288W        W27549   6.806  12.310   1.939 -0.0800 -0.1728  0.3114
11289W        W27550   6.016   4.177   6.097 -0.0071 -0.2441  0.1628
11290W        W27551  13.401  18.782   1.210 -0.1991  0.0897 -0.0363
11291W        W27552   9.308  17.337   3.586 -0.2685  0.1108 -0.1850
11292W        W27553  18.005   0.231  15.149 -0.0266  0.1834  0.1490
11293W        W27554  12.346  18.621   5.074 -0.0784  0.0113 -0.2190
11294W        W27555   7.443   3.935   0.728  0.1070 -0.0198  0.0059
11295W        W27556   6.570   7.183  12.015 -0.1128 -0.0305  0.2548
11296W        W27557   7.629   1.052   5.070 -0.0128  0.1353  0.0238
11297W        W27558   3.774  11.265  15.027  0.3414  0.1184 -0.2495
11298W        W27559   3.377   0.213  10.786  0.0276  0.0442  0.0218
11299W        W27560   1.625   7.067  14.231 -0.0789  0.0505  0.2768
11300W        W27561   4.218   6.130  12.911  0.1027  0.1786  0.2190
11301W        W27562   9.573   6.307   1.810  0.3361 -0.4389  0.1457
11302W        W27563   9.653  11.000  11.593  0.2497 -0.1253 -0.2244
11303W        W27564   5.536  17.653  13.084 -0.0827  0.4659 -0.1253
11304W        W27565   1.472  10.309  12.985 -0.5089 -0.0022 -0.2378
11305W        W27566   9.608   1.332   0.679  0.0415  0.1172 -0.1369
11306W        W27567   2.131  13.737   3.374 -0.0348 -0.3055 -0.0222
11307W        W27568   9.936  13.238   0.091  0.3363  0.2090  0.0095
11308W        W27569   4.857   4.445   0.156  0.0423 -0.0207  0.2730
11309W        W27570  15.428  15.551   0.760 -0.2012 -0.0820 -0.1468
11310W        W27571  10.140  15.489   2.778 -0.0068  0.1235  0.2465
11311W        W27572  17.334   5.143  11.172 -0.4082 -0.0411  0.0966
11312W        W27573   4.985  15.374  12.828 -0.0570  0.1023 -0.3352
11313W        W27574  11.304   7.136  14.917 -0.0267 -0.1106  0.1183
11314W        W27575   9.771   5.028   2.003  0.2480  0.0045  0.1955
11315W        W27576   8.497   7.361  11.372  0.0623 -0.1281  0.3791
11316W        W27577  13.371   1.875   4.086 -0.0513  0.2372 -0.2847
11317W        W27578  14.465   4.569   4.244  0.0084 -0.1856 -0.0027
11318W        W27579  16.994   2.787  10.129  0.4744  0.2534 -0.3577
11319W        W27580  14.881  16.570  14.899 -0.1057 -0.0200 -0.0710
11320W        W27581   5.555   1.073   0.974  0.1236  0.3068 -0.0959
11321W        W27582   2.551  16.270  13.281  0.0500 -0.3211  0.1724
11322W        W27583  17.476  15.415  10.963 -0.2870  0.1673  0.0575
11323W        W27584   6.130   5.770   5.461  0.1166 -0.0296  0.2289
11324W        W27585  11.042   5.116   2.361  0.0901 -0.0494 -0.1709
11325W        W27586  16.937  17.901   2.935  0.0740 -0.1488 -0.4016
11326W        W27587   0.262  13.050   0.479  0.0519  0.1297 -0.1003
11327W        W27588   8.283  17.833   3.340  0.0749 -0.0383 -0.0826
11328W        W27589   5.231   1.515  14.425  0.4363  0.0524 -0.0488
11329W        W27590  18.077   6.069  15.064 -0.0454 -0.1509  0.2554
11330W        W27591   6.647   0.147  13.715 -0.1810 -0.0739  0.0346
11331W        W27592   4.078  12.166   1.788 -0.0538 -0.1619  0.2166
11332W        W27593  13.140   7.057   4.829  0.5620 -0.0260  0.1568
11333W        W27594   1.539   8.264  14.622  0.1065 -0.1720 -0.1117
11334W        W27595   7.593  16.520   1.559  0.3067 -0.1302  0.2376
11335W        W27596  10.240  10.028   3.263 -0.2079 -0.2434 -0.1783
11336W        W27597  17.726  16.768   4.153  0.2889 -0.0740 -0.0442
11337W        W27598   7.964  10.234   1.805 -0.0827 -0.2951 -0.0288
11338W        W27599   9.449  17.502   0.894 -0.0407  0.2396  0.1365
11339W        W27600  15.067  15.170  11.856  0.2096  0.0390 -0.1952
11340W        W27601   3.049  13.605  11.906 -0.1301  0.1155  0.0374
11341W        W27602  11.193   4.471   2.397 -0.1090 -0.0505 -0.0509
11342W        W27603   5.103  17.662  15.462 -0.1992  0.1228 -0.1758
11343W        W27604  12.476   3.832  13.667  0.3843  0.0424  0.2451
11344W        W27605  10.522   2.923   0.279 -0.2356  0.0572  0.1083
11345W        W27606  13.795   7.326   3.969 -0.0365  0.1881  0.1565
11346W        W27607  13.114  16.808   4.238 -0.1083 -0.2721 -0.1531
11347W        W27608  14.573   3.183   4.009  0.0483  0.3016  0.0660
11348W        W27609  14.668   5.316  14.765 -0.1384 -0.3114  0.1370
11349W        W27610  12.715  15.935   2.483  0.1799  0.2054 -0.1024
11350W        W27611  15.766   5.926   2.720 -0.0131 -0.2766 -0.3147
11351W        W27612  10.986   8.118   3.391  0.2454 -0.0915 -0.0330
11352W        W27613   0.405  10.299   3.257 -0.0611  0.3226 -0.1304
11353W        W27614   7.421   4.962  13.538 -0.1790  0.2205 -0.3265
11354W        W27615  11.726  11.145  14.397  0.1766  0.1753 -0.0046
11355W        W27616   0.805   0.086   3.104  0.0112 -0.2907  0.0386
11356W        W27617   6.141   2.358  13.289 -0.1229 -0.0149 -0.3130
11357W        W27618  11.074  14.239   4.295 -0.1519  0.1580  0.0175
11358W        W27619  14.513  15.372   1.626  0.1454 -0.0043 -0.1909
11359W        W27620   7.647  18.695  12.107 -0.2466  0.0857  0.2114
11360W        W27621  16.591  13.819   0.379 -0.0783 -0.0543 -0.0766
11361W        W27622  12.695  18.776  11.467  0.0949  0.2509  0.1486
11362W        W27623  13.093   2.620   2.994 -0.1469  0.1144  0.0386
11363W        W27624   6.388   5.191   4.870 -0.3332  0.1081  0.0404
11364W        W27625  11.536  10.375  15.603  0.0943  0.5181  0.2988
11365W        W27626  16.171   2.959   0.952 -0.0938 -0.2028 -0.3302
11366W        W27627   9.277   5.793  15.107  0.2292 -0.2690  0.3431
11367W        W27628  10.786  13.367  12.692  0.2470 -0.0327  0.0928
11368W        W27629  11.412  14.524  14.502  0.1887 -0.3388  0.2028
11369W        W27630  11.688  12.792  11.508  0.0035  0.0313 -0.0968
11370W        W27631   7.599   0.315  12.373 -0.1708  0.2309 -0.0693
11371W        W27632   0.358   8.829  10.978 -0.2055  0.0579 -0.2774
11372W        W27633  12.860  16.100  11.532 -0.0853 -0.1484  0.0589
11373W        W27634  16.244   3.178  12.111 -0.3035 -0.3214 -0.2369
11374W        W27635   5.339   2.068  11.796  0.0072  0.0762 -0.0301
11375W        W27636   9.053  13.603  10.363 -0.3994 -0.0985 -0.0532
11376W        W27637  18.542  18.029   0.907  0.1451 -0.1017  0.1724
11377W        W27638   6.034  15.092   3.512 -0.0846 -0.2261 -0.3024
11378W        W27639  11.136  10.420  12.363  0.0703 -0.2728  0.3262
11379W        W27640   7.369  13.749  10.799 -0.0159 -0.0575  0.2779
11380W        W27641  14.039   1.091  14.185  0.0856  0.1493  0.0298
11381W        W27642   8.744   9.465   0.770  0.1242  0.0773  0.1831
11382W        W27643  18.730   1.727   0.010  0.1398  0.1504 -0.2650
11383W        W27644   9.666  15.701   3.234  0.0930  0.0458  0.1969
11384W        W27645  12.360  18.313  15.116 -0.0229  0.0035 -0.5064
11385W        W27646   8.041  15.398  15.426  0.2134 -0.1804 -0.0225
11386W        W27647  11.536  11.466   2.297  0.1683 -0.1209  0.0415
11387W        W27648   3.255  15.823  14.357 -0.1430 -0.2988 -0.2261
11388W        W27649   3.078   9.006   0.061  0.1083  0.2577 -0.1267
11389W        W27650  12.330   9.999  12.642  0.0106 -0.0547 -0.2703
11390W        W27651  15.417   9.701  15.061 -0.0778 -0.0003 -0.0018
11391W        W27652   5.764   5.170  13.817  0.2108 -0.0532  0.0394
11392W        W27653   4.417   5.909  13.779 -0.2316 -0.3456 -0.3040
11393W        W27654  18.628   5.910   5.734 -0.1119  0.1241  0.3693
11394W        W27655  12.060  10.770  12.396  0.3918  0.1498 -0.2066
11395W        W27656  18.514  15.835   2.776 -0.1189 -0.3581  0.2060
11396W        W27657   7.822   6.489   4.335 -0.2088  0.1393  0.0697
11397W        W27658   5.728  10.653  12.442  0.0867  0.2525  0.0426
11398W        W27659   6.238  13.614   1.831  0.1401 -0.2356  0.0007
11399W        W27660  17.396  11.707  15.394  0.0782 -0.0296  0.1701
11400W        W27661   6.587  18.530   1.311 -0.1521 -0.2631  0.0079
11401W        W27662   2.446  10.893   2.735  0.2210  0.1215  0.0187
11402W        W27663   2.154  16.358   0.245  0.0691  0.3693  0.1390
11403W        W27664  11.551   5.267   2.436  0.0534  0.1238 -0.0024
11404W        W27665  14.364   3.809   2.115  0.0920  0.1662  0.3865
11405W        W27666  12.015  15.044   4.612 -0.0661  0.0053 -0.1821
11406W        W27667   0.042  14.296   5.410  0.2176  0.0367 -0.0282
11407W        W27668  13.070  14.869  10.734 -0.0470 -0.1900  0.2834
11408W        W27669   8.646  16.080   2.604  0.1888 -0.0571  0.0911
11409W        W27670   9.604   5.805   1.300 -0.3691  0.2066  0.5335
11410W        W27671   1.388  14.631   1.178  0.0852 -0.1914 -0.2419
11411W        W27672   7.908  17.366  13.078  0.3796 -0.0818  0.1025
11412W        W27673   0.302   0.581  12.364 -0.1971  0.1080 -0.0157
11413W        W27674  11.180  15.349   4.118  0.5096 -0.1848 -0.0708
11414W        W27675   6.374   8.555  13.932  0.2760  0.2831 -0.1784
11415W        W27676  18.519  18.657   4.516  0.3525 -0.0006  0.0369
11416W        W27677  18.265  12.080   0.480  0.3735 -0.0101  0.0393
11417W        W27678  18.310  18.719   3.828  0.1813 -0.0003  0.1442
11418W        W27679   3.551  14.158  11.023  0.3215 -0.0824 -0.1913
11419W        W27680  13.345   2.054   1.398  0.1869  0.2144 -0.0267
11420W        W27681  11.486   6.871  15.482  0.2173  0.1318 -0.2877
11421W        W27682   3.985   0.446  14.030  0.1115  0.1551  0.1708
11422W        W27683  18.290  10.357   2.960 -0.0662 -0.0805  0.0182
11423W        W27684  14.756  11.212   1.570 -0.0658  0.2202  0.0295
11424W        W27685  11.650  17.972   1.896 -0.1081 -0.1012  0.0326
11425W        W27686  10.417  12.715   2.642  0.0646 -0.0371 -0.0594
11426W        W27687   8.803  12.910   2.654  0.0468 -0.3813 -0.0616
11427W        W27688  14.897   5.680  13.150 -0.0210 -0.1863  0.1169
11428W        W27689  14.876  10.978  12.964  0.1712 -0.0593  0.1350
11429W        W27690   0.683  12.321   5.841 -0.0151 -0.0533  0.0955
11430W        W27691   6.986   1.003   3.655 -0.1629  0.1874  0.1302
11431W        W27692  18.001   8.473   1.933 -0.2110 -0.0750 -0.2677
11432W        W27693  17.948  15.997   2.774  0.2145 -0.0437  0.3483
11433W        W27694   2.401   5.087  15.034  0.1660  0.1454 -0.2932
11434W        W27695   8.898   3.349   4.913  0.0570  0.1107  0.1653
11435W        W27696  13.347  10.326  13.239  0.2476  0.3174  0.2424
11436W        W27697  15.158  15.546  10.995 -0.0598  0.2994 -0.0073
11437W        W27698  11.434  12.924   4.017  0.1718 -0.0431  0.0513
11438W        W27699   6.108   7.057   5.051 -0.0054 -0.0887  0.2312
11439W        W27700  15.971   5.011   4.489 -0.1062 -0.1868  0.1683
11440W        W27701  14.697   9.435   9.861  0.0877  0.1106 -0.0534
11441W        W27702  16.963  18.365   2.562  0.0775  0.0870  0.3659
11442W        W27703   1.075  13.484   4.825  0.1620  0.0309  0.2308
11443W        W27704  12.572   6.240   2.407 -0.0488 -0.0692 -0.2585
11444W        W27705   0.493  15.402  11.429 -0.1281  0.2987 -0.4480
11445W        W27706  10.966  11.072   4.548  0.0751 -0.0988  0.0809
11446W        W27707  15.859  14.130   3.008 -0.1466  0.3151  0.0304
11447W        W27708   6.898  16.305  10.976 -0.2975  0.0691 -0.1885
11448W        W27709   5.673  10.792   0.039 -0.0864 -0.2240 -0.0413
11449W        W27710   8.138  13.884   1.682  0.1465  0.2278  0.0103
11450W        W27711   7.817   7.622  14.792 -0.2100  0.1987  0.0374
11451W        W27712  10.552  13.650   2.924 -0.1172 -0.5187  0.3343
11452W        W27713   9.460   0.109   4.154  0.2404 -0.3152 -0.2240
11453W        W27714   7.514  11.837   4.544 -0.2389  0.0274 -0.0270
11454W        W27715  12.287   4.888   0.034 -0.0022  0.1496 -0.2918
11455W        W27716   0.502   6.940   3.185  0.1341 -0.0000 -0.1137
11456W        W27717   9.673  10.908  10.847 -0.2866  0.1312 -0.3128
11457W        W27718   2.258   6.401   5.000  0.2356 -0.0253  0.0757
11458W        W27719   5.715  12.295   4.031  0.3048 -0.2345 -0.0763
11459W        W27720   5.581   3.019   3.219 -0.1167  0.1554 -0.0759
11460W        W27721  17.605   1.698  10.376  0.4354  0.0523 -0.0276
11461W        W27722   6.427   7.500  12.760 -0.2399  0.0874  0.4562
11462W        W27723  18.193   1.207  12.524  0.3050 -0.0259  0.0709
11463W        W27724  15.858   4.748  13.489 -0.4120  0.0082  0.4372
11464W        W27725   4.365  15.473   2.736 -0.3421 -0.3963  0.1639
11465W        W27726  13.832   5.575  10.059  0.1809  0.0164  0.1671
11466W        W27727   2.867   0.513   4.137  0.3630 -0.3617 -0.1512
11467W        W27728  17.976  18.767  10.963  0.0665  0.3453  0.0934
11468W        W27729  17.564   9.752  13.827  0.1058 -0.4009 -0.1491
11469W        W27730  11.252   2.235   1.211 -0.1873  0.0782  0.0405
11470W        W27731   4.471  15.988  11.852 -0.0851  0.3520 -0.0747
11471W        W27732  11.565   9.295  12.301  0.0189  0.0979 -0.0675
11472W        W27733   8.892   1.978  12.912 -0.1163  0.1953  0.0635
11473W        W27734   8.014   3.221   0.492  0.1075 -0.1019 -0.1902
11474W        W27735  13.080   3.439   3.540  0.0476 -0.4647 -0.3612
11475W        W27736   4.812  11.903  15.026 -0.0988  0.1037  0.1589
11476W        W27737  12.033  18.676  13.760  0.1935 -0.0813  0.4011
11477W        W27738  15.918  10.569   5.644  0.0455 -0.3518 -0.3243
11478W        W27739   7.103  13.973  12.047  0.0344  0.2014  0.0621
11479W        W27740  12.010  13.720  11.088  0.2629 -0.1428  0.1515
11480W        W27741   9.717  10.087  11.904 -0.3969  0.0310 -0.3532
11481W        W27742  17.926   0.849   2.880  0.0591  0.0649 -0.1164
11482W        W27743  16.836  13.212  11.475 -0.2351  0.1375  0.1049
11483W        W27744  17.221   2.048   4.547  0.0630 -0.0497 -0.2596
11484W        W27745   7.587  10.759   0.737 -0.2103 -0.0928 -0.1589
11485W        W27746  16.782   4.597   4.631 -0.0135  0.0715  0.0859
11486W        W27747   4.888  16.211  12.796 -0.1329 -0.0366  0.1167
11487W        W27748  12.399   2.927  15.086 -0.2110  0.0785  0.3147
11488W        W27749   3.316   2.695   1.043 -0.0676 -0.0905 -0.0379
11489W        W27750   9.534  16.996   6.024 -0.0088 -0.1782 -0.3671
11490W        W27751   8.948   2.472   1.079 -0.0534  0.1475 -0.0616
11491W        W27752  10.648   1.839  12.062 -0.0784  0.0150 -0.0643
11492W        W27753  14.701   4.666  15.047 -0.0922  0.2292  0.0961
11493W        W27754   9.122  18.402   2.393  0.1724 -0.3432  0.1611
11494W        W27755   2.707   9.492  14.879  0.1124  0.2638  0.1302
11495W        W27756   5.608  17.381  15.440  0.2641 -0.3468  0.0818
11496W        W27757  16.630   7.385  14.389  0.1401  0.1979  0.2274
11497W        W27758   5.722  14.883   0.309  0.1527 -0.1987  0.1699
11498W        W27759   2.837  12.840  12.214 -0.0851  0.1856  0.2398
11499W        W27760  13.483   0.413  11.647  0.1596 -0.4056 -0.4081
11500W        W27761  14.288   0.103  14.994  0.1045  0.3337 -0.2641
11501W        W27762   4.449  10.772   4.636 -0.2240 -0.0946 -0.2933
11502W        W27763   3.119  10.356   2.804  0.0774  0.1028  0.0982
11503W        W27764   9.009   4.059   1.915 -0.1233  0.4536 -0.3552
11504W        W27765  11.291   0.298   5.495 -0.2296  0.2379  0.1760
11505W        W27766   3.104   9.541  12.576 -0.1685  0.1207  0.0079
11506W        W27767  10.476   2.289  13.113 -0.1956  0.0448  0.0935
11507W        W27768   1.119  14.643   3.725 -0.0776 -0.2222 -0.3160
11508W        W27769   2.095  16.260   4.847  0.2561  0.0799  0.1939
11509W        W27770   9.739   8.861  15.108 -0.2219  0.2158  0.0287
11510W        W27771   0.928   0.788  15.443  0.1914  0.0231 -0.2883
11511W        W27772   9.553   3.310   0.183  0.1122 -0.0644 -0.1933
11512W        W27773   2.833   9.918  14.571 -0.1453  0.0449 -0.0868
11513W        W27774  14.601  16.153  13.588  0.1304  0.4743  0.2318
11514W        W27775   2.206   5.429   0.337  0.0562  0.0567 -0.1712
11515W        W27776  14.765   4.008  10.585 -0.0469 -0.0469 -0.0982
11516W        W27777  11.308   2.587   4.105  0.1091 -0.2724  0.3512
11517W        W27778   0.748   3.687   1.276 -0.1875 -0.0627 -0.1447
11518W        W27779   4.017   3.487  11.114  0.0005 -0.3351 -0.0533
11519W        W27780   1.353  12.973  14.484 -0.1503 -0.1019 -0.0181
11520W        W27781  18.138  13.521   4.534  0.0298  0.0483 -0.1187
11521W        W27782   8.086  12.316  15.617 -0.0245 -0.2279  0.1129
11522W        W27783  13.966  14.017  11.940 -0.1742  0.1709 -0.0668
11523W        W27784   3.854  16.316  10.067  0.2354 -0.2297 -0.1533
11524W        W27785  13.804   8.142   1.237 -0.1082  0.0852  0.2478
11525W        W27786  10.891   0.610  14.570 -0.1138  0.2667  0.0544
11526W        W27787   0.589   2.113  15.065 -0.0621  0.0223 -0.1324
11527W        W27788   1.476   3.344  13.532 -0.1270 -0.0115 -0.1317
11528W        W27789  16.846   6.580   0.472 -0.5200 -0.3006  0.1419
11529W        W27790   5.011   7.759  12.427  0.2912 -0.0571 -0.1774
11530W        W27791   8.613  15.305   3.360 -0.2325  0.2102  0.1020
11531W        W27792   4.245  17.315  11.519 -0.2349 -0.1859 -0.2256
11532W        W27793   2.166  13.045   2.504 -0.0265  0.2368  0.2226
11533W        W27794   9.599  18.125  14.313 -0.0200  0.2788 -0.2380
11534W        W27795   2.608   6.090  14.839  0.3078 -0.0269  0.0691
11535W        W27796  16.625   0.750   3.757  0.0010 -0.1038  0.1245
11536W        W27797  17.968  15.209  14.785  0.2274 -0.0671  0.2055
11537W        W27798   3.636   9.300  12.046  0.0225  0.0125 -0.0494
11538W        W27799  12.043   5.126  13.408 -0.3549 -0.1653  0.0737
11539W        W27800   0.230  13.734   4.967 -0.4727 -0.1226  0.1101
11540W        W27801  10.236  13.288   1.612 -0.1271  0.2000 -0.1614
11541W        W27802  11.149   8.920   5.139  0.0447  0.0011 -0.0839
11542W        W27803   0.422   6.457  12.733  0.1448  0.0491  0.2643
11543W        W27804   0.268  13.540  12.614  0.0076 -0.1715  0.1109
11544W        W27805  17.944  13.638  11.892 -0.1722 -0.4854 -0.1434
11545W        W27806   9.015  14.067   3.786  0.0810 -0.0702 -0.1261
11546W        W27807   2.901   1.175  12.174 -0.1731 -0.0520  0.0341
11547W        W27808  18.683  17.256  11.533 -0.0311  0.1213 -0.4342
11548W        W27809  16.952  14.961  14.248  0.0721  0.2006 -0.0232
11549W        W27810  18.223   0.577  15.641 -0.1502 -0.4231  0.2367
11550W        W27811  16.780  13.071   1.994 -0.3479 -0.0422 -0.2185
11551W        W27812   4.766  12.385   0.039 -0.1589  0.2493 -0.1293
11552W        W27813  10.123   3.223  13.060  0.0684  0.1988  0.0471
11553W        W27814  11.439   6.473  12.816  0.2311  0.1699 -0.2442
11554W        W27815   7.365  11.580   1.979 -0.4043 -0.0266  0.2723
11555W        W27816   9.693   2.898   2.679 -0.0892  0.1317  0.0351
11556W        W27817  15.414   6.817   2.244 -0.0901  0.0373 -0.2598
11557W        W27818  18.395  15.503  14.964 -0.0137 -0.0260  0.3561
11558W        W27819   7.760  16.867   5.535 -0.1649 -0.1736  0.1617
11559W        W27820   6.177  14.389  15.469  0.1229 -0.0574  0.1727
11560W        W27821  11.491   5.255   1.560  0.2330  0.1357 -0.1533
11561W        W27822   3.378  16.478  14.982  0.1608  0.1100  0.1896
11562W        W27823   5.149  13.161  11.195  0.3109 -0.0105  0.0084
11563W        W27824  11.234   2.840   5.175 -0.2969 -0.0745  0.2471
11564W        W27825  11.942  15.762   3.188 -0.0205 -0.0220 -0.4336
11565W        W27826   0.675   5.410  15.578 -0.2351 -0.1123 -0.0315
11566W        W27827  17.762   3.148  15.034 -0.0691 -0.0338  0.1841
11567W        W27828   7.326   1.338  11.610 -0.1789 -0.1918  0.1194
11568W        W27829   3.909   3.672   3.813 -0.1612  0.0543 -0.0669
11569W        W27830   1.163   6.440  11.193 -0.0506  0.0717 -0.1350
11570W        W27831  12.090   8.587   4.359 -0.2308 -0.3166 -0.1464
11571W        W27832  18.515   2.720  13.100 -0.4509 -0.2226  0.2453
11572W        W27833  17.912  10.880  14.040 -0.2889 -0.0037 -0.1744
11573W        W27834  13.100   0.699   4.265  0.1644 -0.0063  0.0664
11574W        W27835  18.372  18.340  15.329 -0.1676 -0.2267  0.0872
11575W        W27836   5.541  13.559   4.308 -0.2114 -0.3995 -0.3017
11576W        W27837  18.185   2.674   5.714  0.0575  0.2334  0.0265
11577W        W27838   6.187  10.063   4.538 -0.2597 -0.0719  0.3088
11578W        W27839   6.153   3.090  15.288 -0.0998  0.0302  0.0608
11579W        W27840   8.437   1.135   0.552  0.1670  0.2232 -0.3963
11580W        W27841  13.925  16.080   0.831  0.1316 -0.2966  0.4137
11581W        W27842   0.651  14.718   3.489 -0.0507 -0.2338 -0.0145
11582W        W27843   5.728  15.886   0.391 -0.1446  0.0943  0.2101
11583W        W27844   7.495  10.384  13.309  0.2517 -0.1150 -0.1414
11584W        W27845  14.983   8.451   3.405 -0.1846  0.3611 -0.0082
11585W        W27846  13.439  16.253  13.063 -0.2121  0.4164  0.0584
11586W        W27847  16.200  15.615  12.173 -0.0563 -0.2025 -0.1094
11587W        W27848   4.419   7.984   5.210  0.1199  0.0258  0.1202
11588W        W27849   6.565   4.683  13.611  0.0246 -0.0021  0.0412
11589W        W27850   0.639   6.011   4.726  0.0558  0.2431  0.0205
11590W        W27851   1.329   5.131   0.259  0.1086 -0.2477 -0.1112
11591W        W27852  16.560   1.003  12.659  0.1570 -0.1236  0.2287
11592W        W27853  15.812   0.877  12.234  0.0451  0.1956  0.1551
11593W        W27854  17.616   3.627   3.099 -0.1284  0.1918  0.2657
11594W        W27855  16.520   1.082  11.424 -0.0233 -0.1827 -0.3053
11595W        W27856   2.968  12.350  14.160  0.0359  0.0850  0.0619
11596W        W27857  16.915  12.401   4.821  0.2337 -0.0651  0.3339
11597W        W27858   1.124  13.291  12.090 -0.1086  0.0984 -0.4673
11598W        W27859   3.386  18.797  11.227  0.1261  0.0916  0.1165
11599W        W27860   5.763   4.005   2.127 -0.0291 -0.1396 -0.0080
11600W        W27861  14.150  13.652   3.004 -0.0809  0.1766  0.2483
11601W        W27862   1.315   3.118   4.176 -0.2437 -0.1244 -0.0149
11602W        W27863  11.371  12.414   1.100 -0.0121 -0.0300 -0.0195
11603W        W27864  13.709   8.581  13.683  0.1364  0.2573  0.0625
11604W        W27865   0.229  12.789   2.768  0.1999 -0.0038 -0.0815
11605W        W27866   2.821   4.146  12.115 -0.1535 -0.1856  0.1547
11606W        W27867  16.219  18.457  14.260  0.1681  0.1544  0.1812
11607W        W27868  11.811  15.534   1.051 -0.1335  0.0450  0.1103
11608W        W27869   3.816   4.259   0.068  0.4398 -0.0211  0.1740
11609W        W27870  12.486   2.999   0.317  0.2712  0.0633  0.1291
11610W        W27871   9.752  13.923   5.494  0.1815  0.0702 -0.0315
11611W        W27872  17.784  12.327   0.143  0.0175 -0.0512  0.0397
11612W        W27873   5.868   0.699  11.484  0.0692 -0.0464  0.2195
11613W        W27874  13.872  16.358  11.722 -0.2433 -0.4786  0.0092
11614W        W27875  14.608  15.298   0.385  0.2148  0.0669 -0.1177
11615W        W27876   2.195  17.549  15.277  0.2320 -0.3085 -0.0442
11616W        W27877   3.328  15.136   1.307  0.1592 -0.0920 -0.0143
11617W        W27878  11.325   4.710  14.864  0.2715  0.2545  0.2381
11618W        W27879   0.710   6.700  13.129 -0.0321 -0.0531 -0.3478
11619W        W27880   5.626  13.541   1.079 -0.2499 -0.2248  0.1123
11620W        W27881   3.932  17.145  13.733 -0.2131 -0.1098  0.2031
11621W        W27882   9.002  13.984   3.266 -0.2244  0.1700 -0.3262
11622W        W27883   5.684   8.287   0.165  0.0743  0.1313  0.3370
11623W        W27884   2.759   1.746   0.946 -0.0267  0.0864 -0.0738
11624W        W27885   7.901  13.479   3.666  0.0386  0.2372 -0.0746
11625W        W27886  15.341   4.113  10.396 -0.1053  0.0728  0.0503
11626W        W27887  16.330   3.658   4.756  0.0194 -0.1677 -0.0971
11627W        W27888   1.100  18.229  14.813  0.0798 -0.1962  0.3398
11628W        W27889  12.803  18.187   5.013  0.0881 -0.0085  0.3293
11629W        W27890  10.408  12.580  13.104 -0.2123  0.0758  0.0619
11630W        W27891  12.598  11.616  13.793  0.0883  0.1496  0.2020
11631W        W27892  11.152   1.434  15.443  0.3307  0.0453 -0.4234
11632W        W27893  14.858  13.332   4.804 -0.0494  0.1456 -0.0179
11633W        W27894   9.471  12.318   2.975  0.2494  0.0328 -0.0420
11634W        W27895  14.879   3.204   9.964 -0.2038  0.1073  0.3211
11635W        W27896  15.406   5.620   0.585 -0.2825 -0.0961 -0.1748
11636W        W27897   9.966   4.759   5.463  0.1306  0.4124 -0.2089
11637W        W27898   6.516   5.298   6.150 -0.2527 -0.1137 -0.1691
11638W        W27899  13.513   3.578  13.550 -0.0741  0.4251  0.1047
11639W        W27900   6.033  14.306  11.039  0.0693 -0.1493  0.3963
11640W        W27901   2.636  14.168  14.062  0.2811 -0.2364 -0.3236
11641W        W27902  13.898  15.850   0.004  0.1232 -0.1388  0.1906
11642W        W27903   3.352   9.922   2.592 -0.0118 -0.4982 -0.0458
11643W        W27904  13.184   7.640   0.606  0.3928 -0.2383  0.4337
11644W        W27905  15.749  15.535   0.334  0.1159 -0.1137  0.0325
11645W        W27906  18.704  17.756  12.080 -0.3268  0.1455 -0.0275
11646W        W27907   2.080   2.065  10.961 -0.2396  0.0299 -0.2029
11647W        W27908   0.303  11.556  14.062  0.4108 -0.0941  0.1685
11648W        W27909   8.115   1.963   5.350 -0.1835  0.2634 -0.0187
11649W        W27910   5.498   6.833   3.343 -0.0958  0.1013  0.2335
11650W        W27911   1.841   4.773  12.930  0.2623 -0.0624 -0.2072
11651W        W27912  18.202   1.554  11.600  0.1906  0.1067 -0.0023
11652W        W27913  13.359   7.481   3.535  0.0137  0.0872 -0.0286
11653W        W27914  13.697   5.054   0.953 -0.4257 -0.2302 -0.2500
11654W        W27915  18.349   2.063  15.558 -0.1564  0.0594 -0.2204
11655W        W27916   4.957  15.988   1.624  0.2496  0.0152 -0.2611
11656W        W27917   8.663   3.771   6.707 -0.0631  0.0483 -0.0802
11657W        W27918  15.469   2.805  14.357  0.1446 -0.0350  0.0513
11658W        W27919   4.508  17.397   2.388 -0.0133 -0.3493 -0.0245
11659W        W27920   5.146  12.752  11.940 -0.1450 -0.2413 -0.0069
11660W        W27921   4.430  13.263   4.734  0.1632  0.0455 -0.2762
11661W        W27922   1.557   2.874   0.286 -0.0734  0.4833 -0.2431
11662W        W27923  13.637  18.332  12.380 -0.0194 -0.2896  0.1826
11663W        W27924  15.650  16.977   5.335  0.3816  0.0441  0.1412
11664W        W27925  11.572   7.032   0.353 -0.0169 -0.0540  0.1512
11665W        W27926  18.008  12.601   2.543 -0.0867  0.2356  0.0592
11666W        W27927  16.099   0.308   4.662 -0.3582  0.0213 -0.2046
11667W        W27928   6.996  14.139   3.624 -0.1764 -0.2745  0.2583
11668W        W27929  16.535   5.516  15.013 -0.2249  0.2457  0.0326
11669W        W27930   1.631  11.892  11.918  0.0648  0.0217  0.4125
11670W        W27931   9.052   6.385   0.410  0.3018 -0.0357 -0.1787
11671W        W27932   0.551   9.974  11.845  0.3232  0.1574  0.1134
11672W        W27933   0.519  10.770   2.042 -0.0190 -0.1326  0.0778
11673W        W27934   1.784   4.255   5.006  0.3136  0.1687 -0.0429
11674W        W27935  17.694  13.381   1.066  0.2430  0.2437  0.2894
11675W        W27936  13.027   4.054   4.848 -0.3204 -0.1110 -0.1630
11676W        W27937   3.169  14.970   3.129 -0.0180  0.0328 -0.0358
11677W        W27938  14.339   0.647   4.448  0.1627 -0.1691  0.1333
11678W        W27939   7.769   9.739   3.897 -0.0266 -0.3008 -0.1454
11679W        W27940   2.586  17.255  11.165  0.0188 -0.0258 -0.0425
11680W        W27941   3.445   4.342  13.828  0.2266 -0.1315 -0.1444
11681W        W27942  17.052  12.571   9.550  0.3225 -0.0792 -0.1117
11682W        W27943  14.594  14.845   5.543  0.0937 -0.0628  0.0243
11683W        W27944  12.781  13.911  14.048 -0.2963  0.3688  0.0759
11684W        W27945   5.009  15.291   4.530 -0.2576  0.2550  0.1079
11685W        W27946  11.845   0.640   0.046  0.0069  0.2996  0.0808
11686W        W27947  15.647  15.786   3.777 -0.1416 -0.0470 -0.1404
11687W        W27948  17.542   4.885  14.366  0.0694 -0.6039  0.0790
11688W        W27949   1.324   7.343  11.117  0.0187  0.1974 -0.1276
11689W        W27950   4.890  16.825   5.178 -0.1629 -0.0005 -0.0791
11690W        W27951  18.335   8.000   0.458 -0.1575 -0.2698  0.2036
11691W        W27952  11.346  17.017  15.207 -0.0367 -0.1491  0.1725
11692W        W27953  15.537   7.953   2.601 -0.2396  0.0018 -0.0562
11693W        W27954   3.311  13.936  14.106  0.0218 -0.5070 -0.0168
11694W        W27955   0.680   9.078   9.798  0.4029  0.0418  0.0140
11695W        W27956  17.413   0.200  11.762 -0.0169 -0.0401  0.0994
11696W        W27957  12.188   1.849   1.074  0.1558 -0.2734 -0.1107
11697W        W27958   5.126   0.700  12.536  0.2361  0.0430  0.0370
11698W        W27959  13.966   9.625   3.006 -0.2118  0.0355 -0.3133
11699W        W27960   9.896   8.585   0.671  0.2816  0.0086  0.0078
11700W        W27961   8.356  16.414  14.143 -0.2710  0.1557  0.3919
11701W        W27962   6.193   3.474   1.170  0.2097 -0.3927  0.3055
11702W        W27963  13.407   9.371   0.885  0.1669 -0.0763  0.0964
11703W        W27964  11.799   2.970  15.311  0.0578  0.1975  0.2831
11704W        W27965  17.576  14.396   2.198  0.0443  0.2902  0.0168
11705W        W27966  13.334   6.980  12.666 -0.2678  0.0842 -0.3017
11706W        W27967   5.244  16.899  12.708 -0.0857  0.2523 -0.1022
11707W        W27968  14.685  12.747   2.567  0.2242 -0.0678  0.3057
11708W        W27969  18.815   2.095  10.949  0.0817  0.0255  0.0308
11709W        W27970   1.139   2.361   0.268  0.0655 -0.0491 -0.1297
11710W        W27971  14.956   5.582  11.913 -0.1254 -0.2512  0.0619
11711W        W27972  17.130  14.704  15.052  0.0418  0.0012 -0.1635
11712W        W27973   3.529  17.884  13.601  0.3196 -0.1181 -0.0395
11713W        W27974  14.377  16.769  15.080 -0.2364  0.2270 -0.3978
11714W        W27975   7.328  14.606  12.978 -0.0985 -0.3877 -0.1161
11715W        W27976   2.781   6.527  15.022  0.1363 -0.0257  0.1062
11716W        W27977   9.692   3.220   1.215  0.1726 -0.0898  0.0867
11717W        W27978   8.913  18.047  13.953  0.1707  0.2584 -0.0330
11718W        W27979   4.799  11.140   2.254  0.2035 -0.1968  0.0460
11719W        W27980   0.044   4.708   4.871 -0.2862 -0.0223  0.1871
11720W        W27981   2.321  10.023  12.777  0.2020  0.0599 -0.1753
11721W        W27982   5.905   2.794   4.687  0.0228  0.0051  0.0772
11722W        W27983  15.392  16.514  10.822  0.0405  0.0792  0.1345
11723W        W27984  15.540   6.693   0.964  0.0912 -0.0325 -0.0020
11724W        W27985  17.752   7.525   3.429 -0.0612  0.2851 -0.1412
11725W        W27986  12.402   3.910  14.487 -0.3769  0.1755 -0.0020
11726W        W27987  11.439   0.402   1.424  0.2295 -0.2995  0.0760
11727W        W27988   7.319  10.635   4.858  0.1723  0.1990  0.0819
11728W        W27989  10.563   5.182   1.340 -0.0251  0.1552  0.1145
11729W        W27990   6.621   0.380  15.461  0.2350  0.2918 -0.0474
11730W        W27991   3.124  10.236  10.848  0.1328 -0.2943 -0.1173
11731W        W27992  11.353  16.859  12.389  0.2089  0.1448  0.3767
11732W        W27993   0.113   9.539   0.534 -0.0379 -0.2327 -0.0886
11733W        W27994  14.029   5.408   1.194 -0.0104  0.0149 -0.1651
11734W        W27995   2.768  16.058   5.484  0.1285 -0.0288  0.0292
11735W        W27996  16.832  16.734   9.596 -0.2135 -0.2021  0.0090
11736W        W27997  18.741  10.721  12.867 -0.3941 -0.1472 -0.2216
11737W        W27998   6.815   5.660   3.870  0.1488  0.0393 -0.0569
11738W        W27999   6.685  13.006   4.699  0.0239 -0.3413  0.1578
11739W        W28000   0.480  17.365  12.717  0.1696  0.1022  0.3035
11740W        W28001   8.051  10.350  13.118  0.0820 -0.1306 -0.1472
11741W        W28002   1.306  16.768   0.256 -0.0611  0.0358 -0.2922
11742W        W28003   0.723  10.097  14.191  0.0907 -0.0390 -0.0568
11743W        W28004  12.094   2.718   1.133  0.0625 -0.2558  0.0966
11744W        W28005   1.400   7.086   3.364  0.1474 -0.0866 -0.5227
11745W        W28006   2.609  12.556   2.386 -0.2286 -0.1467 -0.1684
11746W        W28007   1.200  16.062  10.420  0.2095  0.0159 -0.2680
11747W        W28008   6.728  13.584   4.551  0.2669 -0.3457  0.0748
11748W        W28009   1.137  14.859  15.528  0.2245  0.1735  0.0829
11749W        W28010  11.424  16.184  15.307 -0.0179 -0.0004  0.1037
11750W        W28011   4.666   7.128   1.584  0.1866 -0.2008 -0.0594
11751W        W28012   0.720  15.491   4.076 -0.1081  0.0185 -0.0732
11752W        W28013  18.561  11.293   1.036  0.1855  0.2706 -0.1199
11753W        W28014  10.310  15.980   3.711 -0.0293 -0.4055 -0.1357
11754W        W28015  13.919  15.442  14.362 -0.0132 -0.1395 -0.1241
11755W        W28016  16.036  17.504  12.649 -0.0136  0.0331 -0.0420
11756W        W28017  16.209  16.758  15.114  0.0820 -0.0926  0.1392
11757W        W28018   8.598  12.441  11.094  0.2728  0.0995 -0.0617
11758W        W28019  16.039  18.775  15.322  0.1222  0.0872 -0.2104
11759W        W28020   1.726  10.747   3.149 -0.1372 -0.0230  0.0934
11760W        W28021   0.146   4.208  15.281 -0.1686  0.0495  0.2181
11761W        W28022  10.996   9.158  10.877  0.0426 -0.1869  0.3080
11762W        W28023  15.604   7.390  14.293 -0.1403 -0.0768  0.0500
11763W        W28024  11.906  14.589  14.210  0.0155  0.1255  0.1032
11764W        W28025  14.751   7.805  11.779  0.2420  0.0018 -0.0053
11765W        W28026   9.811  18.614  11.196  0.0821  0.0688 -0.1325
11766W        W28027   4.240   2.333   2.567  0.0177 -0.1529  0.1009
11767W        W28028   0.229  17.276   1.522 -0.0721 -0.1498  0.2980
11768W        W28029  17.764   0.739  13.397 -0.0351 -0.0484 -0.4322
11769W        W28030   6.967   1.045  13.812  0.0692 -0.0904 -0.0358
11770W        W28031   4.728  14.760   0.049 -0.0894 -0.0513 -0.0148
11771W        W28032  17.263   8.510   1.701 -0.3620 -0.0145 -0.1275
11772W        W28033   7.592   6.627   2.170  0.1584 -0.1459  0.1277
11773W        W28034  15.941   7.361   2.930 -0.2059 -0.2879 -0.0027
11774W        W28035   6.431   9.386  13.115  0.0585  0.0501 -0.1745
11775W        W28036   9.603  16.842   3.131  0.1071  0.1753 -0.3109
11776W        W28037  11.804  17.170   4.946 -0.2851  0.3096  0.0505
11777W        W28038   5.891  18.187   3.607  0.0971  0.1649  0.0867
11778W        W28039  18.503  13.108  10.912  0.4637 -0.2453 -0.0630
11779W        W28040   5.176  12.030  14.215 -0.1162  0.1102 -0.2382
11780W        W28041   3.782   1.580  12.541  0.1585  0.1722 -0.1040
11781W        W28042  10.886   5.572  14.077  0.0216 -0.0399  0.2015
11782W        W28043   8.262   7.564  13.376 -0.1427  0.0420  0.0086
11783W        W28044  14.391  12.170  13.969  0.0460 -0.0547  0.2321
11784W        W28045   2.442   7.756  15.100 -0.3043  0.3457 -0.0210
11785W        W28046   5.885   9.230  15.487  0.0022  0.1028  0.3800
11786W        W28047   1.560  17.442   1.552  0.0900  0.2572 -0.4660
11787W        W28048  13.924  14.805   1.586  0.3158 -0.0050  0.0232
11788W        W28049  10.787  12.807   5.290 -0.0160  0.2713 -0.3286
11789W        W28050  10.159  12.149  12.967 -0.0548 -0.2259  0.2026
11790W        W28051  15.968   5.735   5.459  0.0137 -0.5345 -0.1496
11791W        W28052  10.584  17.499   1.179  0.2315 -0.1962  0.1853
11792W        W28053   0.679  17.555   2.888 -0.0973  0.2381 -0.0836
11793W        W28054  10.937  18.344  11.122  0.1120  0.0570 -0.2670
11794W        W28055  12.031  16.956  14.687  0.0434  0.2003 -0.1188
11795W        W28056   5.117  12.925   2.095 -0.0772 -0.1450 -0.2860
11796W        W28057   1.683   6.313   1.477  0.2068 -0.0220 -0.1561
11797W        W28058  14.232  12.321  14.465 -0.0083 -0.1941  0.1955
11798W        W28059  12.911  14.250   2.421 -0.1502 -0.1706 -0.0205
11799W        W28060   9.670   6.783  11.654  0.1405  0.0580  0.0151
11800W        W28061   1.773  14.229  11.095  0.0258 -0.2175  0.0102
11801W        W28062  13.521  12.820   3.330  0.0182  0.1251 -0.0168
11802W        W28063   4.641  14.478  14.783 -0.3916  0.0591  0.2199
11803W        W28064   9.914   2.637  12.602  0.0962 -0.1883  0.0667
11804W        W28065   2.347  13.414   5.183 -0.1135 -0.2044  0.2933
11805W        W28066  14.395  14.175   0.353 -0.1701  0.0008  0.3257
11806W        W28067   9.042   1.348  14.172  0.2977  0.2992 -0.1202
11807W        W28068   0.972  11.843   4.658 -0.2108 -0.2349 -0.1372
11808W        W28069  14.713  16.802   1.021 -0.3276 -0.2046 -0.2668
11809W        W28070  18.312   8.736  11.676  0.1685  0.1432 -0.0276
11810W        W28071   0.225   4.616   2.248  0.2906 -0.5151  0.0788
11811W        W28072  17.208   4.915  12.172  0.1560  0.1751 -0.0081
11812W        W28073   1.718  17.479  12.443 -0.1501 -0.1948  0.2164
11813W        W28074   0.182  10.246   4.311 -0.0486 -0.2033 -0.1232
11814W        W28075  16.977  14.961   2.715 -0.2360 -0.1054  0.2416
11815W        W28076   4.407   5.763  14.376  0.3072 -0.6073 -0.0916
11816W        W28077   9.717  11.309   0.164 -0.1981 -0.0843 -0.0118
11817W        W28078  14.126   9.656  14.933 -0.1263 -0.0860  0.4881
11818W        W28079   1.119   8.226   0.347  0.0951  0.1956 -0.1862
11819W        W28080   4.641  18.122   1.179  0.2202  0.0684  0.0217
11820W        W28081   6.908   3.789   6.742 -0.0129  0.1605 -0.5022
11821W        W28082   7.794  15.828  15.624  0.0782  0.1260 -0.1587
11822W        W28083   3.660  11.522  12.785 -0.2203 -0.0001 -0.1080
11823W        W28084   5.024  11.019  14.758 -0.2008  0.1408  0.3260
11824W        W28085   3.037  10.830  14.462 -0.0584 -0.0986  0.0421
11825W        W28086   8.486  13.477   1.537  0.1711 -0.0265 -0.1192
11826W        W28087   0.420  16.539   0.105 -0.3953 -0.0765  0.3029
11827W        W28088  10.442  17.884  14.644  0.3111  0.0834  0.2273
11828W        W28089   8.085  10.520  14.998 -0.2824 -0.0373  0.0187
11829W        W28090   9.174  16.473  15.074 -0.0927 -0.1973  0.2127
11830W        W28091  11.038   0.954  15.315  0.0641  0.4416 -0.4131
11831W        W28092   0.639   1.628   3.295  0.1425 -0.5191  0.3503
11832W        W28093   0.736  13.916  12.482  0.1797 -0.1235  0.6805
11833W        W28094   3.878   1.824  15.404  0.0440  0.0950 -0.1973
11834W        W28095   1.903   8.931  13.539  0.0478 -0.5421  0.2755
11835W        W28096   5.663  15.444   3.784 -0.1338  0.1499 -0.2476
11836W        W28097   1.352   6.823   0.353 -0.0159 -0.2231 -0.2196
11837W        W28098   2.467   9.496   0.360 -0.0946 -0.1470 -0.0952
11838W        W28099  15.072   7.517   4.348  0.2135 -0.1999  0.2485
11839W        W28100  18.685  12.949  12.692  0.0250 -0.0177 -0.3097
11840W        W28101  12.212   4.346   0.727  0.0347  0.0402  0.0578
11841W        W28102   4.822   2.771   3.800 -0.0962 -0.0802 -0.1801
11842W        W28103  16.019   0.180   0.726 -0.2158 -0.2114  0.5125
11843W        W28104   4.382   3.856  13.299 -0.1964  0.0513 -0.0259
11844W        W28105   6.512   5.288   1.426  0.1424 -0.1897  0.2434
11845W        W28106   6.954   9.112  14.452 -0.0442  0.0686 -0.4114
11846W        W28107  14.327  12.497   3.805 -0.1198  0.2466  0.1331
11847W        W28108   1.023   1.580   1.645 -0.1682 -0.0755  0.0232
11848W        W28109   5.360  11.935  14.750 -0.2593 -0.2512 -0.1446
11849W        W28110   5.227   7.258  13.116 -0.1989  0.0011 -0.1878
11850W        W28111  14.577  10.527   0.906 -0.3890 -0.1614  0.0705
11851W        W28112  18.496   7.010  12.135 -0.1827  0.1817  0.0136
11852W        W28113   6.492   3.286  12.029  0.3441  0.1348  0.1590
11853W        W28114   3.166   5.234  10.887  0.0248  0.0392  0.2209
11854W        W28115   3.767  16.124   2.237  0.0297  0.1379 -0.2724
11855W        W28116   0.029  10.878   1.904 -0.1118  0.4009  0.0028
11856W        W28117   1.816  10.987   0.433 -0.3854  0.2105  0.0476
11857W        W28118   5.743  10.879  13.333  0.0825  0.2076  0.1258
11858W        W28119   8.010   3.452   2.455  0.1115  0.1076 -0.2321
11859W        W28120   2.467  11.051   3.252  0.1673 -0.2658 -0.0149
11860W        W28121  16.310  16.574   3.714 -0.0066  0.1086  0.2464
11861W        W28122   8.666   7.528   2.904 -0.1529 -0.3376 -0.0138
11862W        W28123  10.687   8.963   0.045  0.1300  0.1660 -0.1382
11863W        W28124   8.028   1.741   2.993 -0.3466  0.2429  0.3893
11864W        W28125   8.180  12.985  13.493 -0.3042  0.1900  0.0455
11865W        W28126   5.324   8.516  11.406  0.1238  0.1329 -0.3966
11866W        W28127  15.904   8.014   0.452 -0.4590  0.0856  0.2493
11867W        W28128  12.113  18.495   5.727  0.2473  0.1702  0.0521
11868W        W28129  18.574   9.603  12.889 -0.1195  0.0797 -0.0314
11869W        W28130   4.946  17.831   2.349  0.0738  0.1205 -0.0565
11870W        W28131   3.943   8.682   5.192  0.1429 -0.1640 -0.0336
11871W        W28132  16.550   7.890   5.395 -0.0318  0.2092  0.0168
11872W        W28133   8.842   6.205  13.258  0.2527  0.0165 -0.1225
11873W        W28134   4.285  18.693   1.553  0.0941  0.2332  0.0401
11874W        W28135   4.815   6.253   4.854 -0.0226  0.1108 -0.1374
11875W        W28136  14.333   5.742   2.853 -0.3980  0.1163 -0.0790
11876W        W28137  18.252   8.664  11.197  0.0331 -0.2169 -0.2654
11877W        W28138  18.440   0.055   0.595  0.2459 -0.0218 -0.4209
11878W        W28139  16.820   1.340  14.871  0.0330 -0.1688 -0.0984
11879W        W28140  11.233   9.867   3.295 -0.3058 -0.0048  0.4200
11880W        W28141   4.804   8.281   5.120  0.1809  0.0558  0.1204
11881W        W28142   9.272   9.864   2.175  0.0290 -0.0493  0.0380
11882W        W28143  10.264   6.100   2.898  0.1346  0.0755  0.2539
11883W        W28144   5.551  16.457   4.012 -0.2071 -0.1907  0.1123
11884W        W28145   3.698  12.227  11.539 -0.2647 -0.0352  0.0754
11885W        W28146   4.946   4.359   0.952  0.2422 -0.0686  0.1482
11886W        W28147   5.078   5.425   0.110 -0.1593  0.0492 -0.3383
11887W        W28148   2.675  11.441   4.894 -0.3613  0.0283  0.2989
11888W        W28149  18.682  15.882   2.247  0.0968 -0.0040  0.0856
11889W        W28150  11.847   7.157   5.289  0.1698 -0.2199 -0.3105
11890W        W28151  11.320   0.802   0.647 -0.2570  0.0373 -0.0591
11891W        W28152   9.653   6.860   2.418 -0.3036 -0.0049  0.4425
11892W        W28153  11.897  13.324  13.857 -0.2587  0.1868 -0.2585
11893W        W28154  16.848   0.249  12.826  0.1862  0.1620  0.1950
11894W        W28155  10.835   5.470  15.173  0.1753  0.2019  0.0414
11895W        W28156  11.307  16.452   4.452 -0.2548  0.0048  0.0544
11896W        W28157  13.642  14.440  10.823 -0.2430 -0.0081  0.1987
11897W        W28158   7.548   4.852   5.927 -0.0056  0.0246  0.0673
11898W        W28159   8.547  14.367  12.226  0.1722 -0.0789  0.2585
11899W        W28160  11.333  14.924  14.248 -0.0658  0.2147  0.1062
11900W        W28161   9.322  10.072  15.457 -0.3022 -0.1011  0.0664
11901W        W28162   6.450   1.580   0.679 -0.1470  0.1713  0.0303
11902W        W28163  15.047  12.517  10.427  0.2972 -0.3621 -0.2453
11903W        W28164  17.244   9.044   0.600  0.1611 -0.1160  0.1912
11904W        W28165  10.361  18.614   0.295 -0.0250  0.3070 -0.1308
11905W        W28166  10.764   8.384   1.596  0.2377 -0.0800 -0.0444
11906W        W28167  10.495  16.696   0.384 -0.0805 -0.0630 -0.0573
11907W        W28168  13.480   8.503  14.139  0.2289  0.1870 -0.1557
11908W        W28169  13.835  14.124   5.288 -0.1132  0.0079  0.1752
11909W        W28170   3.503  13.577  12.158 -0.0681  0.4510 -0.0344
11910W        W28171   8.313   4.458   1.978  0.0909 -0.0419  0.1505
11911W        W28172   6.520   5.846   4.287 -0.0494 -0.1543  0.1169
11912W        W28173   7.356  17.708  12.214  0.2132 -0.1070  0.3791
11913W        W28174   1.705   7.054  12.326  0.0292 -0.1252 -0.2535
11914W        W28175  14.010   5.292   2.864 -0.3782  0.2096  0.3270
11915W        W28176   7.603  18.178   5.777  0.0310  0.1741 -0.3766
11916W        W28177   1.694   2.765   5.083 -0.0636 -0.3337 -0.0163
11917W        W28178  14.299   4.138   3.624  0.2844 -0.2405 -0.4772
11918W        W28179   9.472  16.566   0.990  0.1917 -0.3525  0.0503
11919W        W28180   7.018  11.572   2.423 -0.0195 -0.1503 -0.0738
11920W        W28181   0.274   7.352   3.556  0.0924 -0.2085 -0.1342
11921W        W28182  14.588  18.528  13.376  0.4327  0.4079 -0.1386
11922W        W28183  16.315   2.605   3.617  0.6048  0.1726  0.0263
11923W        W28184  15.386   7.500   4.782 -0.1485 -0.2515 -0.1653
11924W        W28185  13.531  14.030   1.852 -0.0960  0.0474  0.3435
11925W        W28186   4.106  10.682  13.090 -0.1323  0.1830  0.3244
11926W        W28187  10.348   3.240   0.723 -0.2060  0.1417  0.0601
11927W        W28188   9.229  12.533   1.750 -0.1616  0.2399 -0.1767
11928W        W28189   0.155  15.590  10.976 -0.0817 -0.1572 -0.1575
11929W        W28190   6.069   8.441  13.111  0.0308  0.1007  0.0548
11930W        W28191   5.744  15.018  11.443  0.0674 -0.1298 -0.1475
11931W        W28192   5.372  11.417  13.333  0.0450  0.2450 -0.0612
11932W        W28193  14.819  13.759  11.400 -0.0713 -0.0457 -0.1612
11933W        W28194   2.799  17.279  14.847  0.2753  0.3090  0.2058
11934W        W28195   2.874  15.464  11.800  0.0777 -0.2452  0.0480
11935W        W28196  11.837  11.638  11.801 -0.0610  0.2219 -0.1344
11936W        W28197   1.001   2.394   5.062 -0.1765 -0.0449 -0.0417
11937W        W28198  12.299  12.020  14.218 -0.2838  0.4563  0.2404
11938W        W28199  11.116  13.588  12.971  0.0661 -0.0798 -0.1300
11939W        W28200   4.362  10.354  14.043 -0.0307 -0.1755  0.3106
11940W        W28201   3.004   3.552   2.865  0.3069  0.0926  0.0196
11941W        W28202  14.228   0.146  13.314  0.1913  0.1381  0.3061
11942W        W28203  17.888   7.264   5.328 -0.3535 -0.1121  0.3411
11943W        W28204   3.358   3.424  11.888  0.1334 -0.0596 -0.1184
11944W        W28205  18.681  14.528  14.802 -0.0377 -0.0638  0.0614
11945W        W28206   5.413   0.408   4.948 -0.1466  0.0130 -0.0084
11946W        W28207  12.864  14.679   4.475  0.0776  0.0760 -0.0001
11947W        W28208   5.319  15.211  11.940  0.2014 -0.0370 -0.2789
11948W        W28209  13.745   9.300   2.683 -0.0157 -0.1343 -0.0349
11949W        W28210   8.276   6.314   4.396 -0.2230 -0.0504 -0.0535
11950W        W28211   5.957  17.748   4.876 -0.2525  0.3825  0.2309
11951W        W28212   7.319   2.028  13.782 -0.0475  0.3046 -0.1215
11952W        W28213   8.347  13.492  14.866  0.1567 -0.0963  0.2272
11953W        W28214  16.319  17.391   3.284  0.3529 -0.0027  0.0151
11954W        W28215   4.722  10.913  11.710 -0.3028 -0.1511  0.4356
11955W        W28216   4.260   0.557  12.788 -0.0290 -0.0364 -0.0353
11956W        W28217   8.260   1.643   2.228 -0.2181 -0.1909  0.1559
11957W        W28218  17.826  13.137  10.095 -0.2121 -0.2163  0.1297
11958W        W28219  17.993  14.914  12.310 -0.2828  0.2125  0.0055
11959W        W28220  15.354   8.086   3.061  0.0442  0.3180 -0.1990
11960W        W28221  14.662   8.716   3.648 -0.2502 -0.2015  0.0034
11961W        W28222  13.005  12.078  12.213 -0.0970  0.1554  0.0321
11962W        W28223  10.863   6.909   1.411 -0.0332  0.0657  0.0658
11963W        W28224  11.167  10.453  11.119 -0.0945  0.0693 -0.1800
11964W        W28225   0.900   5.693   2.672  0.0681  0.0473  0.1361
11965W        W28226  12.771   9.556  15.326  0.1664  0.2310  0.0244
11966W        W28227  10.108   0.228  11.354 -0.0010  0.1128  0.0775
11967W        W28228  15.198   2.786   2.082 -0.2469  0.0361 -0.0747
11968W        W28229   5.543   8.211  14.326  0.1138 -0.1909  0.3146
11969W        W28230  13.643   6.012  12.877 -0.0551 -0.0899 -0.0515
11970W        W28231   1.753   5.068   0.984 -0.1234  0.0272  0.0159
11971W        W28232   4.500  16.371  13.684  0.0751 -0.1295  0.0464
11972W        W28233   8.745   8.027   1.270  0.0911 -0.0370 -0.0766
11973W        W28234   8.316   0.811  12.529  0.3590  0.1617  0.1352
11974W        W28235  17.681   2.695  12.041 -0.2751 -0.1544  0.1424
11975W        W28236   8.229   6.875   4.535 -0.3330  0.2095  0.2209
11976W        W28237  10.403  12.090   3.062  0.2336 -0.0492  0.0602
11977W        W28238   9.718  14.406   5.190 -0.0448  0.2174 -0.0030
11978W        W28239   6.014  13.968  12.908 -0.4636 -0.0925  0.0251
11979W        W28240  14.440  12.867   1.141  0.1564  0.0331 -0.1850
11980W        W28241   9.667   2.315   5.026 -0.0826  0.3002 -0.2131
11981W        W28242  14.756  16.486  12.268  0.0643  0.2043  0.2724
11982W        W28243   1.533   9.843  13.287  0.0295 -0.0447  0.1366
11983W        W28244   7.972  14.779  13.564  0.0116  0.3556 -0.2921
11984W        W28245  16.251   7.689   4.124 -0.1300 -0.0060  0.1124
11985W        W28246   4.720  15.745   2.009 -0.0311 -0.1239  0.1217
11986W        W28247   4.410   2.970   0.821 -0.1423 -0.2692  0.2787
11987W        W28248  15.050   4.097   0.009  0.3520 -0.1304  0.0875
11988W        W28249   2.591  17.601  15.593 -0.5899  0.0544  0.0982
11989W        W28250   2.939   2.318   2.306 -0.0382  0.2951  0.1907
11990W        W28251  14.822  15.700  14.446 -0.1629 -0.0694  0.1222
11991W        W28252  10.345  12.191   3.658 -0.2600 -0.0880  0.1860
11992W        W28253   0.759   1.618  15.124 -0.0362 -0.0597  0.0162
11993W        W28254  16.564   7.149   3.512  0.0243  0.0333  0.0098
11994W        W28255  16.910  10.231   0.086  0.1218 -0.1440  0.0398
11995W        W28256   0.405   8.795  15.631  0.2565 -0.1242  0.0711
11996W        W28257  10.761   8.872   2.839  0.1167  0.0420 -0.0639
11997W        W28258  14.951   4.682   2.483  0.0431 -0.0613  0.1384
11998W        W28259  15.514   4.542   4.206 -0.3736 -0.0001  0.1234
11999W        W28260   2.829   7.975   4.356 -0.1114  0.3111  0.0145
12000W        W28261  13.491   5.048  13.449 -0.3054 -0.1690  0.0991
12001W        W28262  12.344  12.523  14.235  0.0243  0.0686 -0.5115
12002W        W28263   1.602  10.486   2.702 -0.0820 -0.3854 -0.0066
12003W        W28264   5.777   0.271   1.061 -0.0664  0.0128 -0.3546
12004W        W28265   4.724   3.245   0.082  0.0970  0.2869  0.1298
12005W        W28266  14.085   0.403   0.192 -0.0789  0.1591 -0.0978
12006W        W28267   4.137  11.500  12.873 -0.0621  0.0580  0.2873
12007W        W28268  15.629  10.171   4.010  0.0968  0.3666  0.2386
12008W        W28269   0.487  13.774   3.590  0.0309 -0.0571 -0.1532
12009W        W28270  18.455   3.300   3.328 -0.0565 -0.2570  0.3155
12010W        W28271   1.323  15.969   4.353 -0.2609  0.3548  0.1182
12011W        W28272   6.993  16.643   4.665 -0.1256 -0.2206 -0.2728
12012W        W28273   2.645   4.691   3.462 -0.0488  0.0601 -0.0159
12013W        W28274   2.069   3.534   4.813  0.3021  0.1837  0.4956
12014W        W28275   5.991  16.230  12.173  0.0271  0.0957  0.1491
12015W        W28276   2.256  11.385  15.179  0.0247  0.0162 -0.1529
12016W        W28277   7.714  12.896   2.236  0.2171  0.2252 -0.2559
12017W        W28278  18.465  13.767  12.994 -0.3215  0.2231  0.0554
12018W        W28279   1.437  15.440   2.516 -0.0214  0.0248  0.1902
12019W        W28280  11.107  11.579   3.773  0.1543  0.0418  0.0464
12020W        W28281  14.685   6.231  12.398 -0.0379 -0.2005 -0.1319
12021W        W28282  10.180  10.261   0.214  0.4137 -0.1051 -0.0225
12022W        W28283  14.955  18.197  13.700 -0.2417 -0.0530 -0.1693
12023W        W28284  11.645   8.860   4.286  0.2809  0.1084 -0.0006
12024W        W28285  10.516   2.005  13.517  0.1042 -0.1522 -0.2581
12025W        W28286  15.433  16.889  13.045 -0.0490  0.2143 -0.4239
12026W        W28287   3.014  17.515  11.305 -0.1753 -0.0485  0.0065
12027W        W28288  17.924   2.323   4.667 -0.1505  0.1632 -0.2227
12028W        W28289  14.964   8.975   4.963 -0.1295 -0.2099  0.1686
12029W        W28290   3.227   5.801   4.904  0.2102  0.1058  0.0235
12030W        W28291  12.946   8.991   2.394 -0.0128  0.2791 -0.4539
12031W        W28292  11.632  11.655  13.517  0.0251  0.0784  0.0424
12032W        W28293  16.679  15.112   4.753  0.1192 -0.3076  0.2857
12033W        W28294   6.967   2.993  11.399  0.0471  0.1338  0.3915
12034W        W28295  17.744  13.460   4.114  0.0986 -0.0727  0.2302
12035W        W28296  12.056   0.021   4.180  0.3271 -0.0679  0.1317
12036W        W28297   9.673   2.081  12.429 -0.1336 -0.2425 -0.3759
12037W        W28298  16.923  18.823  11.886  0.0204 -0.1935  0.0154
12038W        W28299   4.542  17.858   0.323  0.0432 -0.1660  0.0177
12039W        W28300   9.195   2.326  14.341 -0.2113  0.1599 -0.0573
12040W        W28301   9.252   6.715  13.785  0.0554  0.0513  0.2142
12041W        W28302   8.943  11.050  15.251 -0.1427 -0.3233  0.1147
12042W        W28303  15.999   8.099   1.298 -0.2156 -0.1157 -0.1209
12043W        W28304   2.981  10.804   0.382 -0.3106  0.1234  0.3036
12044W        W28305   8.042   2.665   4.240  0.0525 -0.0009  0.0064
12045W        W28306  18.022   1.918  11.319  0.0421 -0.4178 -0.0515
12046W        W28307  14.900  11.214  13.429 -0.0101 -0.0858 -0.1487
12047W        W28308   0.277   3.092   0.766  0.0502 -0.1074  0.0772
12048W        W28309   0.633   5.456   3.011 -0.0418 -0.0051  0.0141
12049W        W28310  11.809   9.963   9.456  0.0805 -0.3155 -0.3705
12050W        W28311  16.705   6.870   4.734 -0.2730 -0.1075  0.2377
12051W        W28312   1.170   3.886   0.404  0.3725 -0.1809  0.0574
12052W        W28313   1.961   7.838   4.884 -0.1895 -0.2037  0.2941
12053W        W28314   1.208   4.170  13.810  0.0870 -0.0223 -0.2775
12054W        W28315  15.851  16.407  14.934  0.0996  0.0552  0.1933
12055W        W28316  11.486   4.008  15.259  0.0686  0.0469 -0.2772
12056W        W28317  15.811  14.931   2.136 -0.2070  0.0275  0.0306
12057W        W28318   3.525   6.528  14.790 -0.3289  0.1796  0.3709
12058W        W28319   5.928  17.118   2.158 -0.0121 -0.1038 -0.1485
12059W        W28320  17.612   6.538   1.226  0.0136  0.1452 -0.1312
12060W        W28321   5.895  13.130   2.959  0.0915  0.4414 -0.0099
12061W        W28322   8.810   6.932  12.023  0.5052 -0.1189 -0.2513
12062W        W28323  13.193  15.769  15.219  0.4391  0.0510 -0.0324
12063W        W28324   3.922   0.247   4.315  0.0429 -0.0251  0.0562
12064W        W28325   2.377  10.173  14.644  0.3524  0.1454 -0.0229
12065W        W28326  13.003   0.845   0.871 -0.0600  0.4356 -0.2430
12066W        W28327  18.685   0.142   0.165  0.0625  0.0542  0.2520
12067W        W28328   6.132  11.808   3.287 -0.2903 -0.1415  0.2802
12068W        W28329  17.033   0.900  13.017 -0.3655  0.0563 -0.1745
12069W        W28330   2.784   0.827   1.283  0.4534 -0.3099  0.0643
12070W        W28331   9.493  16.540  11.408 -0.1895  0.1582  0.4055
12071W        W28332  18.626   0.833  10.687  0.2167  0.2488  0.1471
12072W        W28333   1.234   0.426   1.934  0.2926  0.1009  0.3978
12073W        W28334   9.517   5.816   6.051  0.0842 -0.2224  0.3114
12074W        W28335   7.274   8.927  15.327 -0.1319  0.1229 -0.2040
12075W        W28336  10.799   0.151  14.394  0.1677  0.0509 -0.1085
12076W        W28337   2.368   9.475   1.358 -0.0837 -0.0374 -0.0747
12077W        W28338   4.648  16.889  13.533 -0.0300 -0.1358 -0.2460
12078W        W28339  12.001  18.599  14.832 -0.2654  0.0907  0.1047
12079W        W28340  10.644   4.411  12.405 -0.0198  0.0951 -0.3263
12080W        W28341   0.492  14.801  10.969  0.2347  0.0425  0.1844
12081W        W28342   4.447   1.502  11.468 -0.1294  0.2147  0.1851
12082W        W28343   3.267   3.794  13.822 -0.1406  0.1489  0.0290
12083W        W28344  14.914   0.945   0.202  0.0342 -0.0105 -0.1376
12084W        W28345   6.513   7.343   4.828 -0.1157 -0.1861 -0.2227
12085W        W28346  13.283   5.613  12.878  0.1385  0.2884  0.1209
12086W        W28347  18.480  11.875   1.869 -0.2391 -0.0657  0.0945
12087W        W28348  16.686  14.638   1.960  0.2273  0.0447  0.1407
12088W        W28349  11.137  12.418   2.360  0.1692  0.0314 -0.1763
12089W        W28350  13.927  14.881  10.719  0.0031  0.1298  0.1744
12090W        W28351  11.435   3.199   1.968 -0.1799 -0.0383  0.0770
12091W        W28352  14.580   9.929  12.723 -0.1810 -0.0599 -0.2257
12092W        W28353  10.762  17.608  12.198  0.2676  0.1442  0.1321
12093W        W28354  12.751  11.246  14.785  0.0748  0.0731 -0.1182
12094W        W28355  13.537   1.010  12.881  0.0826 -0.0767 -0.0282
12095W        W28356  14.930  13.603  15.016  0.4630  0.1568 -0.0481
12096W        W28357   6.217   4.239   2.169 -0.0827 -0.4677  0.1089
12097W        W28358   2.038  16.345   3.066 -0.0570 -0.4196 -0.3338
12098W        W28359   1.403  15.044   4.984 -0.0353 -0.0794 -0.0423
12099W        W28360   2.197   8.291   4.002  0.2996 -0.1925 -0.0288
12100W        W28361  10.735   0.198   4.199  0.2098  0.0198 -0.1863
12101W        W28362  17.530  18.136  15.448  0.2967  0.2404  0.1445
12102W        W28363  17.020   5.124   5.382  0.0600  0.0548 -0.2557
12103W        W28364   0.446   1.949   4.543  0.2347 -0.0405 -0.0248
12104W        W28365  10.329   4.824  12.070 -0.0188  0.4426 -0.2498
12105W        W28366  11.764   8.144  12.017  0.1099  0.0324 -0.4725
12106W        W28367   9.713  13.972  14.187  0.1330  0.0600  0.2783
12107W        W28368   4.201  10.353   3.596 -0.1678 -0.0909  0.1668
12108W        W28369  14.390  16.097   0.013  0.0669 -0.0534 -0.1466
12109W        W28370  13.737   6.135  12.169 -0.1662  0.0666  0.3418
12110W        W28371   9.392  15.135  15.605  0.0086  0.1787  0.2491
12111W        W28372  13.116  15.249   3.187 -0.0785  0.0274  0.1869
12112W        W28373  13.297   6.722   0.078  0.4429 -0.1739 -0.1904
12113W        W28374   9.209   1.578   5.010  0.0014 -0.2515  0.1380
12114W        W28375   4.659  12.880   1.923 -0.0442 -0.0770  0.1770
12115W        W28376  13.646  16.365  13.731  0.0628 -0.2652 -0.0657
12116W        W28377  15.622  14.830  12.145  0.2076  0.0807 -0.4420
12117W        W28378   6.636   9.749   4.785  0.0725  0.0844 -0.1018
12118W        W28379   2.930   1.249   2.151 -0.1058 -0.1005 -0.0227
12119W        W28380  16.545   0.494  14.258  0.1339  0.1205  0.0366
12120W        W28381  15.423   1.201  14.284  0.0289  0.2990 -0.1037
12121W        W28382   8.399   7.670   4.440 -0.0367 -0.4098  0.1270
12122W        W28383   9.121   9.918  12.632 -0.1277  0.1269 -0.4003
12123W        W28384   3.453  16.796   2.858  0.1111 -0.1126  0.0762
12124W        W28385  11.571  16.740   2.591  0.0197  0.1110 -0.0118
12125W        W28386   1.037  15.559  11.325  0.0011  0.0265  0.0554
12126W        W28387  15.097   9.500   0.984  0.0932 -0.0880  0.2352
12127W        W28388   1.480   1.245   1.978  0.2625 -0.1911 -0.1238
12128W        W28389   0.130  14.426   9.955 -0.4348  0.0678  0.4023
12129W        W28390  16.558   8.097   2.111  0.4517  0.0139  0.2453
12130W        W28391   3.266  17.776   0.650  0.0980 -0.0696  0.0895
12131W        W28392   8.966  16.134  12.154 -0.0464  0.4836 -0.0967
12132W        W28393   2.666  17.226   0.542 -0.1430  0.1842  0.2408
12133W        W28394   9.134  14.033   2.005 -0.1067  0.2580  0.1495
12134W        W28395  16.914   1.683   0.239  0.1158  0.0285 -0.1524
12135W        W28396   9.317  14.058  12.544 -0.2041 -0.0018  0.1898
12136W        W28397  13.973   9.294  11.263 -0.2760  0.1039  0.0053
12137W        W28398   5.839   9.533   1.150 -0.1303  0.0111  0.0430
12138W        W28399  14.973   6.711  14.698  0.2253  0.3073  0.1356
12139W        W28400   7.050   4.187   2.765  0.0105  0.0656  0.1235
12140W        W28401  11.618   9.669  14.360  0.0376  0.1031  0.0541
12141W        W28402  18.754   6.247  12.740  0.0900  0.1551  0.0421
12142W        W28403   1.474  15.941   3.412 -0.0447 -0.2261  0.1455
12143W        W28404   6.137   7.399   3.602  0.0044  0.2427 -0.1572
12144W        W28405  17.704  16.914   1.727  0.3319  0.1493 -0.0827
12145W        W28406   2.255  15.716   4.482  0.0581 -0.3544 -0.0286
12146W        W28407  18.820   6.182   2.824  0.0265 -0.1784 -0.0101
12147W        W28408  15.898  17.567   1.586  0.0193  0.1733  0.1827
12148W        W28409  14.559  11.746  12.695 -0.1613 -0.2409  0.0528
12149W        W28410   0.880  15.165   4.976 -0.0725 -0.0622 -0.2599
12150W        W28411  18.668  11.557  13.388 -0.3045 -0.1371 -0.0714
12151W        W28412   7.119   5.225   2.904 -0.2633 -0.0896  0.0867
12152W        W28413   2.902   4.189  11.389  0.3336  0.2685  0.0078
12153W        W28414   8.357  18.613   5.725  0.2754 -0.0944 -0.1364
12154W        W28415  18.254  12.753   2.969  0.0576 -0.0649  0.0208
12155W        W28416  17.646   3.434  10.614 -0.1441  0.0782 -0.2133
12156W        W28417  10.959  15.870  12.499  0.1524  0.0288 -0.1041
12157W        W28418  13.457   1.999  15.333 -0.0015  0.2044  0.0847
12158W        W28419  10.622  15.800  12.117  0.1994  0.0213 -0.2316
12159W        W28420   7.720  16.519  11.653  0.0403 -0.1230 -0.1345
12160W        W28421   9.925  18.681   1.723 -0.1083 -0.3304  0.0027
12161W        W28422   7.057  11.478  14.978 -0.0359 -0.0964 -0.3234
12162W        W28423   4.145  18.139  12.382  0.2665  0.3209 -0.1761
12163W        W28424   1.575  15.010  11.727 -0.2967  0.0541  0.3194
12164W        W28425  16.285  14.308   0.656 -0.4716  0.0945 -0.1666
12165W        W28426  16.493   4.899   0.137  0.1475 -0.2578 -0.0157
12166W        W28427  14.333   8.484  11.125 -0.2174  0.0809  0.1126
12167W        W28428   7.640   4.338  12.551  0.0991  0.2835 -0.0535
12168W        W28429  15.819   0.964   0.397  0.0147 -0.2608 -0.2398
12169W        W28430  16.299   3.084  12.758 -0.1405 -0.2755 -0.1829
12170W        W28431   7.353  12.231   1.761 -0.0963 -0.2184  0.2394
12171W        W28432  18.009  16.115  13.754  0.0643  0.2872 -0.2726
12172W        W28433  10.895  15.461   5.932 -0.1203  0.2175  0.1230
12173W        W28434  12.389   4.093  13.263  0.0282 -0.0774  0.1601
12174W        W28435   3.281  14.959   0.262 -0.0005  0.0455  0.1670
12175W        W28436  11.508   9.229   2.123 -0.0591  0.1374  0.1339
12176W        W28437   0.771   9.552   2.185 -0.0820  0.2995 -0.1901
12177W        W28438   9.373  17.364  11.419 -0.5680  0.0335 -0.1179
12178W        W28439   2.990   2.854   3.000 -0.3288  0.0785 -0.0956
12179W        W28440  15.433  13.762  12.984 -0.2752 -0.0814  0.1240
12180W        W28441  11.153   2.954   0.655  0.1804 -0.1309 -0.1293
12181W        W28442  17.842   2.174  14.809 -0.2411  0.1337  0.1751
12182W        W28443   2.386   4.342   2.113  0.1816  0.2090  0.0695
12183W        W28444   0.347  15.840  14.268  0.6944  0.2502  0.0630
12184W        W28445  10.305  16.844  13.134  0.1849  0.0806 -0.1967
12185W        W28446  18.557  12.025   4.332 -0.2387 -0.1595  0.2416
12186W        W28447   0.187  12.015  15.571  0.0615 -0.1420 -0.4106
12187W        W28448   7.241   9.549  10.901 -0.1326 -0.0514  0.3496
12188W        W28449  13.561   8.385   5.345  0.0005  0.3553 -0.3280
12189W        W28450  15.874  15.124   0.812  0.2535  0.1461 -0.1628
12190W        W28451  12.476   9.007   1.392 -0.3565 -0.3328 -0.0101
12191W        W28452  14.526  17.337  14.302  0.0511  0.3117 -0.1262
12192W        W28453   6.890  15.643   2.700  0.2309 -0.2543 -0.1571
12193W        W28454  17.869  16.152   4.895  0.0938 -0.0808 -0.1241
12194W        W28455   8.909  18.826  12.795 -0.2065  0.0468 -0.0499
12195W        W28456   4.248   0.829  13.228 -0.0322  0.0420 -0.1984
12196W        W28457   2.851   9.180  13.595 -0.0054  0.0704 -0.0540
12197W        W28458   2.406   2.214  14.116  0.1013 -0.0351  0.0733
12198W        W28459  12.302  11.486   4.154 -0.0510 -0.1752  0.0864
12199W        W28460   5.717  17.029  15.135  0.3339 -0.2851 -0.0268
12200W        W28461   0.247  12.217   0.832  0.0092  0.0605  0.0616
12201W        W28462   4.391  14.635   3.712  0.0940 -0.1609 -0.1963
12202W        W28463   0.455   6.464  14.777 -0.0279  0.1466 -0.3916
12203W        W28464  17.005  17.461   4.713  0.0856 -0.2045  0.2573
12204W        W28465   3.497   5.127   4.654 -0.2067 -0.2212 -0.0831
12205W        W28466   5.534  14.075  12.553  0.1275 -0.0410  0.5152
12206W        W28467   5.167  18.766   3.338 -0.2577 -0.1252 -0.3841
12207W        W28468   5.217   0.810   3.631  0.3634  0.0766 -0.0217
12208W        W28469  16.484  17.474   4.233  0.1403 -0.0605  0.1013
12209W        W28470   1.974   7.008  15.207 -0.1186 -0.1310 -0.0353
12210W        W28471   0.676   5.896   0.625 -0.0635 -0.1516 -0.1709
12211W        W28472   0.591   5.301   4.456  0.0806  0.0380 -0.2613
12212W        W28473   4.948  16.945  10.210  0.2448  0.2043 -0.0589
12213W        W28474   5.568  10.563  14.320 -0.0746  0.2333 -0.1019
12214W        W28475  10.299  14.937   0.332  0.1561  0.5715  0.2109
12215W        W28476   6.498   1.636   3.155 -0.3230 -0.0361  0.1019
12216W        W28477  14.895   9.679  14.266 -0.1570  0.1102 -0.1208
12217W        W28478  13.769  17.993   3.661  0.0496 -0.0112  0.1495
12218W        W28479   4.151  17.328   0.851 -0.3247 -0.0066  0.0257
12219W        W28480  16.318   9.727   4.050  0.0764  0.1178  0.1938
12220W        W28481  17.617  15.868  14.140  0.0355 -0.0446  0.1484
12221W        W28482   4.930  17.488  13.905  0.1965  0.4224 -0.0312
12222W        W28483  10.074  15.718  13.161 -0.3526  0.2137  0.0504
12223W        W28484   7.697  13.248  13.605  0.0188 -0.4113  0.2482
12224W        W28485   1.511  11.135   0.044  0.1347  0.1507 -0.0740
12225W        W28486  17.400  10.420  13.096  0.4364  0.2095  0.1857
12226W        W28487   4.349  17.413  12.854  0.2939 -0.2513  0.1848
12227W        W28488  12.224   0.109   4.604  0.2618 -0.1787  0.1767
12228W        W28489  11.457  15.739  12.387  0.2408  0.0679 -0.4015
12229W        W28490   0.764   7.653  11.270  0.1053 -0.0565  0.3707
12230W        W28491   8.142   0.757   0.440 -0.2759 -0.1774 -0.0242
12231W        W28492  12.526   8.071  11.009  0.1700  0.1989 -0.0860
12232W        W28493   1.363  13.472   1.189  0.0171 -0.1618 -0.0416
12233W        W28494  15.668   3.025  15.611 -0.1500  0.1612 -0.2963
12234W        W28495   3.622  10.283   0.071  0.0240 -0.1784  0.3240
12235W        W28496   3.854   5.195  14.795 -0.2465 -0.0021 -0.0861
12236W        W28497   4.525  15.298  13.691  0.3032  0.2361  0.2583
12237W        W28498   0.541   5.059   9.649 -0.0291 -0.0490 -0.0151
12238W        W28499  17.924   2.241  12.526  0.2690 -0.2854  0.0114
12239W        W28500  16.571   0.314   1.710 -0.1242 -0.2574 -0.1387
12240W        W28501   3.989   6.427   1.845 -0.0856 -0.0229 -0.4036
12241W        W28502   5.557  17.008  13.067 -0.0072 -0.2673 -0.0296
12242W        W28503  10.273   3.100  13.633 -0.0648  0.0529 -0.0086
12243W        W28504   9.314   0.617   3.486 -0.2419 -0.3293  0.0188
12244W        W28505   9.184  15.399   1.426 -0.1128 -0.0994 -0.2851
12245W        W28506   5.555   2.675  11.169  0.3518  0.0725 -0.1202
12246W        W28507   4.458  12.583  12.687  0.1159 -0.0151 -0.0557
12247W        W28508  13.722   9.414   2.167 -0.0308  0.4696 -0.2640
12248W        W28509   5.797  18.053  14.834 -0.1579  0.0587  0.3148
12249W        W28510  18.716   4.640  13.496 -0.1159 -0.2505 -0.1843
12250W        W28511   9.495  16.282   3.150  0.2000 -0.0944 -0.0464
12251W        W28512   5.397   4.122  12.485 -0.1769 -0.0830 -0.2600
12252W        W28513   9.460  10.738  14.924 -0.1366 -0.0405 -0.1035
12253W        W28514   3.937   4.683   3.751  0.0551 -0.4156  0.3626
12254W        W28515   0.782   8.484  11.004 -0.2880  0.1401  0.1349
12255W        W28516   1.393  18.721   2.960 -0.1989 -0.1714  0.0070
12256W        W28517   1.041  14.341   4.947  0.1301 -0.1495 -0.4062
12257W        W28518  16.040  18.519   0.795  0.2170  0.0827  0.1042
12258W        W28519  15.417   8.844   4.798 -0.0917  0.1546  0.1942
12259W        W28520  14.888   3.001   1.725 -0.2739  0.0107 -0.0516
12260W        W28521  14.310  11.939  12.085  0.0504  0.1185  0.1348
12261W        W28522   0.810   5.909   0.096 -0.0693 -0.1110 -0.2793
12262W        W28523  17.039  15.217   2.140 -0.0557 -0.0295 -0.0974
12263W        W28524   4.888  15.708  14.660 -0.0692 -0.2185 -0.2543
12264W        W28525  18.410  13.490   9.512  0.0068  0.0993  0.0513
12265W        W28526  10.353   0.397   0.181  0.0302  0.0745  0.0215
12266W        W28527   7.564   2.017   2.816 -0.0473 -0.3269  0.0036
12267W        W28528   9.757  11.385  12.678  0.1711  0.1246  0.1862
12268W        W28529  14.801   8.910  14.625 -0.2686 -0.0630 -0.0410
12269W        W28530   5.224   7.727  13.478 -0.2230  0.2627  0.2479
12270W        W28531   9.319  17.073   9.890 -0.4490 -0.4841  0.0149
12271W        W28532   9.516   3.339   2.808 -0.1443  0.6030  0.0663
12272W        W28533   0.626  13.079  11.883  0.2301  0.0407  0.1176
12273W        W28534  12.255   8.507   1.933  0.2338  0.0596 -0.0003
12274W        W28535  18.326   0.346   9.504  0.0668 -0.1155 -0.0688
12275W        W28536  16.323   8.286  14.370 -0.0620  0.1044  0.1439
12276W        W28537  12.161  17.372  13.372  0.2826  0.0391 -0.0194
12277W        W28538  14.663   3.673   1.036  0.0045 -0.0256 -0.1344
12278W        W28539  17.985  16.256  12.894  0.2862 -0.0754  0.2040
12279W        W28540  17.156   7.427  12.658 -0.1212  0.0885 -0.0338
12280W        W28541  12.323   0.033   2.966  0.1289 -0.2715  0.1432
12281W        W28542  17.007  13.170  10.953 -0.1827  0.1001  0.1233
12282W        W28543   7.866  10.757  13.298  0.1417  0.0711 -0.1129
12283W        W28544  14.500  18.486   4.081 -0.0478  0.3286 -0.0521
12284W        W28545  17.192  16.531  13.488 -0.1593 -0.0095 -0.0310
12285W        W28546   4.457  12.988  10.636 -0.3148 -0.0935 -0.1787
12286W        W28547  13.743  11.239   0.968  0.1001 -0.1433 -0.0229
12287W        W28548   1.958  12.261  11.564 -0.0762 -0.1092 -0.1345
12288W        W28549   0.846  18.643  14.496 -0.3004 -0.0953 -0.2176
12289W        W28550  13.570  12.493   0.189  0.1367 -0.3405 -0.1059
12290W        W28551  17.033   3.855   5.399  0.0220  0.1267 -0.1169
12291W        W28552   9.602  14.332  13.149  0.0450  0.1253 -0.0597
12292W        W28553   2.138   7.065  14.428 -0.1093  0.0868  0.2509
12293W        W28554   8.678   6.977   0.783  0.2269 -0.2658  0.0652
12294W        W28555  13.472   9.889  14.796 -0.4743 -0.0338  0.0792
12295W        W28556   1.599   3.210  12.876  0.0307  0.4132 -0.2277
12296W        W28557  17.012   9.909  13.740  0.1522  0.1713  0.0450
12297W        W28558   7.804  18.418   2.186 -0.1645 -0.0681 -0.1792
12298W        W28559   1.861   9.525  14.183 -0.1019 -0.0587 -0.0201
12299W        W28560   0.406   3.876   5.296 -0.1354  0.4257  0.3882
12300W        W28561   9.537  14.601  15.553 -0.1810 -0.2236 -0.2776
12301W        W28562   2.036   4.800  14.743  0.1331 -0.0201  0.2235
12302W        W28563   0.760  10.062   2.367 -0.5260  0.2369  0.0030
12303W        W28564  13.893   6.652  12.128  0.0647 -0.0086 -0.0482
12304W        W28565   1.299   7.148   1.798  0.0372 -0.0794 -0.1573
12305W        W28566   2.031   6.964  12.676 -0.1281 -0.1662 -0.0553
12306W        W28567  13.372  17.479   0.761  0.0376 -0.3397 -0.0751
12307W        W28568  16.970   5.279  13.286  0.1644  0.0949 -0.0605
12308W        W28569   3.312  12.959   9.702 -0.1116 -0.1108  0.1345
12309W        W28570  14.979  17.386   1.826 -0.2958  0.0521 -0.1080
12310W        W28571   1.819   9.413   1.896  0.0337 -0.1191 -0.0175
12311W        W28572  16.214  11.405  14.280  0.1497 -0.0997  0.0365
12312W        W28573  16.520   4.774   2.317 -0.1186 -0.2171  0.0036
12313W        W28574   5.866  18.646  11.824  0.0877  0.1332  0.1174
12314W        W28575   1.997   7.511   1.647 -0.3071 -0.2345  0.0388
12315W        W28576   4.751  12.937   0.019 -0.2924 -0.0869 -0.1849
12316W        W28577  12.858   7.825  12.538 -0.2539 -0.0785  0.0386
12317W        W28578  15.443  13.379   4.776 -0.1424 -0.3208  0.2492
12318W        W28579   0.370  11.939   1.249  0.0128 -0.0336 -0.1920
12319W        W28580  10.115  10.365  11.682 -0.2313 -0.1940  0.0527
12320W        W28581  18.125  17.058   4.093 -0.1578 -0.0527 -0.0586
12321W        W28582   2.407  10.748   3.709  0.1099 -0.0231  0.2875
12322W        W28583  16.698   6.632   1.961 -0.1597  0.1445  0.5368
12323W        W28584  13.783   4.833   2.868 -0.0687 -0.1880  0.0420
12324W        W28585   7.730   5.048  12.721 -0.1085  0.0734 -0.0360
12325W        W28586   1.177  12.790  12.860  0.1460 -0.1775 -0.1867
12326W        W28587   7.612   4.556   4.824  0.0415  0.2926  0.5173
12327W        W28588  14.874  10.270  12.866 -0.0313  0.1324 -0.0976
12328W        W28589   0.186   2.409   0.391 -0.1183 -0.0665 -0.0606
12329W        W28590   4.601   8.046   4.722  0.2647  0.0398  0.3915
12330W        W28591  10.505  16.974  13.553 -0.1952  0.1418 -0.0655
12331W        W28592  15.787   6.326   1.241  0.2344 -0.1503  0.1241
12332W        W28593   6.335   1.008   2.946 -0.5992 -0.0746 -0.2949
12333W        W28594  16.809   1.800  13.274  0.0968  0.3731 -0.2225
12334W        W28595  17.288  18.125   1.303 -0.0553 -0.0185 -0.0762
12335W        W28596  10.639  11.372   3.778 -0.0659 -0.1241 -0.0221
12336W        W28597  11.556  12.924  14.743 -0.0955 -0.0976  0.1151
12337W        W28598  18.774   6.178  12.148  0.1291  0.0641 -0.0565
12338W        W28599   9.781   3.668   2.016 -0.2450  0.0244  0.1920
12339W        W28600  11.847  15.362   2.834 -0.0119  0.0526 -0.2328
12340W        W28601  15.052  16.888  11.139  0.2057  0.1924 -0.0510
12341W        W28602  18.446   3.911   2.531  0.0180 -0.0772 -0.0475
12342W        W28603  11.989   7.294   1.981  0.2193  0.0543 -0.0071
12343W        W28604   6.721  15.142   4.737 -0.1666  0.1828  0.2112
12344W        W28605  13.027   4.563  11.966  0.0455  0.1480 -0.0772
12345W        W28606   4.805   9.549   3.213  0.0747  0.0087  0.1029
12346W        W28607   1.715   3.631  15.512  0.1824  0.3484 -0.2313
12347W        W28608   4.266  15.652  13.971 -0.1452  0.1443 -0.1062
12348W        W28609   8.290   8.741   3.247  0.1921  0.0309 -0.0184
12349W        W28610   2.393   5.883   4.890  0.0407 -0.1873  0.2348
12350W        W28611  11.400   0.157  11.442 -0.0308  0.1398  0.2963
12351W        W28612  16.589   2.490   4.008  0.2127  0.2643  0.0309
12352W        W28613   2.247   6.452  14.993 -0.0269 -0.2330  0.0747
12353W        W28614  18.108  16.995  11.953 -0.3790  0.0059 -0.0878
12354W        W28615   5.713   5.929   5.184 -0.2695  0.1287 -0.1755
12355W        W28616  15.097  16.648  15.573 -0.2361 -0.1607  0.1883
12356W        W28617   3.633  12.046  10.409  0.3407 -0.2088  0.3558
12357W        W28618  17.027  13.725   4.107  0.0371 -0.1999 -0.0909
12358W        W28619   9.546   0.688   1.601  0.0049  0.3976 -0.0090
12359W        W28620  14.100  12.699  11.119  0.2184 -0.0915 -0.2255
12360W        W28621  12.310   2.920  11.242 -0.0744  0.0551 -0.1653
12361W        W28622   2.352  14.093   0.763 -0.2674  0.2256  0.0121
12362W        W28623   8.325  10.107  10.365 -0.1094 -0.3200  0.3391
12363W        W28624   5.368   4.278   0.305 -0.1760  0.1355  0.2214
12364W        W28625  13.285  10.040   5.215 -0.0965  0.2052 -0.3083
12365W        W28626   1.311  17.002   1.831 -0.1969 -0.0069 -0.0828
12366W        W28627   4.497   6.650  13.703  0.1493  0.3875 -0.3571
12367W        W28628  13.123  14.875  14.287  0.0776 -0.0186  0.0695
12368W        W28629   0.638   4.643  11.176  0.2418  0.0111 -0.0176
12369W        W28630   9.718  11.866   4.334  0.0829 -0.4383  0.0448
12370W        W28631   8.418   6.285   5.846 -0.2138  0.1212 -0.0056
12371W        W28632  15.721   7.195   0.904 -0.0489 -0.0773  0.1042
12372W        W28633  15.242  10.418  13.403 -0.0899  0.1339 -0.1123
12373W        W28634  17.438  10.328  14.387 -0.0539 -0.0855  0.0869
12374W        W28635  12.161  17.793   3.427 -0.0419 -0.1085 -0.0617
12375W        W28636   8.116   9.187   1.357 -0.0695 -0.0069  0.3734
12376W        W28637   8.471   6.137   0.620  0.0073 -0.0322 -0.2473
12377W        W28638   0.048   4.036  13.296 -0.1654  0.2123 -0.3814
12378W        W28639   4.543   6.273   2.715 -0.1759  0.0220  0.0587
12379W        W28640   5.473  18.358   3.241 -0.1464  0.2023 -0.3056
12380W        W28641  11.076  12.864  13.230 -0.0785 -0.0295  0.0007
12381W        W28642   8.347  12.733  14.032 -0.0049  0.2568 -0.1907
12382W        W28643  15.252  14.515   0.407 -0.1479  0.4282 -0.3625
12383W        W28644  11.806   4.796  14.828 -0.1569 -0.0386  0.3172
12384W        W28645   4.547   0.607   1.520  0.2273 -0.1963  0.1062
12385W        W28646   5.789  18.505   5.422  0.1996 -0.2541  0.2879
12386W        W28647  11.222   5.231  14.763  0.0567  0.0204 -0.0511
12387W        W28648  13.283   0.803   2.696 -0.1309  0.0141  0.0278
12388W        W28649   4.711  14.962  15.257 -0.3539  0.4948  0.2698
12389W        W28650  13.924   8.679  10.876  0.0149 -0.2194  0.0050
12390W        W28651  11.938   3.139   3.446 -0.2918  0.0713 -0.1435
12391W        W28652   0.218  14.321   3.291  0.1623  0.2008  0.1766
12392W        W28653   8.454   3.930   4.958  0.0956 -0.0175  0.1360
12393W        W28654   8.489  17.986   6.105 -0.3184  0.0413  0.1573
12394W        W28655  12.330  17.041  10.727 -0.1719 -0.3273 -0.0855
12395W        W28656   1.330  12.048   2.877  0.0586  0.0553  0.3868
12396W        W28657   6.308  15.632   4.272 -0.1785 -0.1852 -0.1490
12397W        W28658  17.564  17.430  10.713 -0.2310 -0.0017 -0.2246
12398W        W28659   0.392  11.131   1.631  0.1629  0.0190  0.0013
12399W        W28660  10.642   3.122  12.831  0.3624 -0.3081  0.3495
12400W        W28661  17.968   4.980   4.035  0.2483 -0.3032 -0.0853
12401W        W28662  12.212  13.628   2.741  0.2661  0.1183 -0.0038
12402W        W28663  15.830  12.258  10.771 -0.0771 -0.2263  0.1303
12403W        W28664  16.142   5.144  14.304 -0.2220 -0.0250 -0.0262
12404W        W28665   7.994  13.475  14.124  0.0520 -0.4880 -0.4464
12405W        W28666  16.795  12.164   2.170 -0.0470  0.0600 -0.2268
12406W        W28667   4.995   3.608   0.599 -0.1798 -0.1210 -0.2257
12407W        W28668   9.300  18.583   4.473 -0.0445 -0.1082 -0.2266
12408W        W28669   6.199  16.451   1.298 -0.0195  0.0261 -0.1813
12409W        W28670   9.604   9.681  12.483 -0.0257  0.2263 -0.2414
12410W        W28671  10.614  15.488   3.007  0.3292 -0.0783 -0.2331
12411W        W28672   7.781  15.877   1.392 -0.0790 -0.3092  0.2388
12412W        W28673  17.013  12.861   2.433  0.2372 -0.3113  0.2903
12413W        W28674   3.411  11.728   1.884 -0.0734  0.3316 -0.0703
12414W        W28675   8.809  12.710  11.494  0.2816 -0.1164  0.2180
12415W        W28676  14.528   7.938   2.529 -0.0588 -0.0234  0.1514
12416W        W28677   0.441   9.655   2.519  0.0373 -0.1388 -0.2596
12417W        W28678  17.892   1.014  10.959 -0.0321 -0.1457 -0.2548
12418W        W28679   2.810   9.839  10.960  0.2812  0.0385 -0.1936
12419W        W28680  14.937   5.541   3.753  0.1028 -0.3948 -0.0198
12420W        W28681   5.071  15.982   4.678 -0.1606 -0.1347  0.2125
12421W        W28682  17.812  18.415   1.396  0.0377 -0.0535 -0.0400
12422W        W28683  14.632  11.394   0.135 -0.0477 -0.2264 -0.1424
12423W        W28684   8.266   9.694   2.029 -0.0701  0.0573 -0.1461
12424W        W28685   4.604  16.479  11.037  0.2120  0.0423 -0.1309
12425W        W28686  14.742   9.939   2.982  0.1608 -0.2929  0.0135
12426W        W28687   5.145   4.180   3.756 -0.1709 -0.1180  0.0872
12427W        W28688   8.615  15.149  11.291 -0.5183  0.2249  0.0753
12428W        W28689  13.967  16.059  14.535 -0.1657  0.2203  0.1661
12429W        W28690   5.641   3.252  13.408  0.0251  0.4318  0.1289
12430W        W28691  16.626  14.020  14.098  0.0689  0.1696 -0.1927
12431W        W28692   0.854  12.826   2.429  0.2438 -0.2673  0.1772
12432W        W28693  12.835  11.815  10.938 -0.0620 -0.1711 -0.1519
12433W        W28694  13.798   9.120  13.485  0.1040  0.0489 -0.0277
12434W        W28695   1.226   7.768  13.070  0.1847 -0.1036  0.1021
12435W        W28696   3.790  13.652   1.989 -0.0546 -0.0346  0.2713
12436W        W28697   8.598   7.235  14.934  0.0535  0.0343 -0.1485
12437W        W28698   9.095  11.130   3.652 -0.3312 -0.0155 -0.0485
12438W        W28699   7.235   9.037   5.239  0.1619 -0.0244 -0.1897
12439W        W28700   9.834   1.767   0.243 -0.3104 -0.0134  0.2518
12440W        W28701   8.747  10.824   5.124  0.4648 -0.1164  0.1839
12441W        W28702  13.495   2.577   0.382  0.3780 -0.0743 -0.2066
12442W        W28703   5.730  12.075  15.136  0.1732  0.0389 -0.1249
12443W        W28704   0.715   1.374  14.270  0.0066 -0.0464  0.1252
12444W        W28705  16.391  10.714   1.922  0.1465 -0.2967 -0.2238
12445W        W28706  18.527   9.640  10.796  0.1987  0.1487  0.1253
12446W        W28707   0.334   5.446  15.146 -0.0896  0.2015 -0.3064
12447W        W28708   2.784   5.871   1.181 -0.2104  0.0480  0.0816
12448W        W28709   8.470  14.849   1.616  0.2618  0.2707  0.0092
12449W        W28710   6.780   2.356   4.177  0.2071  0.2846  0.0389
12450W        W28711   9.131  13.331  11.591  0.0506  0.5370 -0.1550
12451W        W28712   5.899   9.286   1.574 -0.2595  0.1827 -0.0473
12452W        W28713   9.622   6.511  12.395 -0.4497  0.0408  0.1598
12453W        W28714  14.613   1.102  12.593 -0.1617 -0.1391  0.1320
12454W        W28715  15.105   7.004  13.373 -0.2373 -0.0162 -0.3526
12455W        W28716   5.939  17.986  12.972  0.1766 -0.1014 -0.1263
12456W        W28717   2.563   6.834   4.682 -0.1582 -0.1885  0.1802
12457W        W28718   0.280   7.572   0.010 -0.0451 -0.1534 -0.2620
12458W        W28719   6.632   2.818   1.254 -0.0791  0.3431 -0.0305
12459W        W28720   6.333  13.724  12.552  0.4023 -0.0191 -0.1213
12460W        W28721  12.091   9.506   3.041  0.0157  0.0058 -0.0909
12461W        W28722  10.719  17.611  12.762 -0.1296 -0.0408 -0.4211
12462W        W28723   1.630   9.904   3.280 -0.2756 -0.2085  0.2879
12463W        W28724   4.758   6.115   1.871  0.0261  0.2307  0.2742
12464W        W28725  13.777  11.879  10.621 -0.0563 -0.1562 -0.1427
12465W        W28726  12.948  13.834   4.177 -0.3700  0.1137  0.0807
12466W        W28727   3.756  14.245  12.102 -0.0036 -0.0602 -0.0347
12467W        W28728   7.918  16.317  14.814 -0.0300 -0.3095  0.2971
12468W        W28729  10.420   8.442   0.696 -0.2899  0.1005 -0.0881
12469W        W28730  13.107   2.247  12.850  0.1126  0.2821  0.0009
12470W        W28731  16.138  12.005   3.495 -0.0597  0.1265  0.4794
12471W        W28732   0.924  13.173   1.368 -0.6658 -0.1400 -0.2591
12472W        W28733   9.915  10.069   0.684 -0.2453 -0.2680  0.1529
12473W        W28734   6.405   5.946  11.490  0.1522 -0.1154  0.2201
12474W        W28735  15.893   2.960   2.461  0.0025  0.1750 -0.0291
12475W        W28736  10.993  15.253   2.823  0.3335  0.0701  0.2296
12476W        W28737   1.067   6.795  11.802 -0.0782 -0.1760  0.0315
12477W        W28738  11.653  17.637  10.992  0.0251 -0.3679  0.1644
12478W        W28739  17.462   9.052   5.074 -0.0221  0.0169  0.3454
12479W        W28740  18.414   0.271   1.684 -0.1527 -0.0836 -0.0603
12480W        W28741   8.339  16.937  14.051 -0.2802  0.1642  0.0308
12481W        W28742  15.306   2.207   0.186 -0.2073  0.1170  0.1185
12482W        W28743  10.047  12.243   4.574  0.0407  0.0256 -0.0789
12483W        W28744  17.113  14.491   4.461 -0.1513  0.1745  0.2007
12484W        W28745  16.163   6.605  14.067  0.1786 -0.0622  0.0427
12485W        W28746   9.884   5.238   2.613  0.0378  0.1054 -0.0641
12486W        W28747  15.894   4.744  13.993  0.2997 -0.1816  0.1274
12487W        W28748  12.028  17.295  15.089  0.2775 -0.0437  0.0113
12488W        W28749   0.554  10.823  12.064  0.3683  0.0032  0.3854
12489W        W28750   0.052  13.700   4.038 -0.3519 -0.2002  0.0589
12490W        W28751   0.654   8.476  14.794 -0.0315  0.1793 -0.0435
12491W        W28752  12.336  15.056   3.642 -0.1963  0.2367  0.2729
12492W        W28753  16.137   4.410   3.732 -0.0152  0.1632 -0.2950
12493W        W28754   0.742  18.101  15.248  0.1213 -0.3402  0.2830
12494W        W28755  14.899   2.015   0.075  0.2110  0.0286  0.0832
12495W        W28756   9.013  13.921   2.720 -0.4091  0.0327  0.0742
12496W        W28757  16.251  14.839   4.883 -0.1514  0.0340  0.1709
12497W        W28758   4.256   6.879   1.680  0.1087  0.2262  0.0246
12498W        W28759  14.360   9.114   3.701 -0.0276 -0.1391 -0.5992
12499W        W28760   5.379   5.899  14.049  0.1415 -0.2507  0.0852
12500W        W28761   0.164  11.466   1.069 -0.2090 -0.2362 -0.0217
12501W        W28762   3.143   4.075  12.510  0.2480 -0.1393  0.2629
12502W        W28763   8.416  10.269   2.163  0.0933  0.1527  0.0442
12503W        W28764  17.125  16.988  12.212 -0.2133  0.1939 -0.3162
12504W        W28765   2.857   2.142   0.024 -0.3156  0.0843  0.0773
12505W        W28766  14.230   4.151   1.710 -0.0241 -0.2123  0.5625
12506W        W28767   2.456   6.165  10.151  0.1685 -0.2776 -0.0610
12507W        W28768  11.293  12.743   0.103  0.0122  0.1909 -0.0975
12508W        W28769   8.279   3.722   4.158  0.1039 -0.0406 -0.2108
12509W        W28770   3.791   7.092  15.228  0.0047  0.1925  0.0766
12510W        W28771   6.023  10.952   3.595 -0.0286 -0.2375  0.0902
12511W        W28772  14.293   1.720  11.039 -0.1351  0.0869  0.0475
12512W        W28773  12.166   1.407  12.116  0.4768  0.1704  0.0954
12513W        W28774   9.961   0.212  14.263 -0.2892 -0.0160  0.2308
12514W        W28775  17.554   3.871   0.901 -0.1095 -0.2259  0.0786
12515W        W28776  17.122  14.810   1.282 -0.1681  0.0164  0.1388
12516W        W28777   3.728   2.083   2.718  0.0091  0.3788  0.0821
12517W        W28778   1.532  14.041  14.178  0.2006 -0.1027  0.1799
12518W        W28779  10.573   0.520   1.135  0.0556 -0.0862 -0.0541
12519W        W28780  14.415  14.762  13.615  0.1404 -0.0447 -0.1575
12520W        W28781  12.516   6.778   4.636  0.0258  0.0031 -0.1966
12521W        W28782   2.651   5.253   1.194  0.2583  0.0487 -0.0259
12522W        W28783  18.780   8.914  14.786  0.2620  0.0113 -0.1240
12523W        W28784   2.292  10.786   5.111 -0.1225  0.2781 -0.3392
12524W        W28785  12.388  17.654   0.657  0.0106 -0.0812 -0.2377
12525W        W28786  13.888   3.398   2.939 -0.1239  0.0574  0.4381
12526W        W28787   7.515  10.802   6.186  0.0535 -0.0496  0.0924
12527W        W28788  10.321  11.954  11.895 -0.1541 -0.0414 -0.2463
12528W        W28789   7.202   6.005   0.623  0.3267 -0.1030 -0.2358
12529W        W28790  15.471   5.245  12.253  0.0254 -0.0564  0.2031
12530W        W28791   5.770   8.088  11.995 -0.0094  0.3514 -0.2569
12531W        W28792  12.226  10.726  15.086 -0.3245  0.1555 -0.0766
12532W        W28793  11.283   9.939  11.401 -0.0104 -0.1417 -0.1309
12533W        W28794   1.705   4.061   0.283  0.4381 -0.0077 -0.2637
12534W        W28795   3.534   8.883   3.095 -0.1203 -0.1546 -0.2561
12535W        W28796  16.102   1.749   0.651 -0.0165 -0.0564 -0.3458
12536W        W28797   2.662   4.134  12.839 -0.2351 -0.0374  0.1140
12537W        W28798  13.761   6.185   4.414 -0.0225 -0.1123 -0.4000
12538W        W28799  16.647   1.392  11.808 -0.0973 -0.2131 -0.1785
12539W        W28800  17.167   9.539   2.084  0.1674 -0.1325 -0.0641
12540W        W28801   4.713   8.898   5.599  0.1880  0.0747 -0.3630
12541W        W28802   4.888   5.119  12.353  0.1364  0.0429 -0.0610
12542W        W28803   3.409  18.446  15.203  0.1155  0.0789  0.2344
12543W        W28804   8.703  11.554   1.783 -0.0247 -0.1645  0.0189
12544W        W28805  15.808  15.589  12.551  0.0749  0.0600  0.2957
12545W        W28806  14.863   8.281   2.403  0.0514  0.0400  0.3270
12546W        W28807   2.567   8.166   3.654 -0.1786 -0.0831  0.1207
12547W        W28808   5.191   1.489   0.965  0.2632  0.2122  0.0587
12548W        W28809  16.178   7.916   5.099  0.0411  0.4379 -0.1026
12549W        W28810   6.326  15.426  15.095  0.2547 -0.0692  0.0699
12550W        W28811  17.736  15.236   2.866 -0.0901  0.1781  0.2958
12551W        W28812  10.447   5.232  12.272 -0.2550 -0.1353 -0.2730
12552W        W28813   8.870   9.032   3.969  0.3940  0.1190 -0.4057
12553W        W28814   3.107   3.349  11.423  0.0073 -0.2671 -0.0594
12554W        W28815   8.569  14.090   3.451 -0.0325 -0.0814  0.0501
12555W        W28816   8.460   1.515  12.138  0.2164 -0.4059 -0.1575
12556W        W28817  18.605   0.757   2.278  0.0540  0.1274  0.2878
12557W        W28818   2.398  14.326   5.628 -0.0634  0.4003 -0.1369
12558W        W28819   7.307   3.732   2.710 -0.0660 -0.4229 -0.0267
12559W        W28820  15.357   2.045  12.683  0.0152 -0.2156 -0.1975
12560W        W28821   9.924   6.230  13.252 -0.0582 -0.3941 -0.0704
12561W        W28822   1.279   8.315  10.869 -0.0614 -0.2307 -0.0053
12562W        W28823  12.239   0.142  13.406  0.2312 -0.0972  0.0228
12563W        W28824  12.622   4.192   2.490 -0.1333 -0.0337 -0.3792
12564W        W28825  18.045   9.696   3.970 -0.1136  0.1720 -0.0221
12565W        W28826   8.821  17.999   3.122  0.1051 -0.2149  0.4219
12566W        W28827   5.814  18.551  15.484  0.1948 -0.2656  0.1944
12567W        W28828  12.935  13.172  11.950  0.4124 -0.4067  0.0826
12568W        W28829  16.774   5.183   2.167 -0.1890 -0.0531  0.0349
12569W        W28830   1.975  13.788   4.867  0.1696  0.3464  0.1643
12570W        W28831  10.460   0.872  14.443 -0.2532  0.0389 -0.2073
12571W        W28832   0.239   1.548   1.962  0.3056  0.2892 -0.0855
12572W        W28833   3.030   9.017   6.067 -0.0936 -0.2618 -0.0276
12573W        W28834  16.216   2.713  14.928  0.1988  0.1596 -0.2110
12574W        W28835  11.091  13.193  12.173  0.0991  0.1783 -0.1496
12575W        W28836  16.214  17.897   4.250 -0.2599  0.1761  0.0757
12576W        W28837  13.723  15.871  14.159  0.2042  0.3192 -0.1317
12577W        W28838  15.799   9.605  14.349  0.0825 -0.2341  0.1304
12578W        W28839   0.843  14.587  13.121 -0.2044  0.3572 -0.1323
12579W        W28840   9.212  17.067  12.953 -0.0944  0.0939 -0.0561
12580W        W28841  18.617  10.101  10.766  0.3935  0.0978 -0.0452
12581W        W28842   7.026   7.298   4.054  0.0008  0.2574 -0.0011
12582W        W28843   2.009   5.045  14.267 -0.2700 -0.2965 -0.0868
12583W        W28844  16.332   0.055  10.654  0.1589  0.0013 -0.5094
12584W        W28845   8.349  18.221  14.723  0.0645 -0.0341  0.3039
12585W        W28846   4.425   5.582   0.715 -0.1930 -0.0277  0.3083
12586W        W28847  11.705  13.779   0.263 -0.4100  0.1102 -0.1573
12587W        W28848  17.014  16.458  11.611 -0.3098  0.0243  0.0674
12588W        W28849  11.708  17.546  11.500  0.1860 -0.0339  0.2929
12589W        W28850  13.816   1.401   2.673 -0.1777  0.3487 -0.0162
12590W        W28851  13.802   9.449   0.024  0.2026 -0.2868  0.1423
12591W        W28852   7.227  13.643   2.847 -0.0008 -0.1232  0.1378
12592W        W28853  13.748  16.780  15.043 -0.1188  0.2273  0.0830
12593W        W28854   7.305   9.111   1.695  0.4420  0.1186  0.1294
12594W        W28855  11.256   1.169  11.932 -0.0974  0.2933 -0.1635
12595W        W28856  10.454   3.097   3.919  0.1043 -0.1252 -0.2341
12596W        W28857  15.031   6.628  12.321  0.0836  0.0839 -0.0861
12597W        W28858  10.506  14.500  14.101  0.0562  0.0525 -0.0556
12598W        W28859  14.120   5.906  12.906  0.1476  0.1239 -0.1322
12599W        W28860  10.180  11.673   2.878  0.1447 -0.2858  0.3199
12600W        W28861   0.890   0.455  13.030 -0.2658 -0.0336 -0.0619
12601W        W28862  18.140   9.843   2.089 -0.1422 -0.0642 -0.0031
12602W        W28863  11.025   6.744  15.547 -0.0765 -0.2411  0.1161
12603W        W28864   4.669  12.033   4.674 -0.1274  0.0449  0.1732
12604W        W28865   5.280  13.959  14.719 -0.0343  0.0941  0.2959
12605W        W28866   6.010   6.640   4.136 -0.0866  0.3050  0.0228
12606W        W28867   3.744   8.434  12.334 -0.1635 -0.0282  0.1232
12607W        W28868   5.205  14.826  11.282  0.1004  0.0288  0.5510
12608W        W28869   7.329   1.986  14.449 -0.2396  0.1291 -0.1077
12609W        W28870  15.490  12.875  15.200  0.1866 -0.2028  0.0494
12610W        W28871   2.800  16.731  13.643 -0.0817  0.1430 -0.2537
12611W        W28872  16.729  15.149   1.124  0.0486  0.1585 -0.0375
12612W        W28873  12.012   6.451  13.827  0.0559 -0.1248  0.4145
12613W        W28874  11.420   2.433  13.041 -0.0097  0.1974 -0.3632
12614W        W28875  18.344   8.795   2.409  0.0852  0.0603 -0.0141
12615W        W28876  15.881   7.454   0.152 -0.4190  0.2374 -0.0762
12616W        W28877   5.076   5.239   1.900  0.3254  0.0915  0.1009
12617W        W28878  14.360  16.874  12.287  0.0695  0.0607  0.1948
12618W        W28879  13.912   2.835   1.858  0.1635 -0.1499 -0.0015
12619W        W28880  14.564  14.245   1.555 -0.1709  0.3115 -0.2499
12620W        W28881  13.252  18.371  13.639  0.5498 -0.1790 -0.0921
12621W        W28882  14.462  18.068  14.845  0.0017 -0.2694 -0.1330
12622W        W28883  15.717   2.514  14.691  0.2131 -0.0452 -0.0570
12623W        W28884   4.483  15.344  15.487 -0.0855 -0.0384 -0.3939
12624W        W28885   4.317   2.740   3.395  0.1577 -0.0854  0.2085
12625W        W28886   3.404  17.230  11.195 -0.4284 -0.1052 -0.0410
12626W        W28887  13.066  12.406  11.829 -0.0531 -0.0272  0.4176
12627W        W28888  14.177   4.389   2.745  0.3591 -0.0504  0.1934
12628W        W28889  18.416  12.859  11.822 -0.1252  0.0555 -0.3120
12629W        W28890   6.759  14.249   4.056 -0.0225 -0.1723 -0.1654
12630W        W28891  10.202  17.745  15.630 -0.2405 -0.2711  0.2034
12631W        W28892  11.356   5.647  11.954  0.7586  0.0303 -0.4203
12632W        W28893   0.173   5.303  14.621 -0.0730 -0.0978  0.2987
12633W        W28894  17.076   0.253   3.515 -0.0306  0.0535  0.0321
12634W        W28895  14.152   3.790  11.569 -0.0689 -0.2137 -0.0611
12635W        W28896   7.178  14.239   0.039  0.3418  0.0701  0.1385
12636W        W28897   5.570   0.482  10.659 -0.1313  0.1191 -0.1003
12637W        W28898   4.565  10.073   0.256 -0.1699 -0.0072 -0.1997
12638W        W28899   6.255  17.839  13.772 -0.0643 -0.0838 -0.0201
12639W        W28900   8.964   8.503   2.400 -0.0911  0.1181  0.0972
12640W        W28901   5.425   9.962  11.336 -0.0858  0.0703 -0.0377
12641W        W28902   8.652   4.943  12.613 -0.1100 -0.2869 -0.1421
12642W        W28903  12.318   6.198  11.413 -0.2451 -0.0420  0.1511
12643W        W28904  15.502  12.041   4.386 -0.2281  0.2094 -0.0380
12644W        W28905   9.348  17.908   3.627  0.0709 -0.0023 -0.0289
12645W        W28906  12.286   6.684  13.251  0.1201 -0.1463  0.0316
12646W        W28907   0.485  12.295   5.383  0.1969 -0.2107 -0.2606
12647W        W28908   1.881  11.374  12.029 -0.1022 -0.0327 -0.0341
12648W        W28909   3.606   6.287   2.996  0.1044 -0.0160 -0.0665
12649W        W28910   6.228   8.054   4.704  0.1320  0.0947 -0.1632
12650W        W28911  11.931  12.842   2.319 -0.2357  0.0634 -0.0717
12651W        W28912   4.009   2.378   4.039  0.1209  0.0208 -0.0272
12652W        W28913  10.543   3.425  13.338 -0.3599 -0.5113  0.1812
12653W        W28914  18.190  15.981  15.196  0.1249  0.0790  0.0286
12654W        W28915  18.082  16.769   3.650 -0.0523 -0.3514  0.1435
12655W        W28916  16.205   6.671   0.159 -0.2750 -0.1602 -0.0334
12656W        W28917   8.346   5.824   4.520 -0.0957 -0.2388  0.2623
12657W        W28918   1.792  16.870  13.707  0.0429 -0.1238  0.2085
12658W        W28919   6.752   4.353   4.808  0.3228 -0.1345 -0.0560
12659W        W28920  12.872  18.823   0.058 -0.2049  0.0667 -0.3748
12660W        W28921   3.518   4.933  12.475 -0.2087  0.0185  0.4027
12661W        W28922   6.201  13.821  12.045  0.0666  0.1202 -0.3729
12662W        W28923   2.982  13.135  11.778 -0.1861 -0.0833 -0.1992
12663W        W28924  15.737  12.188   2.172  0.1080 -0.1164  0.4343
12664W        W28925   0.439   1.958   2.858 -0.1235 -0.1628 -0.0242
12665W        W28926   1.750  18.358   9.582  0.2022 -0.1686  0.1803
12666W        W28927  10.860  15.643  12.936  0.1610  0.0547  0.1199
12667W        W28928  10.604   8.357  14.896 -0.2341  0.0205 -0.4495
12668W        W28929   0.517  14.762   2.681  0.0816  0.0945  0.3005
12669W        W28930   7.359   7.107   2.271 -0.1091  0.0981 -0.0160
12670W        W28931   6.688   9.309   0.048 -0.4618 -0.0624  0.1360
12671W        W28932   0.861  12.419   0.518  0.3720 -0.2564  0.1257
12672W        W28933  16.027  17.166   4.182 -0.0338  0.0470 -0.2574
12673W        W28934   9.087  10.541  13.830  0.1735  0.3784 -0.0621
12674W        W28935   1.346   6.353  15.467  0.1686  0.1966  0.0315
12675W        W28936  11.191   8.801   4.205  0.0014  0.2066 -0.1518
12676W        W28937   5.566   2.155   4.066  0.2762 -0.2277 -0.0812
12677W        W28938  14.783   1.580  10.981  0.0634  0.0505  0.1387
12678W        W28939  13.746  16.926  14.390 -0.0962 -0.1167 -0.0742
12679W        W28940  17.998  15.427  11.900  0.1787 -0.0647  0.1002
12680W        W28941   7.830  15.269  14.882 -0.1319  0.2181 -0.2949
12681W        W28942   3.776  12.050  13.732 -0.0095  0.0686  0.1291
12682W        W28943  17.147   1.075  12.529 -0.1355  0.0364 -0.1447
12683W        W28944  13.135   6.140   0.389  0.1195  0.0415  0.1748
12684W        W28945  10.617   6.574  12.644  0.1766  0.1234 -0.1981
12685W        W28946   8.579  18.399  14.263 -0.1361 -0.3809 -0.2635
12686W        W28947   8.947  17.063  12.251 -0.1117 -0.2711  0.1297
12687W        W28948   0.554  18.621  12.885 -0.2939  0.0640  0.1070
12688W        W28949  11.580   5.668  11.517  0.0878 -0.0159 -0.1348
12689W        W28950  16.335  14.773  14.994 -0.1049 -0.1532 -0.0181
12690W        W28951  14.183   2.268   1.056  0.3003 -0.2420  0.0727
12691W        W28952   7.667  12.254  11.731 -0.1179 -0.1194  0.0475
12692W        W28953   3.519  13.254   1.241  0.1064 -0.2331 -0.2638
12693W        W28954  13.969   7.299   1.445  0.3521  0.1066 -0.0501
12694W        W28955   1.088  15.790   3.916 -0.1289  0.0062  0.0812
12695W        W28956   5.652   2.247  14.375 -0.0469  0.1830 -0.0212
12696W        W28957  15.587  15.031  15.312 -0.1389 -0.0812 -0.3431
12697W        W28958   7.517   6.331  14.674  0.0275  0.0824  0.0897
12698W        W28959   1.908   1.351   5.154  0.1543 -0.1871  0.0082
12699W        W28960  12.412  16.871   5.953  0.0069  0.0324  0.2104
12700W        W28961  15.865   0.109   3.269  0.1971 -0.4307 -0.0149
12701W        W28962   9.447  12.818   5.055 -0.0410  0.1016  0.1086
12702W        W28963   1.733   7.318   5.129 -0.1382  0.1906  0.0713
12703W        W28964  14.720  13.856   0.588  0.0033 -0.1973 -0.2727
12704W        W28965  11.919   5.247  13.859 -0.2569 -0.1873 -0.2192
12705W        W28966  14.937   5.912   4.908  0.1123  0.2808  0.2798
12706W        W28967  17.479   2.235   3.428  0.0762  0.0745  0.1224
12707W        W28968   6.520  14.569  13.293  0.3239  0.0893  0.2114
12708W        W28969   0.545   1.256   1.080  0.1048 -0.1104  0.0854
12709W        W28970  16.786   1.181   5.702  0.1895  0.1718 -0.1980
12710W        W28971   6.389   8.324  15.306 -0.3180 -0.0669  0.0657
12711W        W28972   7.225  13.027   2.430 -0.0912  0.1178 -0.0963
12712W        W28973   3.715  12.926   4.605  0.2202  0.3074 -0.1191
12713W        W28974   9.789   4.173  15.417  0.0508 -0.2303  0.1828
12714W        W28975   7.909   3.915  11.669  0.0047  0.0855 -0.3271
12715W        W28976  14.727   6.814  12.714  0.3037  0.1100  0.0844
12716W        W28977   8.393  11.223  15.080 -0.1554 -0.1600 -0.0150
12717W        W28978   7.830  18.255   0.925  0.0077  0.4783 -0.3513
12718W        W28979   7.915  18.113   4.138  0.0275  0.0220  0.2574
12719W        W28980   2.918  14.088   2.196  0.0093  0.0148  0.0195
12720W        W28981  14.977   4.185  12.314  0.0959 -0.1576 -0.4656
12721W        W28982  14.382   8.915   5.184  0.0113  0.3358  0.4276
12722W        W28983  10.548   2.128   2.922 -0.2786  0.1463 -0.1537
12723W        W28984  14.599   7.369  12.460  0.0242 -0.1887 -0.0963
12724W        W28985  16.990  15.654   5.364 -0.0691  0.0817 -0.0061
12725W        W28986   8.545   7.117  14.233 -0.0119 -0.0429 -0.1942
12726W        W28987   3.902  11.769  11.115  0.1110 -0.1503  0.0532
12727W        W28988  12.225   6.833   1.193  0.3787 -0.2254  0.1739
12728W        W28989   4.711   3.350  14.854 -0.0413  0.1336 -0.0587
12729W        W28990  18.669   0.423   0.827  0.0853 -0.2018 -0.1057
12730W        W28991   7.175   8.162   5.532 -0.5269  0.1827 -0.0673
12731W        W28992   3.074   4.363  13.476 -0.3388  0.1081 -0.0513
12732W        W28993  13.361  17.319  10.933  0.0806  0.1037 -0.0097
12733W        W28994   4.847  16.779   1.032  0.1154 -0.0036  0.2109
12734W        W28995   7.861  17.589   0.573  0.1767  0.4113  0.0642
12735W        W28996   7.991   9.323   3.716 -0.1511 -0.1197  0.2211
12736W        W28997  16.260   2.085  13.765 -0.2060 -0.2862 -0.2689
12737W        W28998  14.751  18.809  12.102 -0.0299  0.2659  0.1013
12738W        W28999  15.728   8.313  15.227  0.1566 -0.1118 -0.2204
12739W        W29000  12.178   4.702  15.230  0.0761  0.0406 -0.0402
12740W        W29001   1.454  17.135  13.459 -0.3076  0.1479 -0.2949
12741W        W29002  12.535   2.984   2.211 -0.0489 -0.1102  0.1827
12742W        W29003   9.699  17.042   0.880 -0.2604  0.0470  0.1413
12743W        W29004  10.676  11.835   3.518 -0.0116  0.2314 -0.0716
12744W        W29005   8.113  16.579   4.182 -0.1980 -0.2627 -0.0179
12745W        W29006   8.439   5.782  12.711  0.0934 -0.3571  0.0035
12746W        W29007  12.608   3.739   1.726  0.1308 -0.1425 -0.0838
12747W        W29008  13.849   5.783   2.898  0.0492 -0.2202 -0.3625
12748W        W29009  12.476  17.505  10.785  0.1228  0.1437  0.1240
12749W        W29010  16.466  14.550  11.843  0.0125 -0.2628 -0.3417
12750W        W29011  11.264  16.465  11.093 -0.0142  0.0653 -0.0184
12751W        W29012   1.841  18.319  14.146  0.1884  0.2239 -0.0954
12752W        W29013  14.019   6.575  14.589 -0.0385 -0.0484  0.2041
12753W        W29014   2.336   5.217   4.010  0.0759 -0.0076  0.0403
12754W        W29015   9.067   6.183  11.491  0.0870 -0.2703 -0.3965
12755W        W29016   7.865   4.533  15.290  0.3122  0.0295  0.1481
12756W        W29017   8.627  15.603  12.141  0.1098 -0.0632  0.3378
12757W        W29018  10.291   5.108  11.626 -0.2185  0.2819 -0.0669
12758W        W29019   8.923  11.276   4.935  0.1809  0.6835  0.0659
12759W        W29020   5.696  16.350   2.633  0.2073  0.0761  0.0079
12760W        W29021  11.907   7.117   0.002 -0.0383 -0.4259  0.3037
12761W        W29022   9.295  17.856  15.276 -0.0003  0.2348  0.3541
12762W        W29023  14.896  13.220   5.314  0.3060 -0.0137 -0.2118
12763W        W29024   7.978   7.074   3.137 -0.0666  0.0392 -0.0510
12764W        W29025   8.516   4.867   4.999 -0.2385  0.3000  0.1691
12765W        W29026   6.629   7.599  14.387 -0.2995 -0.1592  0.2920
12766W        W29027  11.962   1.664   4.549 -0.1992 -0.2073  0.0860
12767W        W29028   9.260   6.184  12.940 -0.0183  0.2625 -0.0918
12768W        W29029  16.197   7.388  12.334 -0.1799 -0.2016  0.2262
12769W        W29030   1.757   6.360  15.210 -0.0484  0.1809 -0.0569
12770W        W29031  13.372   1.816   3.112 -0.4479 -0.0980 -0.0488
12771W        W29032  12.490  13.001   4.296 -0.5815 -0.0930  0.0850
12772W        W29033   9.222   2.793  12.532 -0.3342 -0.0712  0.4481
12773W        W29034   9.772   7.962  11.682 -0.5263  0.1621 -0.1158
12774W        W29035   2.211  15.454  13.101  0.1444  0.0619  0.0523
12775W        W29036   6.011   3.011   1.433  0.3644  0.2279 -0.2113
12776W        W29037  18.008   5.429  13.436  0.3356 -0.1136  0.0097
12777W        W29038   7.337   9.908   3.787 -0.1816 -0.0661 -0.1062
12778W        W29039   8.440  12.342   4.860  0.4627  0.1398  0.0879
12779W        W29040   3.887  18.532  12.608  0.1211  0.2771 -0.2790
12780W        W29041  14.284   1.744  14.165 -0.0939 -0.1355 -0.3657
12781W        W29042   8.254  13.134  12.725  0.0387 -0.0755  0.0214
12782W        W29043   1.367  16.651   2.693  0.1912  0.2257 -0.2003
12783W        W29044  15.820  11.247   3.383 -0.0805 -0.0237  0.1259
12784W        W29045   0.686  12.723  14.440 -0.1543  0.0025  0.2475
12785W        W29046  16.318  18.702  12.406 -0.0238 -0.0044 -0.2122
12786W        W29047  15.766  11.489  12.540 -0.1035  0.2352 -0.2723
12787W        W29048   2.773  15.038   1.292 -0.0683 -0.0180  0.0974
12788W        W29049   3.587  17.170  12.154 -0.4311  0.0016 -0.0338
12789W        W29050   7.972   6.185  11.843 -0.0946  0.0112  0.1188
12790W        W29051   3.586   3.434   4.504 -0.1817 -0.2505 -0.1280
12791W        W29052   1.467   1.209  13.487 -0.0300 -0.0764  0.1623
12792W        W29053  17.256  16.490  11.006 -0.1975 -0.1413 -0.1037
12793W        W29054   5.327   0.438  14.010 -0.3113  0.0007  0.1457
12794W        W29055  13.917  17.361   2.541  0.1954  0.0280  0.3323
12795W        W29056   2.172  12.278   0.915 -0.2473 -0.3260 -0.2526
12796W        W29057   1.917  16.167   3.557 -0.0928  0.1231 -0.0515
12797W        W29058  13.638  12.913   1.444 -0.0789 -0.1136 -0.1942
12798W        W29059   9.319  15.748   2.292 -0.3643  0.0968  0.2036
12799W        W29060   3.778   5.163   5.475 -0.1321  0.4128  0.0564
12800W        W29061  11.474  15.200  10.825 -0.0893 -0.0988  0.0527
12801W        W29062   5.299   2.030  14.756  0.0236  0.4223  0.1264
12802W        W29063   6.425   1.308  11.180  0.1820  0.2797  0.2087
12803W        W29064   8.629  15.048   3.785 -0.3853 -0.1610  0.2292
12804W        W29065   7.100  14.631  14.069 -0.1492 -0.0748 -0.1302
12805W        W29066   8.758   6.438  14.917  0.1601 -0.1637 -0.0502
12806W        W29067  18.433   8.199   4.374 -0.1822 -0.0192 -0.3243
12807W        W29068   7.157  15.086   0.633 -0.1505 -0.2774 -0.0008
12808W        W29069  17.931   2.582  14.168 -0.1992  0.1089 -0.3690
12809W        W29070   0.320   9.841  15.008  0.2498 -0.0658  0.0313
12810W        W29071   2.195  11.714   2.149  0.0353  0.2384  0.1722
12811W        W29072  14.479  11.848   4.645 -0.2568  0.0535 -0.1444
12812W        W29073   5.832  10.302  12.765  0.0503 -0.1109  0.1049
12813W        W29074   9.961   0.926  10.633  0.1311 -0.2015  0.1078
12814W        W29075   6.671  10.114  12.475 -0.3686  0.2071  0.3906
12815W        W29076   8.767   8.712   4.343 -0.0445 -0.2811 -0.2590
12816W        W29077  17.693   2.705  12.659  0.1415  0.0880  0.1623
12817W        W29078  10.985   7.614   3.644  0.1781 -0.0362  0.1732
12818W        W29079  18.485  11.611   0.590  0.2228 -0.2545  0.0379
12819W        W29080   0.659   0.436   0.108 -0.2004  0.0490 -0.0514
12820W        W29081   9.588   2.840  11.864 -0.1906  0.0923 -0.3607
12821W        W29082   1.044  12.360   2.576  0.1891 -0.3690  0.0066
12822W        W29083   9.997   1.621   5.373  0.0462 -0.4527 -0.0331
12823W        W29084  17.473   2.262  13.872  0.3157  0.1102 -0.2119
12824W        W29085   4.363   9.432  15.426 -0.1421 -0.1559 -0.2306
12825W        W29086  17.380  10.965   2.398  0.0511 -0.0022 -0.0797
12826W        W29087   9.618  14.152   2.076  0.3530  0.3684 -0.1290
12827W        W29088  17.296   4.587  12.857 -0.1139  0.1159  0.1067
12828W        W29089  11.259   9.030   2.859 -0.3805  0.5198 -0.1439
12829W        W29090  14.062  16.581  14.671 -0.1695  0.1804  0.0257
12830W        W29091   7.377   2.494   0.292 -0.0618  0.0113  0.2698
12831W        W29092   7.355  14.085  13.007 -0.0683 -0.2320  0.4180
12832W        W29093  10.203  10.977   4.545 -0.2253 -0.1518 -0.0055
12833W        W29094  15.621  17.180   3.816  0.1875  0.1757  0.3028
12834W        W29095   0.910  12.963   1.911 -0.2427 -0.0212  0.0912
12835W        W29096  16.811  13.452   0.793  0.1003  0.2031  0.0830
12836W        W29097   4.341   3.014  14.983  0.2843 -0.0217 -0.4120
12837W        W29098  15.990   6.644   4.066 -0.1483 -0.0492 -0.0896
12838W        W29099   6.771  14.221   0.328  0.1565  0.1360  0.1075
12839W        W29100   8.923  10.221   2.367 -0.5610 -0.2980  0.3179
12840W        W29101   4.927   4.440  14.941 -0.0583 -0.0320  0.1812
12841W        W29102   1.916   7.793   2.343  0.2678  0.0026 -0.1819
12842W        W29103  15.750   2.288  12.558  0.2964  0.1703 -0.1448
12843W        W29104  13.868   2.012   4.204 -0.4871 -0.3607  0.1707
12844W        W29105   8.923   7.210   3.576  0.0080  0.0594 -0.0851
12845W        W29106   1.069  13.671  14.215 -0.1092 -0.2963  0.0445
12846W        W29107  11.285   5.368   5.671  0.0203  0.0332 -0.2593
12847W        W29108   0.964  15.746  10.691  0.3277  0.0331  0.0587
12848W        W29109   3.162   4.150  14.239  0.1069  0.0796 -0.2159
12849W        W29110   6.185  10.723   0.413 -0.0207 -0.1053  0.0857
12850W        W29111  18.735   8.557  14.394 -0.0192  0.0981  0.2042
12851W        W29112  11.420  10.768  13.550 -0.0141 -0.2110 -0.0175
12852W        W29113  11.871  14.422  12.744 -0.0835 -0.0439  0.1159
12853W        W29114  15.661  14.801  11.320  0.0894 -0.1704  0.1231
12854W        W29115  18.105   8.748   4.599 -0.3222  0.2035 -0.1451
12855W        W29116  15.821  11.292   1.692  0.1353  0.1848 -0.0274
12856W        W29117  12.887  15.731  11.169  0.0445  0.1281 -0.3318
12857W        W29118  16.720  10.736   2.855 -0.0821  0.0082 -0.1039
12858W        W29119  11.292  11.667  15.600  0.0386  0.1069  0.4317
12859W        W29120   0.767  10.325   1.879  0.0301 -0.0127  0.2313
12860W        W29121   3.664  18.229   2.501 -0.2587 -0.1627  0.0253
12861W        W29122  16.279  16.935  12.045 -0.5311 -0.1381  0.2890
12862W        W29123  12.204  16.810   4.352 -0.2655  0.1575  0.2695
12863W        W29124  18.652  12.417  13.582  0.3900 -0.1514 -0.0171
12864W        W29125  11.130   1.993   4.948  0.1430 -0.1908 -0.1077
12865W        W29126  11.688  14.946  13.841  0.0905  0.0272 -0.1150
12866W        W29127   3.457   5.043   0.568  0.5281  0.0956  0.0762
12867W        W29128  12.469  14.223   0.436  0.2579  0.1893  0.0675
12868W        W29129  10.502   6.466  11.390 -0.0617  0.2185  0.0944
12869W        W29130  11.970  10.072   0.595  0.0845 -0.0175 -0.1686
12870W        W29131  10.200   8.164  12.888  0.0269  0.2374  0.1433
12871W        W29132   9.373  10.430  12.724 -0.0539 -0.0555 -0.0450
12872W        W29133   4.348   9.341   4.727  0.0637  0.0076 -0.1258
12873W        W29134   3.909  10.067  12.459 -0.1936 -0.1444  0.2440
12874W        W29135   5.764   3.693   2.469 -0.3012 -0.1946  0.2646
12875W        W29136  17.770  14.070   5.298  0.1629 -0.2204 -0.2901
12876W        W29137   7.709   8.968  15.540 -0.2658  0.0444 -0.2937
12877W        W29138   6.595   3.446  11.570 -0.2385  0.0165 -0.0265
12878W        W29139   6.329  11.530   5.038 -0.0351 -0.4235  0.0673
12879W        W29140   9.092  12.696   3.346 -0.2289  0.0398 -0.0583
12880W        W29141  11.581   6.433   5.232 -0.3010 -0.1446  0.2318
12881W        W29142   6.024  10.891  11.894  0.1045 -0.3898  0.1207
12882W        W29143  15.952  13.457   0.937  0.0873 -0.2734  0.3217
12883W        W29144  12.794  17.736   1.132  0.2090 -0.4377 -0.0072
12884W        W29145  15.959   7.849   3.357 -0.1068  0.2310  0.2367
12885W        W29146  11.709  14.699  12.364  0.2565 -0.0111  0.0029
12886W        W29147   8.722   5.581   5.794 -0.0144 -0.4473  0.1054
12887W        W29148   4.190  11.661  12.124  0.2945  0.0988  0.2103
12888W        W29149   6.433   4.150  11.799  0.1484  0.2795  0.0162
12889W        W29150  11.284   9.109  11.311 -0.0872  0.5148  0.0469
12890W        W29151   6.163   5.078   6.526 -0.2067 -0.0163 -0.0275
12891W        W29152   2.229   4.976  12.140  0.1087 -0.1708  0.0083
12892W        W29153   2.689   6.318   4.747  0.0613 -0.0043  0.1230
12893W        W29154   8.073   6.108  14.405 -0.0230 -0.0361 -0.2358
12894W        W29155  17.108   2.014  13.548  0.0638 -0.5130  0.2397
12895W        W29156   4.919   0.953   4.605  0.1265  0.0544  0.2693
12896W        W29157   7.599   5.347   5.836 -0.0763  0.3074  0.1719
12897W        W29158   1.850  14.146  13.221 -0.1078  0.0101 -0.1806
12898W        W29159   1.360   9.709   2.799  0.0661 -0.0718  0.0318
12899W        W29160   9.352  12.501   0.531 -0.0480  0.0425 -0.0927
12900W        W29161   4.897   1.509   4.549 -0.1125 -0.2678  0.4658
12901W        W29162  13.563   0.974  13.370  0.3034  0.2050  0.1029
12902W        W29163   3.029  14.673  11.575  0.0925 -0.3511  0.1350
12903W        W29164   6.628   2.211  12.200 -0.0171 -0.2607  0.0572
12904W        W29165   9.472   4.437  14.668 -0.1267 -0.3647  0.1816
12905W        W29166   3.158  11.359  12.693 -0.0227  0.2804  0.2110
12906W        W29167   4.651   6.542  15.568 -0.0634  0.1263 -0.1490
12907W        W29168  16.865   1.886   0.834  0.0422  0.2086 -0.1079
12908W        W29169   7.065  10.195   4.806  0.1155 -0.2617  0.2193
12909W        W29170   7.905  18.821   2.600  0.1762 -0.3414  0.0475
12910W        W29171   5.577   4.014  12.011 -0.1000 -0.0295  0.0070
12911W        W29172  16.605   9.202  14.452  0.1608 -0.1291 -0.0516
12912W        W29173   5.287   9.102  13.437  0.0341  0.0980 -0.3590
12913W        W29174   9.756   5.146   5.289  0.4690 -0.2051 -0.1006
12914W        W29175   5.164   6.972   1.716  0.0464 -0.1830  0.1854
12915W        W29176  17.011  16.665  12.666 -0.4834  0.1394  0.2445
12916W        W29177   6.816   1.143   1.612  0.1037  0.1022 -0.0134
12917W        W29178   4.550   9.894   0.718 -0.0576  0.3332 -0.1159
12918W        W29179  14.404   5.855   5.147 -0.1925 -0.1254 -0.0460
12919W        W29180  18.310  11.447   4.627 -0.2756  0.1182  0.0513
12920W        W29181  10.868   8.664  14.240 -0.0500  0.1940  0.0737
12921W        W29182  16.649   3.244   2.904 -0.0020  0.1361  0.0753
12922W        W29183  12.247  14.791  13.866 -0.0375  0.2362  0.2558
12923W        W29184  16.233  15.842   0.447 -0.1485 -0.0869  0.0542
12924W        W29185  13.920  13.638  15.125 -0.5667 -0.2447  0.0709
12925W        W29186   8.163  12.174  11.348  0.0806 -0.2320  0.1423
12926W        W29187   0.428  18.429   4.083 -0.4157 -0.1143 -0.0421
12927W        W29188   8.599   6.132   0.083  0.1444 -0.0452  0.2105
12928W        W29189  10.238   1.313  11.174 -0.2242 -0.0997 -0.1072
12929W        W29190  18.767   6.401   3.798 -0.1255 -0.3418 -0.0514
12930W        W29191   1.619  18.490   3.344  0.1755 -0.1503 -0.0628
12931W        W29192   5.017  12.436  13.959 -0.2210  0.0661 -0.3378
12932W        W29193   7.850  17.532  15.223  0.1306  0.0758  0.0151
12933W        W29194  10.317   0.968  12.033 -0.2495  0.1587 -0.0483
12934W        W29195  17.165   9.418   1.568 -0.0805  0.0343 -0.2924
12935W        W29196   0.627   1.557   4.916  0.0314 -0.2069  0.1340
12936W        W29197  18.820   4.316  10.411 -0.0638 -0.0360  0.3398
12937W        W29198   5.130  14.702  11.710  0.0328 -0.1357 -0.3091
12938W        W29199   5.186   7.975   3.469 -0.0149 -0.0269  0.1487
12939W        W29200   3.104  16.602   1.157 -0.2440  0.1847 -0.0740
12940W        W29201   6.561  18.157   0.980 -0.1266 -0.1338 -0.1724
12941W        W29202   3.315  16.126  15.573  0.0002 -0.1931  0.4140
12942W        W29203   8.872  17.857  13.457 -0.1260 -0.0856 -0.2401
12943W        W29204  15.618   8.537  12.623 -0.1535  0.1319  0.2698
12944W        W29205  18.287  11.679   0.031  0.3185 -0.0261 -0.0064
12945W        W29206   8.647   5.199  10.741 -0.0507  0.0595  0.3774
12946W        W29207   2.280  17.000   1.770  0.0371 -0.1576  0.0689
12947W        W29208   9.690  15.706   1.357 -0.1885  0.1960  0.0224
12948W        W29209   6.341  12.629  12.694 -0.0882  0.0051 -0.0505
12949W        W29210   3.447   9.564  11.658  0.0256 -0.2336  0.1860
12950W        W29211  12.689  18.304  11.972 -0.1258 -0.1602 -0.3089
12951W        W29212   5.107  12.803  13.063 -0.1870 -0.3169 -0.1032
12952W        W29213   0.274   1.704   0.912  0.1037 -0.1740  0.2646
12953W        W29214   7.299  18.016  15.610  0.2374 -0.2905 -0.3757
12954W        W29215  11.349  13.403   4.623  0.0794 -0.1469 -0.0489
12955W        W29216   3.023   1.520  13.724  0.1364  0.0007  0.0592
12956W        W29217   8.741   5.545   3.818  0.0210 -0.5608  0.1975
12957W        W29218   4.697  15.451   3.125  0.0237  0.1179 -0.0159
12958W        W29219  12.575  14.768  13.405  0.0340 -0.1957 -0.3221
12959W        W29220   9.902   3.699  14.782 -0.1734  0.2659  0.2964
12960W        W29221   6.776  15.528   1.337  0.0270  0.0661  0.0910
12961W        W29222   3.170   6.490   3.119  0.1323 -0.2608  0.0558
12962W        W29223   3.235  17.609   5.537  0.0225 -0.1301 -0.1161
12963W        W29224  17.644  13.531  15.140  0.0427 -0.0453  0.0687
12964W        W29225  13.883  17.778  13.253  0.0887 -0.0397  0.5748
12965W        W29226   3.990   4.617  12.457  0.3495  0.0492 -0.0392
12966W        W29227  13.085  15.019   4.087 -0.5651 -0.2038 -0.0994
12967W        W29228  11.415  11.128  15.037  0.1494  0.1496 -0.0301
12968W        W29229   0.665  10.231   5.153  0.0393  0.1338  0.0666
12969W        W29230  16.548  16.060  12.857  0.1202 -0.3366  0.2925
12970W        W29231  10.280  15.789  11.763  0.0088 -0.4044  0.2377
12971W        W29232  12.308  17.422   3.742 -0.2223  0.1626 -0.0796
12972W        W29233  13.575  16.123  12.049 -0.1381 -0.3138  0.0202
12973W        W29234  12.052   2.573  15.169  0.0355 -0.1679 -0.0292
12974W        W29235   8.212  13.638   1.173 -0.2689 -0.5655  0.0472
12975W        W29236  14.882   7.949   4.163  0.1234  0.0488  0.1673
12976W        W29237  16.156  18.056  10.980  0.0027 -0.1925 -0.0379
12977W        W29238  10.418   5.634   1.499  0.0093  0.3246  0.2265
12978W        W29239   7.724   9.504  11.314  0.0312  0.2603 -0.2321
12979W        W29240   8.085  16.143   4.638  0.1397 -0.0656  0.0558
12980W        W29241   4.280   2.553   2.158 -0.0372 -0.3951  0.1024
12981W        W29242   2.257  10.357  15.504  0.0725 -0.4769 -0.0235
12982W        W29243  14.969   2.805   3.138 -0.2868 -0.0169 -0.2558
12983W        W29244  18.470  16.054  15.590 -0.0625 -0.1335  0.1597
12984W        W29245  15.570   4.422  15.064 -0.1168  0.1155 -0.2811
12985W        W29246   6.098   2.075   2.859 -0.1372 -0.0544  0.2749
12986W        W29247   9.742   8.948  11.841 -0.1378 -0.2908  0.2035
12987W        W29248   2.126  12.704  14.406  0.2073  0.3696 -0.0823
12988W        W29249   4.684  10.652   0.909 -0.3118  0.2856 -0.0314
12989W        W29250  15.612   0.256   1.452 -0.0325 -0.0766  0.0183
12990W        W29251   6.543   9.143   4.022 -0.0825  0.1832 -0.1686
12991W        W29252  15.650   5.204   3.009  0.0976 -0.4184 -0.2050
12992W        W29253  12.168   7.633   3.985 -0.3738  0.1357  0.1557
12993W        W29254   4.159  18.127  11.020 -0.2376 -0.2846 -0.1946
12994W        W29255   2.500   6.825   2.659  0.1870  0.5952  0.2431
12995W        W29256   6.250   9.006  11.840  0.2283  0.2292  0.1184
12996W        W29257  12.640  16.841  10.390  0.4447  0.1225 -0.0785
12997W        W29258  17.214  12.044   3.412  0.1252  0.0966 -0.3917
12998W        W29259  15.856   1.156  14.610 -0.1942  0.2811  0.1498
12999W        W29260  11.999  11.185  11.903  0.1009 -0.0436 -0.2037
13000W        W29261  17.484   7.732   2.129 -0.2326  0.3119  0.0399
13001W        W29262  10.921   3.749   3.326 -0.1367  0.1315  0.1849
13002W        W29263  18.158  16.443  15.409  0.1520  0.0809 -0.0891
13003W        W29264   9.771  11.283  12.130  0.2555  0.2327  0.0620
13004W        W29265  18.370   3.220   1.696 -0.2872  0.1115  0.0536
13005W        W29266   7.553  11.202   3.707 -0.2248 -0.0224 -0.1256
13006W        W29267   8.184   3.195   4.274  0.0505  0.2222 -0.2021
13007W        W29268   6.002  14.333   5.561  0.5038  0.1711  0.1833
13008W        W29269  12.637  18.137   3.545  0.1126 -0.1249 -0.1135
13009W        W29270  12.707   2.860  12.200  0.0115 -0.1153  0.4113
13010W        W29271   1.062   7.509  13.488 -0.1374 -0.1291 -0.0384
13011W        W29272  12.920   0.507  13.577 -0.1778 -0.1798  0.3687
13012W        W29273  12.376   9.027  12.085 -0.0896 -0.1439  0.0639
13013W        W29274   9.306  13.118  13.917  0.0760  0.1784 -0.0976
13014W        W29275  11.040  10.548   4.783 -0.0631  0.0068  0.4191
13015W        W29276  13.956  14.940  14.489  0.1764 -0.0747 -0.1608
13016W        W29277   0.536   7.270  11.075  0.1270  0.3703  0.1022
13017W        W29278   2.126  14.572  11.299  0.1505  0.5146 -0.3075
13018W        W29279  18.436  12.308  10.145 -0.0632 -0.1498  0.0312
13019W        W29280   6.633  14.169  15.477  0.0176  0.0687  0.0583
13020W        W29281   4.137  17.789   4.044 -0.1816 -0.1430 -0.0843
13021W        W29282  11.084  10.095  11.840 -0.3472 -0.1239 -0.2487
13022W        W29283  12.158  11.180  15.170 -0.1321  0.1704 -0.0050
13023W        W29284  16.523   0.391   0.935  0.1289  0.0660 -0.2795
13024W        W29285  10.530   5.589   1.007 -0.0067  0.3293 -0.0292
13025W        W29286  12.112  17.651  15.424 -0.0821 -0.3089 -0.2218
13026W        W29287   0.353   0.229   1.084  0.0684 -0.0344  0.0350
13027W        W29288   9.196   4.022   3.655  0.0538  0.1199 -0.4154
13028W        W29289   3.763  12.733   5.889  0.3117 -0.0289 -0.2930
13029W        W29290  14.610   6.804   0.067 -0.0487  0.0094  0.1079
13030W        W29291   1.851   6.873   0.422 -0.0330 -0.1406  0.3858
13031W        W29292  17.024  11.101  13.876 -0.2790  0.1533 -0.1436
13032W        W29293  18.548   9.272   0.416 -0.0347  0.0456  0.2574
13033W        W29294   1.444  16.422  12.321 -0.0174  0.0919  0.3260
13034W        W29295   5.145  18.810   1.913  0.0465  0.1262  0.0903
13035W        W29296   2.217  13.582  11.370 -0.1249 -0.1445  0.1004
13036W        W29297   7.950  12.251  12.614 -0.0920  0.3266 -0.1010
13037W        W29298  16.328   7.197   0.075  0.0476  0.1927  0.1195
13038W        W29299   5.689   3.523   1.974  0.4367  0.0837 -0.0284
13039W        W29300   6.835   5.926  11.867 -0.2357  0.1358  0.2332
13040W        W29301   5.849   4.915   2.487 -0.1040 -0.0715 -0.2830
13041W        W29302  14.136  11.929  14.700 -0.0387  0.0579 -0.1856
13042W        W29303  13.794  11.789   3.378  0.1425  0.3531  0.1799
13043W        W29304  15.408   3.834   0.277 -0.1259 -0.0784 -0.3468
13044W        W29305   1.217  12.788  13.688  0.3946  0.1729 -0.0703
13045W        W29306  13.752   6.484  15.150 -0.0911 -0.0481 -0.0638
13046W        W29307  14.878  10.199   0.647  0.0538  0.1300  0.0332
13047W        W29308   0.273   2.532  14.754 -0.1169  0.0694  0.1919
13048W        W29309  18.481  13.667   1.302 -0.0334  0.0858 -0.0540
13049W        W29310   7.879  17.815   0.033  0.3486 -0.1285 -0.1238
13050W        W29311   6.045   2.644  14.285 -0.0771  0.0291  0.0207
13051W        W29312   8.915   7.352  14.562  0.0751  0.0567  0.2409
13052W        W29313   2.223   2.336   1.696 -0.0602 -0.2651  0.2015
13053W        W29314   1.042   6.183   0.783 -0.1168 -0.3783  0.0027
13054W        W29315   8.611  13.408   2.608 -0.0786 -0.1160 -0.1099
13055W        W29316   5.582  17.376  14.038  0.1541 -0.0311 -0.0012
13056W        W29317   2.369  12.667   2.850 -0.1054  0.0445 -0.2511
13057W        W29318   6.478  14.259   2.549 -0.1603 -0.3860  0.0980
13058W        W29319  12.554   5.152  14.299 -0.2615  0.2367  0.2358
13059W        W29320  18.137  14.113   2.124  0.2153  0.0278  0.0426
13060W        W29321  17.411   3.825  10.816 -0.0766 -0.1131  0.0108
13061W        W29322   7.150   0.313   1.243 -0.1347  0.2346  0.3434
13062W        W29323  14.908  14.983  14.577  0.1642  0.2264  0.1875
13063W        W29324   5.932  13.823   4.088  0.1688  0.1341 -0.2986
13064W        W29325  18.508   5.385   0.497 -0.4628 -0.0665 -0.0007
13065W        W29326   4.990  16.017   3.448 -0.1590 -0.2161 -0.0918
13066W        W29327   5.462  13.117   1.768  0.0258  0.1582  0.4194
13067W        W29328  18.385   6.871   3.638 -0.3401 -0.1699 -0.0122
13068W        W29329   6.526  11.408   5.861  0.0751  0.3659  0.0385
13069W        W29330   5.683   8.834   1.653  0.0103 -0.1078 -0.1014
13070W        W29331  18.171   9.273  11.740 -0.2631  0.0327  0.1359
13071W        W29332   8.410   1.614   0.716  0.1797 -0.1029 -0.0366
13072W        W29333  12.088   8.840   2.803  0.0895 -0.0118  0.1175
13073W        W29334   8.571   3.996   0.618 -0.0824 -0.0779 -0.0599
13074W        W29335  17.523   8.559   0.456 -0.1616 -0.3292  0.0315
13075W        W29336   0.383  14.150  11.513 -0.1614 -0.2443  0.0426
13076W        W29337  17.306  16.352   1.226 -0.3405 -0.2634  0.2534
13077W        W29338  13.120  18.285   2.836 -0.0209 -0.2098  0.2531
13078W        W29339   0.607  16.367   2.100 -0.0525  0.0692 -0.2438
13079W        W29340   2.129  18.003   3.436 -0.2205 -0.0250  0.0800
13080W        W29341   1.063  15.215   4.464  0.3768  0.1548  0.2538
13081W        W29342   0.809  16.959   0.017  0.0821 -0.0972 -0.0086
13082W        W29343  15.782  17.725   2.454  0.2196 -0.3612 -0.3988
13083W        W29344   6.299   1.970   2.026  0.1016  0.1256 -0.4064
13084W        W29345  17.021   9.097  10.692  0.0466 -0.1311  0.1017
13085W        W29346   7.406   3.567   1.464  0.0232  0.2530 -0.0498
13086W        W29347  15.802   4.503   4.633 -0.0480  0.0553 -0.0873
13087W        W29348   4.896   1.717  15.345 -0.0174 -0.0387 -0.1109
13088W        W29349  14.186  13.620  10.641  0.3877 -0.0864 -0.0372
13089W        W29350  18.592   2.160  11.896  0.2784  0.1243 -0.0722
13090W        W29351  10.011   0.865   0.375 -0.4929  0.0330  0.1384
13091W        W29352  14.400   6.788   4.686  0.2231  0.2307  0.2462
13092W        W29353  10.757  11.317   2.854  0.1606 -0.1539  0.1710
13093W        W29354  13.406  12.921   4.288 -0.1379 -0.0004  0.0084
13094W        W29355  13.978  15.083   4.241 -0.0153 -0.0309 -0.0717
13095W        W29356   4.556   0.409   0.523 -0.0002  0.4278  0.0731
13096W        W29357   2.549   7.646  12.331  0.5780  0.1169  0.1153
13097W        W29358  18.474   8.519  14.933 -0.4650  0.3019  0.4141
13098W        W29359  11.123   3.663  13.562  0.2544 -0.3980  0.3795
13099W        W29360   0.908   5.354  13.568  0.2016  0.2533  0.1044
13100W        W29361  15.882  15.759  13.990  0.1200 -0.2377  0.0965
13101W        W29362  12.179  13.475  14.938 -0.1381  0.0559 -0.4438
13102W        W29363   7.450  11.535  12.815 -0.0780  0.0249  0.3202
13103W        W29364  17.690   2.443   1.704  0.4955  0.1151 -0.0322
13104W        W29365   2.703   3.583   2.473 -0.1372  0.0293 -0.1124
13105W        W29366  15.217   8.860   3.609 -0.0722  0.1811  0.0962
13106W        W29367   0.327   7.876   4.256  0.1428  0.1452  0.1407
13107W        W29368  11.069  11.071  13.253  0.2629  0.1782 -0.3637
13108W        W29369  16.817  12.032   5.777  0.2241  0.0239  0.0675
13109W        W29370   6.318   6.657   2.987  0.0217  0.0827  0.0356
13110W        W29371  10.982  17.354  15.232 -0.1775  0.1285  0.0062
13111W        W29372  15.058  18.618   2.823 -0.1488  0.0613  0.2049
13112W        W29373  15.148  17.331  10.949 -0.1897  0.1552 -0.1073
13113W        W29374   2.307   2.864  12.478  0.1768 -0.0203  0.0722
13114W        W29375   9.201   0.162   1.076  0.4257 -0.1265  0.2697
13115W        W29376   4.813  11.859   0.164  0.2165 -0.0472 -0.1954
13116W        W29377   9.083  16.423   4.811 -0.4336 -0.0703 -0.0336
13117W        W29378  14.918   0.442   1.536 -0.1229 -0.1808  0.2333
13118W        W29379  13.567   8.292  12.972 -0.1832 -0.1025 -0.0344
13119W        W29380  11.745   1.073   1.598 -0.1594 -0.1796 -0.0351
13120W        W29381   9.448   1.583   3.241  0.0096  0.1835 -0.0427
13121W        W29382   3.180   9.420  15.177 -0.2110 -0.1203  0.2206
13122W        W29383  14.394   9.529  12.445 -0.0677  0.1114 -0.1303
13123W        W29384   3.925   0.622   3.171  0.3045  0.5262 -0.0719
13124W        W29385  18.742   2.537  12.245 -0.1371 -0.2146 -0.1688
13125W        W29386   6.585  12.250  13.712 -0.0000 -0.0400  0.0263
13126W        W29387  18.095   3.765   5.385 -0.1303  0.2173  0.0188
13127W        W29388  10.742  11.502   1.954 -0.1734  0.2034 -0.0276
13128W        W29389  16.021   3.212   4.159 -0.2148 -0.0851 -0.0907
13129W        W29390  14.254   7.267   2.457  0.3851 -0.1838 -0.5737
13130W        W29391  14.818  16.993  12.487 -0.1787 -0.2668  0.3999
13131W        W29392   2.685  14.891   0.093 -0.0587  0.1632 -0.1297
13132W        W29393   1.130  13.499  12.564  0.0596 -0.1202 -0.0176
13133W        W29394  14.811  16.481   5.296  0.0420 -0.0425  0.0365
13134W        W29395   2.819   1.358   0.611  0.1278 -0.0545  0.0514
13135W        W29396  12.829   3.462  14.635 -0.2988 -0.1545  0.0153
13136W        W29397   8.012   5.307  11.491 -0.0646  0.0319  0.0493
13137W        W29398   5.844   1.228  11.786  0.4076 -0.0400 -0.0957
13138W        W29399  17.180  15.364   4.015 -0.2924 -0.0782  0.0011
13139W        W29400   7.073  13.294  14.546 -0.1553  0.0430  0.1205
13140W        W29401   9.245   5.238   3.803 -0.0685 -0.0050 -0.2139
13141W        W29402  18.214   7.905   1.347 -0.0757 -0.2104  0.0781
13142W        W29403   5.357  16.740   3.415 -0.1567  0.0070  0.1752
13143W        W29404  10.574  15.965   2.848 -0.3848 -0.1312  0.1321
13144W        W29405  10.255   6.943   2.502  0.1413  0.0269 -0.1026
13145W        W29406   9.873  12.498  13.180  0.1136 -0.0139  0.3510
13146W        W29407   0.505  17.914  11.726 -0.0033  0.1333  0.3273
13147W        W29408   4.060   7.803  12.346 -0.0074 -0.2334 -0.0318
13148W        W29409   1.315   6.223   5.128  0.2020  0.0634  0.0238
13149W        W29410  15.868   3.977  15.308  0.0273 -0.1015  0.1151
13150W        W29411   1.305   2.982   3.612 -0.1608  0.1867  0.0415
13151W        W29412   8.902  11.999  15.224  0.1129  0.1852  0.2475
13152W        W29413   5.877   7.577  12.694 -0.0300  0.3675 -0.1981
13153W        W29414  13.886  15.491  13.320  0.1396 -0.2460 -0.1699
13154W        W29415  18.753   0.201   1.362 -0.1544  0.0421  0.2757
13155W        W29416  18.277   6.423   3.931 -0.2334 -0.0826 -0.2036
13156W        W29417   9.333   2.006   4.833  0.1052  0.0863  0.0239
13157W        W29418   8.664  12.150  12.420  0.1264  0.1352 -0.2696
13158W        W29419  16.193   0.439   1.337 -0.1831  0.0625  0.2910
13159W        W29420  13.767   2.324  11.657 -0.1172 -0.0670 -0.0642
13160W        W29421   7.093  15.411   1.788  0.1275 -0.3749  0.1846
13161W        W29422  16.751   4.430   2.564 -0.1199 -0.0591 -0.0030
13162W        W29423  10.869   8.608  13.247  0.3056 -0.1426  0.0389
13163W        W29424  10.554   9.652  11.967  0.3580 -0.0634 -0.1944
13164W        W29425   1.236   5.857  14.574  0.1130  0.2283 -0.1716
13165W        W29426   5.317   8.276  14.833  0.0794 -0.0095 -0.0079
13166W        W29427   0.432  16.203   3.212  0.4056 -0.0833  0.0728
13167W        W29428   1.204   0.984  11.099 -0.0403  0.2245 -0.1677
13168W        W29429   0.267   8.105   1.219 -0.0945  0.0774  0.0469
13169W        W29430  11.555   2.197   2.733  0.0319 -0.0218  0.0397
13170W        W29431  13.258  16.934  10.469 -0.2088  0.0020  0.0882
13171W        W29432   2.875  13.142  13.171 -0.0904 -0.1260 -0.2877
13172W        W29433  10.635  11.254  12.440 -0.0653  0.3239 -0.1731
13173W        W29434  12.342  13.293  14.213 -0.2122  0.1190  0.0611
13174W        W29435   2.419   7.564   0.448  0.1116  0.2564 -0.2113
13175W        W29436  13.934   7.359  12.692  0.1673  0.1189 -0.0574
13176W        W29437   7.915   0.862   0.955  0.0339 -0.0263  0.4188
13177W        W29438  11.220  11.945   0.859 -0.2546  0.3821  0.0057
13178W        W29439  13.725   0.379   1.162  0.1167  0.3759  0.1858
13179W        W29440   5.682   5.863   4.683 -0.0129 -0.1856 -0.0743
13180W        W29441   9.083   2.986  12.935  0.1325  0.0883 -0.2312
13181W        W29442  12.714   6.826   1.858  0.0194  0.1118 -0.1391
13182W        W29443  10.172   5.915   0.684  0.3415 -0.2658 -0.2215
13183W        W29444  15.080   7.787   2.804  0.2416 -0.1432 -0.1049
13184W        W29445  15.436   0.131   2.487 -0.0776 -0.0282 -0.3728
13185W        W29446   1.636   9.195  12.487  0.0140 -0.0734 -0.0732
13186W        W29447  18.435   8.798   3.801  0.0293 -0.3211  0.4539
13187W        W29448  18.058   0.388   3.038  0.1866 -0.2086  0.0090
13188W        W29449   2.972   6.617   1.986  0.0720  0.4122  0.1045
13189W        W29450  13.451  11.513   0.561 -0.0176  0.0958 -0.0208
13190W        W29451  14.969  16.360   3.251 -0.0371 -0.3177  0.0466
13191W        W29452  11.666  12.934  12.864  0.1445  0.0908  0.1758
13192W        W29453  12.601  13.311   0.564 -0.1190  0.0853  0.2535
13193W        W29454   8.985   2.598   4.344 -0.2100  0.1867 -0.0433
13194W        W29455   4.509   8.334  11.310 -0.0095  0.3001  0.2514
13195W        W29456   8.381  18.679   4.764  0.0992  0.2108  0.2543
13196W        W29457  18.168   9.958   5.517 -0.2210 -0.3546 -0.0597
13197W        W29458   7.321   7.323   3.542  0.0204 -0.1413  0.0969
13198W        W29459  13.296   7.053   4.370 -0.1465 -0.1993 -0.0614
13199W        W29460   3.938  17.456   4.404  0.0910 -0.1370 -0.4715
13200W        W29461   7.083   2.860   1.478  0.0259 -0.0269 -0.1270
13201W        W29462  11.638   2.535   1.356  0.2467 -0.0168  0.2032
13202W        W29463  13.634   6.635  13.550  0.1383  0.1497 -0.5317
13203W        W29464  14.425   4.517   5.082 -0.1343  0.1967  0.2215
13204W        W29465  10.061  17.095   1.558  0.1212 -0.2611  0.2936
13205W        W29466   0.501  12.597  11.065 -0.1955 -0.1381  0.0767
13206W        W29467  14.086   6.802   1.375 -0.1513 -0.1126 -0.3844
13207W        W29468   7.962   9.589   4.856 -0.0648  0.0019 -0.1277
13208W        W29469   4.204  18.128   4.596  0.0498 -0.0250  0.2784
13209W        W29470  16.130   2.277  11.631  0.0301 -0.0741 -0.0174
13210W        W29471   4.945  11.009   1.277  0.0212  0.2304  0.0316
13211W        W29472   1.227   6.991  13.260  0.2634 -0.0697 -0.3118
13212W        W29473  11.020   8.255  14.537  0.0913  0.1126 -0.2379
13213W        W29474  15.165  14.391   1.905  0.0851  0.1834  0.1970
13214W        W29475   7.843  10.560   5.354 -0.1507 -0.1177 -0.0123
13215W        W29476   5.159   9.073   4.597  0.1858 -0.1716  0.0594
13216W        W29477   8.814  17.803   0.265  0.1439  0.1449 -0.0780
13217W        W29478   8.250  13.998   2.144  0.2122 -0.1113 -0.0272
13218W        W29479   0.183  15.998   0.028  0.1406 -0.3728  0.0254
13219W        W29480  14.581   8.344  11.733  0.2009  0.0680 -0.0871
13220W        W29481  10.949  16.658   2.075 -0.0212 -0.2629  0.0509
13221W        W29482   5.681  14.722  15.458 -0.0603 -0.2604 -0.1346
13222W        W29483  11.324   6.619   0.270 -0.1467 -0.0542 -0.1429
13223W        W29484   9.782  13.123   4.646  0.3459  0.2115  0.2842
13224W        W29485   9.582   6.723  14.139 -0.3504  0.0956  0.0438
13225W        W29486   9.192  15.094  11.436  0.1947  0.1153  0.0564
13226W        W29487   0.459   8.385   1.606  0.1146 -0.2035 -0.0944
13227W        W29488  10.495   0.540   3.309  0.1867 -0.0834  0.0049
13228W        W29489  12.736   8.938  11.666  0.1489  0.0778 -0.1547
13229W        W29490  18.157  14.689  14.658 -0.0621 -0.1674  0.2493
13230W        W29491   1.933   9.696  11.496 -0.1011 -0.0240  0.0303
13231W        W29492   1.985  15.415  13.546 -0.1034 -0.2457 -0.0901
13232W        W29493  14.691   6.891   2.684  0.2419 -0.0472 -0.2711
13233W        W29494  14.037  15.286   1.864 -0.0219  0.1781  0.0275
13234W        W29495  14.704  14.513  11.589 -0.1692 -0.1627  0.0271
13235W        W29496  14.597   9.107  13.566  0.2621  0.0284  0.3293
13236W        W29497   2.720  14.371   0.854  0.0322  0.0043 -0.0506
13237W        W29498   1.717  17.289  14.068  0.0388 -0.4266  0.2695
13238W        W29499  17.087   8.677   0.854  0.1611 -0.1685  0.0054
13239W        W29500   3.015   9.979  10.037 -0.0024  0.0689 -0.2113
13240W        W29501   2.419   1.376   3.869 -0.0802 -0.0319 -0.1028
13241W        W29502  16.211   3.197  11.492  0.1489 -0.0321  0.1852
13242W        W29503   6.086  12.615  15.242  0.0034 -0.1421 -0.2137
13243W        W29504   5.881  18.707  13.429 -0.0145  0.2171 -0.4164
13244W        W29505  14.496  18.370   0.129  0.2380  0.3470  0.1283
13245W        W29506  13.117  17.915  15.476 -0.4346 -0.1350  0.2289
13246W        W29507   2.268   3.939   1.718 -0.0415  0.1755 -0.1832
13247W        W29508  13.770   0.161   3.825  0.0136 -0.2664 -0.1370
13248W        W29509  12.378   0.448   3.400 -0.0095  0.2565  0.1342
13249W        W29510  13.622  15.952  13.393  0.1183 -0.0513  0.1245
13250W        W29511  11.811   0.736   3.577  0.2364  0.2097  0.1303
13251W        W29512   6.628  11.458   1.820 -0.2291  0.1186 -0.1868
13252W        W29513  15.918   6.678  14.637 -0.3112  0.0587 -0.1105
13253W        W29514  12.736   2.957   1.238 -0.1151 -0.3426 -0.2678
13254W        W29515  15.930   5.330   1.301  0.2664 -0.0178 -0.0554
13255W        W29516   0.586   9.305  11.125  0.0277 -0.4816 -0.3256
13256W        W29517   1.573   0.649   2.436 -0.0111 -0.1008  0.1397
13257W        W29518   1.385   0.322   3.848  0.1630 -0.2726 -0.2043
13258W        W29519  18.284   1.101   3.296 -0.1016  0.0474  0.1126
13259W        W29520   0.588   6.454   0.238  0.1462  0.2852  0.0358
13260W        W29521  10.512  13.452  12.301  0.0239  0.0866  0.0030
13261W        W29522   5.155   8.229  13.336 -0.0936 -0.1257  0.0438
13262W        W29523   1.890  15.187  10.558 -0.2663  0.1687  0.0818
13263W        W29524  16.373   6.668  12.197 -0.3032 -0.2416  0.0293
13264W        W29525  13.781  15.616  13.765  0.1013  0.0422 -0.4255
13265W        W29526  12.562  12.603  10.551  0.0376  0.2221 -0.2140
13266W        W29527   7.127   8.634  14.537 -0.3684  0.2257 -0.2656
13267W        W29528   5.866   4.187   0.226 -0.0599 -0.3297 -0.0240
13268W        W29529  16.882  17.950   1.085 -0.1081 -0.1844 -0.0879
13269W        W29530  16.073   2.418   2.231  0.1416 -0.0225 -0.1273
13270W        W29531   9.903   8.070  12.365  0.2113  0.1201  0.0194
13271W        W29532   4.979  16.738  12.134  0.1659 -0.1621 -0.2841
13272W        W29533  12.613   1.101  12.499  0.3871  0.1378 -0.0885
13273W        W29534  18.183   0.253  14.687 -0.0932 -0.1006 -0.4297
13274W        W29535  10.753  17.056  12.921  0.0594  0.0947 -0.1210
13275W        W29536   3.442   8.591  15.020  0.1598 -0.3849 -0.2212
13276W        W29537  10.584  16.262   0.617 -0.1851 -0.0177  0.3894
13277W        W29538  11.794   5.706   2.216 -0.2097 -0.2347 -0.2708
13278W        W29539   5.597  14.526  10.666  0.0037 -0.0996 -0.0960
13279W        W29540   6.702   0.256  11.895 -0.2659 -0.2621  0.0157
13280W        W29541  12.975  13.399   0.883 -0.1052  0.0363  0.1256
13281W        W29542   8.263  15.914  15.375  0.0465 -0.0170 -0.1030
13282W        W29543  16.682   7.259  15.311  0.1637  0.2443 -0.0625
13283W        W29544   4.115   4.051  15.384 -0.2498  0.3364 -0.0451
13284W        W29545   0.308  11.733   4.292  0.1126  0.2991  0.0774
13285W        W29546  12.991   2.843   3.888 -0.2224  0.2995  0.2865
13286W        W29547  16.777  12.102   4.414 -0.3268  0.1821  0.0875
13287W        W29548  18.226   5.787   0.854  0.0098  0.2370 -0.1456
13288W        W29549  18.035  17.731   4.474  0.0314 -0.1151 -0.1520
13289W        W29550  16.439  10.408  12.130  0.0603  0.0987  0.0311
13290W        W29551   5.002   4.676   3.742 -0.1951 -0.0416  0.0149
13291W        W29552   3.726   6.394  11.402  0.0208  0.0452  0.1589
13292W        W29553   6.029  14.891  12.681  0.4008  0.2275  0.0883
13293W        W29554   3.555   5.805   0.093  0.0341  0.0934 -0.2580
13294W        W29555  15.722  16.966   2.498 -0.2032 -0.0667  0.1079
13295W        W29556   4.273  18.464  15.416 -0.0995 -0.4118 -0.2149
13296W        W29557  17.258   8.647   2.226 -0.2143 -0.1085  0.0283
13297W        W29558  14.061   7.993  15.160 -0.1642 -0.2321  0.0372
13298W        W29559   6.709  11.167   3.464  0.1844 -0.1742  0.1141
13299W        W29560   6.189   9.295  12.601  0.1040  0.1205 -0.2694
13300W        W29561   4.135   1.737   2.564  0.2935 -0.0033  0.0827
13301W        W29562  17.711   9.041   0.886 -0.2055  0.1958  0.0776
13302W        W29563   3.874  11.030  13.520 -0.2050  0.2064 -0.1217
13303W        W29564   5.839  17.755   0.081 -0.0549  0.0078  0.0428
13304W        W29565   1.939  12.066   1.368 -0.0675  0.0905  0.2951
13305W        W29566   1.881  14.290  12.732 -0.0933 -0.0317  0.2114
13306W        W29567  18.711  10.432   3.933  0.0544  0.1034 -0.0261
13307W        W29568   3.153   6.443   3.653 -0.0646 -0.2864  0.2089
13308W        W29569   9.009   7.837  11.879 -0.0306  0.1829 -0.0408
13309W        W29570  15.918  11.211   0.573 -0.0065  0.4905 -0.1873
13310W        W29571  13.006  11.858   2.142 -0.0416 -0.2368 -0.0956
13311W        W29572   5.295  10.177   4.054 -0.2157 -0.1394 -0.0237
13312W        W29573  11.966   7.863  11.038  0.0517  0.2252  0.0744
13313W        W29574   3.439   8.567   1.673 -0.1957  0.0673  0.1302
13314W        W29575   4.537  14.756  13.861  0.1255 -0.2391  0.0780
13315W        W29576  16.213   2.108   1.106  0.1927  0.3932  0.2126
13316W        W29577   5.395   3.615  13.669 -0.2095  0.1618 -0.1392
13317W        W29578  14.167   5.292  11.341 -0.0040  0.0328  0.0423
13318W        W29579  11.771   1.572  14.095 -0.3870  0.1274 -0.0920
13319W        W29580   2.217   2.311   0.129 -0.0406  0.3058  0.2758
13320W        W29581  18.764  16.392  10.677  0.0369 -0.0066  0.1445
13321W        W29582   2.666  17.754   4.150  0.2236 -0.1134  0.1967
13322W        W29583   8.449  14.818  12.442  0.0719  0.0116  0.1651
13323W        W29584   8.639   6.898   2.465  0.3096  0.1068  0.1103
13324W        W29585   4.081  14.099   5.126 -0.1646 -0.1086  0.0899
13325W        W29586   6.049   7.203   6.416  0.0474 -0.3071 -0.0089
13326W        W29587   8.680  14.637  10.481  0.1490 -0.1194  0.2142
13327W        W29588   5.325  10.260  12.775  0.2378 -0.0355  0.0508
13328W        W29589  17.769   2.399  11.678 -0.1199  0.0669  0.1033
13329W        W29590   7.239  17.158   5.338  0.1866 -0.1704  0.1384
13330W        W29591  15.514   3.493  14.072  0.1976  0.1853  0.1152
13331W        W29592   0.991  17.152   4.365 -0.0053 -0.0268  0.3039
13332W        W29593  14.011   8.829   4.203 -0.1960  0.0743 -0.1439
13333W        W29594  18.144   5.102   1.460  0.2560 -0.3222 -0.0670
13334W        W29595  15.790  11.837  14.218  0.3441  0.1554  0.1011
13335W        W29596  16.059   6.211   5.331  0.2400 -0.1155 -0.3046
13336W        W29597   9.815  18.168  11.367  0.1854  0.2961  0.0507
13337W        W29598   0.317  12.839   3.951 -0.1587 -0.0275  0.1825
13338W        W29599  18.540   6.242  14.060 -0.0778  0.0358  0.2976
13339W        W29600  18.692   3.135  13.445 -0.0891  0.1435 -0.0439
13340W        W29601  16.851  15.653   4.824  0.0705  0.2881 -0.3306
13341W        W29602   7.502  13.093   0.407 -0.3400  0.1057  0.0072
13342W        W29603   3.283   5.154   5.613  0.4235  0.2401  0.0246
13343W        W29604  17.868   2.610   3.504 -0.0714 -0.0476  0.2255
13344W        W29605   7.159  14.095  13.912 -0.1280 -0.0112 -0.3378
13345W        W29606  12.988  15.427   5.097 -0.0877 -0.0821  0.0688
13346W        W29607   3.003  16.298   3.368  0.2943 -0.0636 -0.2198
13347W        W29608  16.731  13.966  14.999 -0.1583 -0.2252  0.0045
13348W        W29609  12.466   2.455  13.447  0.0396 -0.2133 -0.1634
13349W        W29610   5.582  14.388  13.758  0.0557 -0.3237  0.1822
13350W        W29611  11.943   9.956  12.956 -0.1396  0.1118 -0.3051
13351W        W29612  18.125  18.814  15.517  0.1228 -0.0518 -0.0122
13352W        W29613   5.664   9.230   6.043 -0.0738  0.0715 -0.0526
13353W        W29614   2.581  16.037  14.697 -0.0482  0.2739  0.0256
13354W        W29615   1.129   8.107   3.085 -0.0848 -0.1384  0.0880
13355W        W29616   4.970   8.439   4.653 -0.1767 -0.2798  0.1160
13356W        W29617  16.667  10.017  11.162  0.2138  0.0118  0.2537
13357W        W29618   6.669   7.901   4.954  0.2394 -0.1331  0.0869
13358W        W29619  11.412   0.207  12.061  0.0765 -0.5045  0.0286
13359W        W29620  12.563   2.596  15.527 -0.1114  0.2171  0.2253
13360W        W29621  17.062  14.953   0.820 -0.0387 -0.1075  0.3227
13361W        W29622   2.800   6.571  15.548 -0.0999  0.0771  0.0511
13362W        W29623   8.660   7.605   3.433 -0.0071 -0.0846  0.0290
13363W        W29624  11.604  16.672  11.843  0.0186  0.0046  0.2275
13364W        W29625  16.840   4.558  11.940 -0.1478 -0.0919 -0.4177
13365W        W29626   2.842   2.804  14.980  0.0238 -0.0769 -0.2097
13366W        W29627  11.686  11.273  11.364 -0.3056  0.0008 -0.2392
13367W        W29628  10.665   0.193   1.818 -0.3858  0.0094 -0.1136
13368W        W29629   4.717   1.571  12.760 -0.0879  0.2864 -0.3442
13369W        W29630  15.535   5.046   1.507 -0.0549 -0.0538 -0.1792
13370W        W29631   3.162   3.323   0.038  0.1469  0.3394 -0.2965
13371W        W29632   0.399  17.370   4.026 -0.1907  0.1174 -0.0042
13372W        W29633   5.611   6.957   4.455 -0.1767 -0.2084  0.2529
13373W        W29634   0.121   0.175   2.387  0.2778  0.0010  0.0753
13374W        W29635   4.257   2.562   5.689  0.2888 -0.0303 -0.1382
13375W        W29636  11.903  14.091   1.108  0.0487 -0.0693  0.0566
13376W        W29637  14.919  10.927  14.699 -0.1410 -0.0457 -0.0724
13377W        W29638   5.552  10.675  11.907  0.3254 -0.2162  0.0350
13378W        W29639  16.538   1.915  12.902  0.2295  0.2902  0.0277
13379W        W29640  15.557   8.419   4.504 -0.0203  0.1051  0.0694
13380W        W29641   3.708  12.068   9.889  0.1349  0.2331 -0.1705
13381W        W29642   3.797  10.303   0.849  0.1838  0.0963  0.0168
13382W        W29643   1.233  14.063   3.068 -0.4374 -0.1928  0.1223
13383W        W29644   3.247   6.410   0.852 -0.0216 -0.1394 -0.0454
13384W        W29645  18.094  18.553   0.713  0.0827 -0.1229 -0.0612
13385W        W29646  12.293   4.312  14.872  0.1058 -0.0642  0.0379
13386W        W29647  11.443   7.316   0.723 -0.0670  0.2083  0.0564
13387W        W29648   3.693   9.613  11.150  0.0744  0.0410  0.0101
13388W        W29649   7.922  13.975   3.561  0.0274  0.0302 -0.0286
13389W        W29650   1.607   1.050  14.510  0.0163  0.0583 -0.1487
13390W        W29651  12.300  10.785  11.888 -0.2812 -0.0154 -0.1100
13391W        W29652   9.877   9.439   4.074 -0.0271 -0.0957  0.0856
13392W        W29653   3.212  16.849  13.991  0.2235 -0.0298  0.0035
13393W        W29654  11.500   5.165   0.058  0.2007  0.2804 -0.0682
13394W        W29655  16.788  16.428   1.513  0.1475 -0.2646 -0.0991
13395W        W29656   9.750   3.478   0.672 -0.1069  0.0913  0.0294
13396W        W29657  14.087   7.040  14.450 -0.2477 -0.1438 -0.0909
13397W        W29658  13.996  11.276   3.237  0.2878  0.1798  0.0373
13398W        W29659  17.009   7.124  10.863  0.0757  0.1452  0.0822
13399W        W29660   3.043  18.168  13.466 -0.1123  0.0097  0.3324
13400W        W29661   1.761   2.990  12.480 -0.0917 -0.3398 -0.2641
13401W        W29662   3.424   5.647  14.791  0.0485 -0.0115  0.1904
13402W        W29663   9.267  13.487   0.530 -0.4708 -0.2253  0.0216
13403W        W29664   3.238  18.086   3.289  0.2135 -0.5617 -0.0023
13404W        W29665  17.323   0.464   3.976 -0.0219 -0.0612  0.4063
13405W        W29666  16.519  10.165   3.743 -0.0107 -0.1296 -0.3266
13406W        W29667   2.531   1.458  14.523 -0.0381 -0.2499 -0.0243
13407W        W29668   2.904   3.277   3.326 -0.0484  0.0046  0.1369
13408W        W29669   0.120  11.073  12.638 -0.2128 -0.3595  0.0780
13409W        W29670  17.106   3.076  14.441 -0.0586  0.1759  0.0355
13410W        W29671   9.677  12.608  11.689 -0.0032  0.1851 -0.0363
13411W        W29672  14.138  18.510  11.628 -0.2189 -0.4504 -0.1654
13412W        W29673   3.842   1.488  10.074 -0.4074 -0.2549 -0.0495
13413W        W29674  17.211  14.792   4.895 -0.2060  0.2658 -0.1169
13414W        W29675   6.887  10.794  14.434 -0.2843  0.3031  0.3428
13415W        W29676   2.297   2.577   5.045  0.1691 -0.1050 -0.0674
13416W        W29677  15.642   9.925   0.958 -0.1969 -0.0384 -0.0854
13417W        W29678   7.654  11.956  10.235 -0.1440 -0.0117 -0.1234
13418W        W29679  14.622   2.657  14.963 -0.2157  0.0974 -0.2908
13419W        W29680   5.867  12.721  12.324 -0.1567  0.0634  0.0272
13420W        W29681  13.043  13.131   1.742  0.0597  0.0300 -0.2034
13421W        W29682   9.444   7.074   0.348  0.1679 -0.1558 -0.4266
13422W        W29683   5.087  10.894   5.924  0.0158 -0.1177  0.1648
13423W        W29684  16.249   8.005  13.825 -0.1498 -0.0759  0.0937
13424W        W29685  13.366   7.431   1.528  0.2654  0.0364 -0.0360
13425W        W29686  13.046  14.438  12.591 -0.0389 -0.3279  0.0055
13426W        W29687  13.693  12.566   2.726  0.2651 -0.0543  0.1794
13427W        W29688  15.592  12.807  12.174 -0.0500 -0.3133 -0.0743
13428W        W29689  15.639   3.583   2.013  0.1703 -0.0280  0.0731
13429W        W29690   0.252   1.959  11.448 -0.0422 -0.0439  0.1923
13430W        W29691   2.018  13.292  13.584 -0.0751  0.2017  0.1543
13431W        W29692  16.710   8.947  14.864  0.3614 -0.2291  0.2086
13432W        W29693  13.914   4.489   0.827  0.4168  0.0394 -0.0785
13433W        W29694  14.367   7.682   0.786  0.0869 -0.1661  0.0904
13434W        W29695  14.010  11.895   2.523  0.0220 -0.1905 -0.0577
13435W        W29696   6.669   0.884   6.149  0.0265 -0.0107  0.2697
13436W        W29697  14.465   3.376   0.138 -0.1693  0.0514  0.0842
13437W        W29698   6.428   4.681   1.998  0.0335  0.1965 -0.2775
13438W        W29699   7.532  13.781  13.949 -0.2077 -0.1455  0.3900
13439W        W29700  18.095  16.259   3.744 -0.1443 -0.0791 -0.0304
13440W        W29701  18.178   7.857  12.442  0.0373  0.0345 -0.0535
13441W        W29702   6.898   5.156   0.218 -0.1582 -0.0464 -0.0958
13442W        W29703  17.086  11.216  14.368  0.1148 -0.1020  0.0511
13443W        W29704   6.099   6.886  12.135 -0.2669 -0.0221 -0.1969
13444W        W29705  17.326  18.761  12.152 -0.5239 -0.4717 -0.0886
13445W        W29706   0.692   0.520  10.658 -0.1540 -0.0045 -0.0203
13446W        W29707   7.327  17.328   3.262 -0.1148 -0.0250 -0.3041
13447W        W29708  17.056  11.645   5.476 -0.1048 -0.6517 -0.1384
13448W        W29709   0.608   3.993  12.459  0.2712 -0.2073 -0.0618
13449W        W29710   7.893   8.594  14.300  0.1990  0.2513 -0.0728
13450W        W29711   0.832  12.282  14.331 -0.1068  0.2475 -0.1859
13451W        W29712   5.015  15.357   0.459 -0.1280  0.1372 -0.0947
13452W        W29713   5.524   9.879  10.744  0.3207  0.0930 -0.2506
13453W        W29714   6.071  13.577   3.567  0.5465  0.1130 -0.4352
13454W        W29715  16.768  13.768   3.171  0.1932  0.1829 -0.0230
13455W        W29716  10.752   9.756   0.202  0.2210  0.0363 -0.1205
13456W        W29717  16.318   5.336  11.798 -0.1440  0.2170 -0.0128
13457W        W29718   5.026   9.694   5.289  0.0955 -0.1065 -0.0005
13458W        W29719  11.201  18.509  12.148 -0.1104  0.1155 -0.2162
13459W        W29720  18.214   1.192   4.104  0.0681  0.2703 -0.2137
13460W        W29721   2.470  11.322   2.316 -0.2961 -0.3712 -0.0339
13461W        W29722   3.813  17.157  10.791 -0.0600 -0.1244 -0.1254
13462W        W29723  18.213  15.210   0.256  0.1148  0.0860 -0.2910
13463W        W29724  15.470  10.132   0.089 -0.0492 -0.1287  0.0723
13464W        W29725  14.780   3.526   4.698  0.1856  0.1635 -0.2301
13465W        W29726  15.917   5.010   3.400  0.0035 -0.3270 -0.0993
13466W        W29727  18.320  11.091   5.446 -0.0460 -0.4270 -0.0912
13467W        W29728   3.821  12.749  11.028  0.1890 -0.1274 -0.1731
13468W        W29729   5.723   0.136   4.604 -0.1148  0.2276 -0.2706
13469W        W29730  10.254   9.134   2.834  0.0717 -0.0017  0.1069
13470W        W29731  16.722   7.127   2.459 -0.0490 -0.1466 -0.2679
13471W        W29732  14.196   7.121  12.303  0.2442 -0.0503 -0.0120
13472W        W29733  14.224   2.757  12.627 -0.0072 -0.1614 -0.0076
13473W        W29734  12.724   0.003  11.987 -0.1683 -0.1002  0.0048
13474W        W29735   5.570  16.178  15.616 -0.1791  0.0468  0.0072
13475W        W29736  18.510  10.245   0.723  0.1727 -0.2047  0.1820
13476W        W29737  18.272  12.155   2.324  0.1662 -0.0320  0.0034
13477W        W29738  11.352  11.361   4.216 -0.1332 -0.3251  0.0117
13478W        W29739   1.462  13.626  13.859  0.3516  0.0712 -0.0519
13479W        W29740   6.532  11.212   5.400 -0.1506 -0.2290  0.2057
13480W        W29741  10.849  10.279  12.757  0.2101 -0.3489 -0.0081
13481W        W29742  14.783  13.862   5.072  0.2890  0.3628 -0.2549
13482W        W29743  12.176   2.430  14.654  0.0532  0.1868  0.0278
13483W        W29744  12.398  10.896  15.519 -0.0375 -0.2441  0.2020
13484W        W29745  17.502   6.517  12.324 -0.1102 -0.0857 -0.1221
13485W        W29746   9.756  15.136   9.894 -0.0527 -0.0650  0.1358
13486W        W29747   5.582  14.580   5.599  0.0311 -0.1075 -0.0509
13487W        W29748  13.843   1.183   3.682 -0.0621 -0.2435  0.1572
13488W        W29749   2.986   2.509  12.899 -0.2423  0.2143 -0.0427
13489W        W29750   4.185   9.075   3.830 -0.3188 -0.0665  0.0454
13490W        W29751  12.510  16.988  14.402 -0.3808  0.0675  0.1775
13491W        W29752   5.940  10.379  11.996 -0.1794 -0.1805 -0.1966
13492W        W29753  17.296  15.890   0.925 -0.2480  0.1849 -0.0970
13493W        W29754  10.535  17.134  11.980  0.1536 -0.0538  0.0345
13494W        W29755  11.377   3.311   1.000  0.0014 -0.1429  0.1995
13495W        W29756  17.806   6.604   2.185 -0.1999  0.2298 -0.1933
13496W        W29757   4.168   3.746   4.780  0.0522 -0.2669  0.0129
13497W        W29758   6.190   0.080   3.014 -0.1327  0.0644 -0.0870
13498W        W29759  16.584   3.872   2.119 -0.1152  0.0316 -0.4919
13499W        W29760  15.812   3.342  13.662  0.1529  0.1144 -0.0876
13500W        W29761  16.315   2.213   1.576  0.1392  0.4208  0.2290
13501W        W29762   0.736  13.527   3.205  0.0160  0.2953  0.1405
13502W        W29763  13.835   5.770   4.015 -0.2318  0.0617  0.1164
13503W        W29764  10.189  12.293   0.541  0.0992  0.0062 -0.0416
13504W        W29765  13.099  13.153   3.935 -0.2318  0.0285  0.3304
13505W        W29766   8.455   8.129  10.315 -0.0575 -0.0026 -0.0707
13506W        W29767   7.095   0.638  14.050 -0.2954  0.0138 -0.1313
13507W        W29768  14.409   9.053  14.084 -0.2237 -0.0288 -0.2144
13508W        W29769  12.534   1.616  10.002  0.1585 -0.1489 -0.1140
13509W        W29770   7.545   8.392  12.167  0.1267  0.1191 -0.2358
13510W        W29771   5.560   5.421  14.716 -0.2500 -0.2642 -0.0928
13511W        W29772  12.105  17.535   5.067  0.1243  0.1251  0.2441
13512W        W29773  14.832   4.047   4.808 -0.2301  0.0907 -0.1107
13513W        W29774   7.723  10.932  11.205  0.1745  0.0055  0.2617
13514W        W29775  18.220   5.701   1.385  0.2216 -0.2475 -0.2930
13515W        W29776   5.125   9.633  10.952 -0.2511 -0.0707 -0.0224
13516W        W29777   4.220   8.294  10.902  0.1383 -0.1639  0.2850
13517W        W29778  12.375  17.090   4.763 -0.1405  0.1106 -0.0959
13518W        W29779   9.011  16.276   4.311 -0.0144 -0.2153  0.1472
13519W        W29780   9.369   7.962  11.278 -0.2132  0.0024 -0.0857
13520W        W29781  11.059  15.081   1.202  0.0233  0.3152  0.0449
13521W        W29782  15.757   9.142  12.647  0.1726  0.0316 -0.0702
13522W        W29783  17.743   5.486  14.341  0.0696  0.1619  0.1132
13523W        W29784  10.861  12.642  13.770 -0.0343 -0.0198 -0.0410
13524W        W29785   9.443  10.232   3.631 -0.0251 -0.1142 -0.1371
13525W        W29786   7.495  13.609  11.967  0.0487  0.0943 -0.0242
13526W        W29787  15.300   0.862  13.458  0.0664  0.0082 -0.4031
13527W        W29788   9.294  10.327   1.963  0.0803 -0.0409 -0.1592
13528W        W29789  17.139   7.935   4.866  0.1513  0.2397 -0.2341
13529W        W29790   8.127   7.132  14.641  0.1281  0.1713  0.2172
13530W        W29791  14.164  10.098  11.142 -0.1749 -0.2800 -0.2187
13531W        W29792  13.532  13.271  15.164  0.1134 -0.1958  0.3474
13532W        W29793  14.006   4.058   2.345  0.0984 -0.0207 -0.0047
13533W        W29794  12.655  10.958   2.975  0.0960  0.2324 -0.1435
13534W        W29795  17.125   7.524   1.705 -0.0168 -0.1351 -0.0338
13535W        W29796   3.172   2.445  11.171  0.2289  0.1789  0.3579
13536W        W29797  17.414   6.794   1.763 -0.0823 -0.1785 -0.0075
13537W        W29798   8.071   9.158  11.308  0.0257 -0.0020  0.3220
13538W        W29799  15.456  16.467   4.608 -0.1615  0.1164 -0.0114
13539W        W29800   7.145   9.181   2.398 -0.2066 -0.1020  0.1361
13540W        W29801   2.136   9.128  12.272 -0.0845  0.1066 -0.1195
13541W        W29802  18.578  14.816   2.410 -0.2279  0.4323  0.2035
13542W        W29803   5.540   0.307  11.151  0.0339  0.0675  0.2433
13543W        W29804  14.679   2.949  14.327 -0.1363  0.1570  0.0739
13544W        W29805   4.821   8.226   0.884 -0.2545  0.1949  0.2931
13545W        W29806  11.470   9.899   2.479  0.0703  0.5179 -0.1109
13546W        W29807  14.990   6.617  13.045  0.1756  0.5050 -0.1495
13547W        W29808   4.959   7.762   3.923 -0.0212  0.0702  0.2629
13548W        W29809   2.542   9.067  11.523 -0.0326  0.0220 -0.1784
13549W        W29810  12.028   7.149  13.058 -0.1288 -0.0740 -0.0342
13550W        W29811  17.405  15.126  13.506  0.0150 -0.1446  0.0328
13551W        W29812   2.604  10.108  12.373  0.1790  0.2194  0.3514
13552W        W29813   4.400   1.714   2.096 -0.0545  0.0260  0.1617
13553W        W29814  13.566  14.951  15.561  0.2311  0.0505  0.0569
13554W        W29815  11.617   9.562   1.326  0.0458  0.1158 -0.3989
13555W        W29816   0.447   6.099  12.387 -0.0692 -0.0500 -0.2653
13556W        W29817   4.641  11.206   3.373 -0.1181 -0.0188  0.2455
13557W        W29818  14.335   6.661  14.239 -0.0668  0.2506  0.2147
13558W        W29819  10.400  17.612  11.824  0.2756 -0.1918 -0.2414
13559W        W29820  17.949  11.846  12.478  0.0614  0.1447  0.4609
13560W        W29821  17.841   7.779  13.943  0.1180 -0.1162 -0.2787
13561W        W29822   1.916  17.304   5.341  0.1163 -0.2095 -0.2057
13562W        W29823  13.755  17.260  11.212  0.2666 -0.2169 -0.1831
13563W        W29824   1.327  15.503   0.995 -0.1892 -0.0831  0.2859
13564W        W29825  15.742   8.653   2.274 -0.0158  0.0159 -0.0776
13565W        W29826  18.088   9.962  10.848 -0.2908 -0.1003 -0.0666
13566W        W29827  12.207  12.578   3.666 -0.1903 -0.0653  0.0192
13567W        W29828   9.805   9.825  13.898  0.1199 -0.0830 -0.0456
13568W        W29829   1.416   3.186  10.943 -0.0395  0.1738 -0.0553
13569W        W29830   2.244   9.314  14.902  0.0403  0.0583 -0.0506
13570W        W29831  17.981   7.837  13.411  0.0058 -0.1303 -0.2128
13571W        W29832   5.754   7.423  15.069 -0.1919  0.0804 -0.0445
13572W        W29833  18.094  13.737  15.595 -0.2401 -0.4848 -0.0455
13573W        W29834  15.450   0.673  15.305  0.0916  0.0582 -0.2770
13574W        W29835  11.007  13.836  13.490 -0.0123  0.0264 -0.1091
13575W        W29836  15.905   1.216   4.546  0.0666 -0.1974 -0.0895
13576W        W29837   7.707   4.938  15.015 -0.2449 -0.1565  0.1581
13577W        W29838  14.776   6.773   5.070 -0.1517  0.0838  0.3173
13578W        W29839   0.128  14.027  12.891  0.2399  0.0360  0.1050
13579W        W29840   5.026   1.221  15.166 -0.1262 -0.1621  0.0457
13580W        W29841   3.685   6.916  12.593  0.1953 -0.0929 -0.2411
13581W        W29842   8.394   9.438   5.530 -0.1698  0.0729  0.0167
13582W        W29843   6.741  13.101   4.117 -0.0415  0.1863  0.2295
13583W        W29844   6.251  10.310   0.751 -0.2134 -0.0644  0.4584
13584W        W29845  11.585   9.355  12.852  0.2673  0.1492 -0.1937
13585W        W29846   9.740  13.866   2.592  0.2376 -0.0143 -0.2024
13586W        W29847  14.865  18.377  14.229 -0.2752 -0.1554  0.0078
13587W        W29848   8.384   6.980   0.367  0.0268 -0.0543 -0.1205
13588W        W29849   2.944   0.066   1.280  0.2451  0.0337  0.0981
13589W        W29850   4.374   6.746   2.532  0.0439  0.1104 -0.1853
13590W        W29851   0.170  12.137  11.027 -0.0053 -0.1227 -0.3183
13591W        W29852   3.724   3.992   0.468  0.0552 -0.0363 -0.1274
13592W        W29853   2.274   0.204   2.198  0.0899 -0.0952  0.1241
13593W        W29854  13.930   0.747   4.741 -0.0373 -0.3250 -0.1579
13594W        W29855   0.489  13.532  10.485 -0.0366 -0.0082  0.1485
13595W        W29856   3.725   0.496   0.041  0.1064  0.1642 -0.1341
13596W        W29857   6.487  10.171  15.385 -0.1584  0.0763 -0.0410
13597W        W29858   0.646   0.821   1.469 -0.0192  0.0961  0.0717
13598W        W29859   9.502  16.564   2.545  0.2390 -0.1514 -0.0268
13599W        W29860   1.910  18.706   2.258  0.0429  0.1432 -0.0954
13600W        W29861  16.690   2.030   4.601 -0.0040  0.0480  0.1119
13601W        W29862   1.471   8.517  11.995  0.2827 -0.0574 -0.1054
13602W        W29863   7.031   1.977   2.535 -0.2875 -0.1127 -0.5598
13603W        W29864   3.989  10.164  13.853  0.0310 -0.0274  0.1477
13604W        W29865  15.127   8.484  10.855 -0.0224  0.3747 -0.2674
13605W        W29866   1.183  13.265   4.318  0.1329 -0.2669  0.1282
13606W        W29867  14.000   8.556   0.976  0.4571 -0.4531 -0.1503
13607W        W29868  10.363   5.387  13.145  0.1742 -0.1581  0.0795
13608W        W29869   7.156   0.203  14.447  0.0118 -0.3907 -0.0515
13609W        W29870  11.211   0.243   2.766 -0.1564 -0.2079 -0.0370
13610W        W29871  12.414   3.230   2.619  0.1672 -0.0171  0.1034
13611W        W29872  18.301   6.667  14.387 -0.1180 -0.3538 -0.3205
13612W        W29873   5.303  16.332  11.512 -0.1410  0.2509 -0.0305
13613W        W29874  18.292   0.485  12.934 -0.1510  0.0218 -0.2839
13614W        W29875   1.475   2.983  11.503  0.0507  0.3293  0.1509
13615W        W29876   6.699   0.626   5.358 -0.0307 -0.1321  0.1396
13616W        W29877   9.150   1.689  13.187 -0.2374  0.3124 -0.0831
13617W        W29878   1.591   4.259  12.163  0.1196  0.1204  0.1077
13618W        W29879   8.851   8.216   4.230  0.0776  0.1044  0.1467
13619W        W29880   5.559  17.275  12.661 -0.0623 -0.3176  0.0649
13620W        W29881   6.823   4.429   0.673  0.1992 -0.3213 -0.1425
13621W        W29882   0.233   8.856  12.204 -0.0044 -0.0286 -0.2847
13622W        W29883   5.663   0.056   2.190  0.0166 -0.2541  0.3427
13623W        W29884   0.191  14.796   3.081 -0.0134  0.1491 -0.0992
13624W        W29885   0.172  18.669  15.066 -0.3708  0.1237 -0.1652
13625W        W29886   8.272   1.448  15.356 -0.1138 -0.2371 -0.2054
13626W        W29887  14.657   6.288   4.430  0.1626 -0.2007 -0.1423
13627W        W29888   8.362  12.942   1.781  0.2846 -0.0116 -0.2398
13628W        W29889  12.314  17.765  14.397  0.0562 -0.0339  0.0606
13629W        W29890  10.461   4.515  12.956 -0.0106 -0.2412 -0.2499
13630W        W29891   8.468  15.327   1.876 -0.2404 -0.2056  0.1013
13631W        W29892  15.306  12.103  10.567  0.1215  0.0059 -0.2038
13632W        W29893  12.205  18.348  10.234  0.1440 -0.1250 -0.0959
13633W        W29894  14.879   1.263  13.600  0.3158  0.1322 -0.3568
13634W        W29895  18.045  10.639   1.497  0.2150  0.1382  0.1580
13635W        W29896  17.207   7.742  12.222  0.0565  0.1260 -0.0560
13636W        W29897  18.671  12.625   3.877  0.1274  0.3375  0.1183
13637W        W29898   1.561  17.028   0.761  0.0971 -0.3255  0.2295
13638W        W29899  13.922  11.761   3.870 -0.1056  0.0695  0.0685
13639W        W29900  12.004   3.444  12.666 -0.1414 -0.2058  0.0290
13640W        W29901   1.752  14.031   0.378 -0.1457  0.2331  0.0818
13641W        W29902   9.766  11.772   9.542 -0.0785  0.1715 -0.1825
13642W        W29903  14.036  17.502  15.561 -0.0723 -0.1146  0.0544
13643W        W29904  17.586   4.354  10.697  0.1852  0.1971  0.3402
13644W        W29905   4.083  17.271  15.541 -0.3206  0.2222 -0.0579
13645W        W29906   0.964   6.299   5.553 -0.4207 -0.0639 -0.0245
13646W        W29907   0.196   8.572  13.890 -0.2421  0.3207  0.0087
13647W        W29908  15.876  11.879   3.982 -0.2106  0.0652 -0.0027
13648W        W29909   7.264  15.461  12.490 -0.0592 -0.0114  0.2502
13649W        W29910  17.645  18.073  10.576  0.1337  0.0422  0.0324
13650W        W29911  14.944  14.255   4.440 -0.0525  0.1505 -0.0316
13651W        W29912   3.325  16.130   1.483 -0.0215  0.2717 -0.1987
13652W        W29913  11.042   2.825  14.723  0.1447 -0.2091 -0.1471
13653W        W29914   4.930   3.822   4.056  0.1266  0.2085 -0.0539
13654W        W29915   7.196   6.026   2.899 -0.1376 -0.2565  0.1406
13655W        W29916  16.368  11.015   0.486  0.2369  0.1401  0.1852
13656W        W29917   8.907   4.932   2.377 -0.2150 -0.0452  0.2173
13657W        W29918  15.631   3.107  10.645  0.1211 -0.1096 -0.3312
13658W        W29919   7.183   5.518   0.006  0.4416  0.0360 -0.0304
13659W        W29920   0.881   7.074  15.138 -0.2221  0.2998  0.1439
13660W        W29921   9.352   2.731  13.266  0.0350 -0.1962  0.2446
13661W        W29922  11.244  14.594   1.063 -0.3214  0.1608 -0.1251
13662W        W29923  14.925  11.360   4.292  0.2609 -0.2013 -0.0616
13663W        W29924   5.057  14.224   1.300  0.2279  0.0468  0.1168
13664W        W29925   3.175   7.595  11.989 -0.2276  0.0252 -0.3133
13665W        W29926  14.427   4.096  14.977  0.0105 -0.2374  0.0706
13666W        W29927   7.145   2.297  12.089  0.1698  0.0825  0.2170
13667W        W29928  16.551   2.135  11.375  0.1390  0.2307  0.1965
13668W        W29929   8.549   4.484  14.898 -0.1377 -0.1802  0.0036
13669W        W29930   8.800   8.622  12.556  0.0455 -0.2619  0.0845
13670W        W29931   0.446   5.781   1.434 -0.0726 -0.0983 -0.2454
13671W        W29932   7.546  14.311  14.736 -0.0261  0.1297  0.1193
13672W        W29933  13.813   3.854   4.799 -0.2422 -0.0028  0.1562
13673W        W29934   2.273   8.258   4.953  0.0208 -0.0912  0.0790
13674W        W29935  11.358  18.760   1.326  0.2910  0.2918  0.0370
13675W        W29936   4.006   0.303   0.377 -0.3779 -0.1736 -0.0081
13676W        W29937  16.057  11.578  12.919  0.0411 -0.0211 -0.0899
13677W        W29938   1.585  17.714  13.477 -0.0879  0.4540 -0.1646
13678W        W29939   8.285  14.986  13.275 -0.2656  0.1160 -0.2566
13679W        W29940   3.513   6.435   4.128 -0.0209 -0.0959 -0.2898
13680W        W29941  14.108  15.783   1.391  0.1935  0.1470 -0.2476
13681W        W29942   0.873   3.568  15.037  0.0319 -0.1763  0.2493
13682W        W29943  18.206  13.320  12.832 -0.0819  0.0568 -0.0958
13683W        W29944  15.466  12.366   5.641 -0.0746  0.1120  0.1332
13684W        W29945  18.744   2.893   1.678  0.5119 -0.0426  0.0622
13685W        W29946   1.194   5.389  13.148  0.0997  0.0233  0.0830
13686W        W29947   3.442  14.981  13.144 -0.0921  0.0326  0.2567
13687W        W29948   2.428  16.112  12.391  0.0435 -0.0630 -0.0243
13688W        W29949   0.854  11.021   2.633  0.1777  0.0520  0.2462
13689W        W29950   3.172  16.471   0.242 -0.0244 -0.0559  0.2989
13690W        W29951   5.021  10.176  14.967  0.1835  0.0769  0.2448
13691W        W29952   9.076  14.142  11.202  0.2509 -0.0604 -0.1886
13692W        W29953  11.973  12.345  11.625  0.1355 -0.1277  0.1369
13693W        W29954  16.504   0.813   4.316 -0.0800  0.4076  0.2314
13694W        W29955  17.304  18.070   0.806  0.1676 -0.0630 -0.3438
13695W        W29956  15.542  18.491   3.931 -0.0472 -0.0609  0.2893
13696W        W29957  14.721   4.482   1.523 -0.0670  0.1324 -0.1705
13697W        W29958  16.584  16.314   0.381  0.1104  0.2515  0.1369
13698W        W29959  11.056  13.372   2.326 -0.3730 -0.1460  0.1280
13699W        W29960  17.918  17.350   2.796  0.1784  0.2162  0.0002
13700W        W29961   5.629   8.718   4.045 -0.2373 -0.1211  0.0356
13701W        W29962   2.912   7.421   1.356  0.0156  0.3502 -0.3518
13702W        W29963   6.735  15.861   3.415 -0.2700  0.0016 -0.0155
13703W        W29964   1.883   4.864  10.228  0.2105  0.0865  0.0540
13704W        W29965  17.357   3.946  14.855 -0.2516  0.0927  0.2881
13705W        W29966  17.549   1.537   2.057 -0.0787 -0.0075 -0.1181
13706W        W29967  13.376  18.653   3.708  0.2819 -0.1277 -0.0471
13707W        W29968  11.578  17.262  14.808 -0.0415 -0.3726 -0.0286
13708W        W29969  18.080  17.706  13.535  0.0061  0.0937 -0.1577
13709W        W29970  15.056   1.141   1.158  0.1282  0.1593  0.0279
13710W        W29971  14.817  18.069   5.560 -0.2812 -0.1899  0.0697
13711W        W29972   1.772   2.696  10.321  0.2555 -0.1348  0.1546
13712W        W29973   2.594  13.624   1.467 -0.0285  0.1518 -0.0108
13713W        W29974   8.864   1.469   0.600 -0.1313 -0.1522  0.2187
13714W        W29975   1.005   9.099   4.059 -0.3055  0.2513  0.1056
13715W        W29976   7.782  16.466   2.924  0.0271 -0.2949 -0.2711
13716W        W29977   7.130  11.072  13.678  0.0180  0.0139  0.1008
13717W        W29978   2.199   3.395   1.776 -0.0793  0.0318  0.0215
13718W        W29979  13.648   2.315  13.951  0.2644  0.0215 -0.2457
13719W        W29980   2.080  13.847   1.735 -0.1557  0.1614  0.0846
13720W        W29981  11.746  15.773   3.730  0.3334 -0.1849  0.4685
13721W        W29982  13.250  12.252   1.003  0.3199 -0.2854 -0.0445
13722W        W29983   9.921  12.003   2.313  0.0938  0.1855  0.1967
13723W        W29984   9.194   2.815  15.604 -0.0981  0.1922  0.2349
13724W        W29985  11.407  14.723  11.971  0.1657  0.2014 -0.0369
13725W        W29986  16.021  10.243   2.515 -0.2092  0.0276 -0.1369
13726W        W29987   6.844   8.054   1.092 -0.1599 -0.0659 -0.2526
13727W        W29988  12.986   8.340   3.145  0.1408  0.2430  0.2494
13728W        W29989  13.837   4.040  14.331  0.2839  0.2712  0.1323
13729W        W29990   2.279  17.881  14.440  0.0432  0.2800  0.1847
13730W        W29991   9.536  17.610   5.308  0.1091  0.2316 -0.1757
13731W        W29992   4.347  13.116  11.504 -0.1580 -0.3107  0.2959
13732W        W29993   3.456   4.955   5.112 -0.1345  0.0283 -0.3955
13733W        W29994  11.380  16.642  14.050 -0.3808 -0.1557 -0.0825
13734W        W29995  15.311  12.679  13.508  0.1493 -0.3255 -0.0352
13735W        W29996  14.530  18.520  11.247  0.0341  0.1499  0.0317
13736W        W29997   7.900   2.311   4.628 -0.1334 -0.1407 -0.1439
13737W        W29998   8.880   7.385  15.398  0.1831  0.1271  0.4160
13738W        W29999   3.624   5.053  11.502  0.0098 -0.1850  0.0284
13739W        W30000  14.908   2.935   5.457  0.0481 -0.0774 -0.1007
13740W        W30001  14.585  16.599   0.213 -0.1039 -0.1104 -0.2556
13741W        W30002  14.414   1.673  10.532  0.0064  0.6263 -0.3072
13742W        W30003   5.628   7.951  13.222  0.0832 -0.0421  0.0961
13743W        W30004   2.515   5.404  13.277  0.0091  0.0193 -0.0602
13744W        W30005  16.543  14.224   0.175  0.0784 -0.1974 -0.0351
13745W        W30006   2.229  18.021   0.697 -0.3144  0.1881  0.0797
13746W        W30007   9.467   1.057   1.112 -0.3115  0.3307 -0.1124
13747W        W30008  10.848  16.411   1.024  0.0330  0.0139  0.3212
13748W        W30009  10.600   6.014  13.025  0.1601  0.1985  0.0314
13749W        W30010   7.734  15.560  12.638 -0.1205  0.1131  0.3261
13750W        W30011  15.062   7.396  13.895  0.0457 -0.1494  0.2505
13751W        W30012  13.370  16.951   2.875  0.0413  0.0438  0.3118
13752W        W30013  14.406   7.291   1.101 -0.2177 -0.1538 -0.3860
13753W        W30014   4.751   3.939   1.990  0.0660 -0.1136  0.0216
13754W        W30015   8.979   0.758   1.161  0.1109 -0.1837  0.1657
13755W        W30016   1.115  10.760   3.253 -0.2098 -0.1184  0.0427
13756W        W30017   0.110  17.252   4.461  0.1568  0.2036  0.0145
13757W        W30018  11.614   3.891  13.339  0.0986  0.0219  0.0667
13758W        W30019  10.006   6.328   0.484  0.2008  0.2445  0.0394
13759W        W30020   9.709   0.305   3.624 -0.5550  0.1831  0.1280
13760W        W30021  11.337   9.639   0.174  0.0099  0.2267 -0.0305
13761W        W30022  18.342   6.220  11.011  0.1062  0.2362 -0.2614
13762W        W30023   8.926  15.270  13.757  0.1026 -0.1039 -0.1184
13763W        W30024   0.418   9.174   3.289 -0.0227  0.2262  0.0832
13764W        W30025  11.140  14.221   2.576  0.0315 -0.0064  0.0739
13765W        W30026  10.058  13.660  10.656  0.2703 -0.2113  0.0467
13766W        W30027  16.270   6.384   1.936  0.2633  0.2096  0.0743
13767W        W30028   5.271   3.205  12.306 -0.1174  0.1860  0.1956
13768W        W30029  13.897  12.839   0.985  0.0812 -0.0883 -0.2046
13769W        W30030   6.072   3.333  13.151 -0.1089 -0.0782  0.0389
13770W        W30031   7.476   6.701   5.155  0.0447 -0.2373 -0.0010
13771W        W30032  15.961   3.593   1.594  0.0312  0.0383  0.2044
13772W        W30033   4.269  11.981  10.035 -0.0810  0.1124 -0.3619
13773W        W30034   4.892   6.794   2.709  0.2458 -0.1951  0.1616
13774W        W30035   3.437  17.558   4.609  0.0631 -0.4000 -0.0840
13775W        W30036   8.187  10.929  12.173  0.4112  0.1609 -0.2407
13776W        W30037   1.168   9.427  12.139 -0.1772 -0.1373  0.0093
13777W        W30038   1.028   8.416  13.996 -0.1193 -0.2538  0.0598
13778W        W30039  11.352   7.307  13.659  0.1255 -0.0376  0.2589
13779W        W30040   8.806   7.348  10.999 -0.3297 -0.0286  0.0642
13780W        W30041  14.442  10.320  15.533 -0.0987 -0.1120  0.0237
13781W        W30042   4.904   6.717   3.192 -0.1059  0.3224 -0.0591
13782W        W30043   9.926  16.033   5.003 -0.3444 -0.2199  0.1137
13783W        W30044  10.592   1.088   4.020 -0.1584  0.0922  0.1514
13784W        W30045   8.414   7.040   5.290  0.1405  0.1823 -0.1830
13785W        W30046  10.771   0.286  11.433  0.1490 -0.3918  0.0408
13786W        W30047   8.142  14.379   3.332  0.0573  0.1449  0.0214
13787W        W30048  12.484   8.210   0.660  0.0460 -0.0294  0.0546
13788W        W30049   4.522  10.324  15.033  0.1938  0.1579 -0.1568
13789W        W30050   6.241   0.352  13.533  0.0568 -0.0805 -0.1374
13790W        W30051   1.792  13.995  11.539 -0.3846  0.2389  0.0104
13791W        W30052  15.421  13.250   0.116  0.0554 -0.1365 -0.0625
13792W        W30053   0.593  18.703   1.801  0.2115 -0.1835  0.2097
13793W        W30054   7.892   0.617   2.050 -0.2349  0.0986  0.0870
13794W        W30055  14.006  11.477  14.930  0.0989 -0.0516 -0.0178
13795W        W30056   1.637  15.004   4.516  0.2170 -0.1564 -0.2515
13796W        W30057   3.594  15.346   4.819 -0.2653  0.1883 -0.2141
13797W        W30058   2.119  16.762  15.189 -0.2103 -0.0552 -0.0752
13798W        W30059  18.466   9.401  15.433 -0.1800  0.0837  0.0185
13799W        W30060  15.897   7.806  15.226  0.0973 -0.1760 -0.1428
13800W        W30061   4.609  16.133  15.019 -0.2276  0.0914  0.1884
13801W        W30062  10.366   5.981   5.058 -0.1486 -0.0138  0.2000
13802W        W30063  13.410   8.602   1.534  0.2587 -0.0661  0.0415
13803W        W30064   1.585  16.330  11.126  0.0751  0.1366  0.2590
13804W        W30065   1.485   5.438   1.159  0.0306  0.2532  0.2167
13805W        W30066  17.019  15.290  13.136  0.0909  0.2810  0.1746
13806W        W30067   7.616   6.622   0.074  0.2541 -0.0830 -0.0915
13807W        W30068   1.253   6.492   4.310 -0.2551 -0.1313  0.0347
13808W        W30069   2.151   3.926  10.794 -0.1414 -0.0897  0.2241
13809W        W30070  11.102   8.190  13.154  0.0131 -0.1908 -0.2202
13810W        W30071   7.866   0.082  11.103  0.0283  0.4408  0.2933
13811W        W30072   5.277  14.532  13.369 -0.3974 -0.0153  0.2288
13812W        W30073   8.969   5.199  11.233  0.0559 -0.0435 -0.3942
13813W        W30074   8.754   8.206   1.905 -0.0486  0.3480  0.0829
13814W        W30075  12.389  15.770  11.372 -0.2150  0.0600  0.0092
13815W        W30076   3.683  12.732  12.780  0.2367  0.1273 -0.0505
13816W        W30077  15.760   3.977   3.742  0.1338  0.0940 -0.1661
13817W        W30078  18.280   7.204   0.699 -0.1760 -0.0896 -0.0082
13818W        W30079  17.896   5.163   0.006 -0.1643 -0.3371  0.2412
13819W        W30080  14.943  15.948   4.674 -0.1021  0.2006 -0.2881
13820W        W30081  10.518   4.997  12.799  0.0471 -0.3232  0.0600
13821W        W30082  10.714  17.591   0.088  0.2468 -0.1956  0.3357
13822W        W30083   6.852  15.087   5.510  0.0213 -0.1181 -0.1680
13823W        W30084   2.839   9.442  14.336 -0.1000  0.0856 -0.2957
13824W        W30085   2.266   0.116   3.578  0.0459 -0.1889  0.2874
13825W        W30086  11.784   7.304  13.962  0.2276  0.0489  0.1244
13826W        W30087  18.124   9.139  10.860 -0.2456 -0.3400 -0.0845
13827W        W30088  18.058  14.219  13.728  0.1110  0.0892 -0.2292
13828W        W30089  10.385   4.377   4.708 -0.4620  0.0518  0.3848
13829W        W30090  15.214  18.224   5.047  0.0510  0.0459  0.3602
13830W        W30091   7.355   0.661  12.660  0.2383 -0.1218 -0.0392
13831W        W30092  13.969  17.838  11.526 -0.0847  0.2923 -0.0060
13832W        W30093   9.419   7.228   3.491  0.1515  0.2040 -0.0873
13833W        W30094   7.729   7.328   2.775 -0.1107  0.1232 -0.1439
13834W        W30095  10.347  11.207  14.470 -0.1168  0.0892  0.0886
13835W        W30096  17.321   6.940   5.611  0.0467 -0.1331 -0.2793
13836W        W30097   1.239  14.034  13.674  0.0567 -0.0135 -0.1417
13837W        W30098  10.285  12.756   5.276 -0.0497  0.1743 -0.1110
13838W        W30099   6.405   2.699   4.075  0.1588  0.1509  0.2010
13839W        W30100  10.729   2.301  14.413  0.1315 -0.2835 -0.3056
13840W        W30101  13.230  12.524   3.773  0.0920  0.3438 -0.1576
13841W        W30102  12.072  14.102   4.294 -0.0152  0.1205  0.1709
13842W        W30103   3.208  18.508   2.492  0.0522 -0.0558 -0.2245
13843W        W30104   4.594   6.036  11.987 -0.0475 -0.0740  0.2589
13844W        W30105  12.335   6.206  12.820  0.0867 -0.1413 -0.0214
13845W        W30106  14.934  18.580   4.684  0.0448  0.1863  0.2524
13846W        W30107  10.306  15.348   0.654 -0.0781 -0.0672  0.0571
13847W        W30108   5.780   5.077  15.002 -0.3824 -0.1734  0.5415
13848W        W30109  18.374  14.103   5.291  0.3248  0.2837  0.3401
13849W        W30110   1.755   1.706  11.348 -0.0150  0.0564  0.3046
13850W        W30111  17.985   5.814  11.010 -0.2922  0.0492  0.1923
13851W        W30112  11.643   9.840   4.290  0.0082 -0.1594  0.2800
13852W        W30113   0.401  15.822  15.100  0.0711 -0.2557  0.1855
13853W        W30114   5.554  17.986   0.413  0.1335 -0.1349  0.0849
13854W        W30115   1.128   7.349  14.757  0.1830 -0.2066 -0.1804
13855W        W30116  12.635   7.506   2.963  0.2606  0.4665 -0.1896
13856W        W30117   4.109   2.956  14.198 -0.1387  0.0824 -0.0797
13857W        W30118   0.030  12.697  14.986  0.1930 -0.0973 -0.0683
13858W        W30119   1.097   8.673   0.717  0.0679 -0.0492  0.0962
13859W        W30120   4.949  13.973  12.452 -0.0072 -0.1528  0.2889
13860W        W30121   9.310  13.856  14.418  0.0841 -0.1008  0.0400
13861W        W30122  14.681   1.033  15.409 -0.2758  0.0920 -0.2607
13862W        W30123   1.125   3.975   1.603  0.0327  0.4751  0.0517
13863W        W30124   1.390  17.825   1.884  0.0945 -0.1363 -0.0460
13864W        W30125  16.739   4.507  15.585  0.2370  0.1398  0.2181
13865W        W30126  15.200  12.540  14.550  0.2467  0.0825 -0.0984
13866W        W30127   2.496   8.819  12.403 -0.0933  0.1816  0.1021
13867W        W30128   0.313   6.493   3.024 -0.3661 -0.1951 -0.0670
13868W        W30129  15.909   0.647   3.090  0.1405  0.1549  0.1555
13869W        W30130   3.447  12.774   0.076 -0.0526  0.0991 -0.1928
13870W        W30131   2.073  17.403   1.622 -0.2376  0.3333  0.3559
13871W        W30132  18.273   8.542   1.530 -0.1928 -0.0075  0.0254
13872W        W30133   3.665  16.017  15.247 -0.5552 -0.2728  0.4169
13873W        W30134  17.160  16.799  15.304 -0.0281 -0.0184 -0.1656
13874W        W30135   0.163  16.790   4.076 -0.0382  0.2731 -0.0281
13875W        W30136   8.893  15.878  15.625  0.1138  0.0530  0.0712
13876W        W30137   2.798  15.614   4.723  0.0085 -0.0556  0.2997
13877W        W30138   1.023   5.152   0.725 -0.2132  0.1808 -0.3231
13878W        W30139   7.271   8.491   5.115  0.1148  0.0773  0.2182
13879W        W30140  13.707  18.151  14.457 -0.3053 -0.0038 -0.0666
13880W        W30141  12.296  13.900  10.344  0.0694 -0.1020 -0.1669
13881W        W30142  11.803  13.795  10.671 -0.0638 -0.0078 -0.0115
13882W        W30143   9.100   9.342   3.625 -0.2996  0.0489 -0.1770
13883W        W30144  12.287  10.005  11.184 -0.0625 -0.2568 -0.0298
13884W        W30145   6.061   3.747  11.987 -0.0066  0.1822  0.0565
13885W        W30146   5.937  11.192   0.658  0.2075  0.0485 -0.1411
13886W        W30147   9.080   8.205   2.794 -0.2673  0.1204  0.1904
13887W        W30148  12.929   3.973   3.969 -0.2704 -0.1006  0.1791
13888W        W30149  17.318   9.029   3.485  0.1749 -0.2269 -0.0388
13889W        W30150   1.915   1.889   3.362 -0.1126  0.0011  0.0233
13890W        W30151   4.478   0.385  13.226  0.0323 -0.1254  0.2857
13891W        W30152   3.177   8.330  15.444 -0.0625 -0.4076 -0.0389
13892W        W30153  17.765   6.327   3.996 -0.2522  0.3611 -0.1989
13893W        W30154  14.222  11.258   1.651 -0.1225  0.0360 -0.1127
13894W        W30155  12.594   1.074   1.973 -0.4140  0.0954 -0.1749
13895W        W30156   8.736   8.496   5.319  0.0477 -0.3453  0.1959
13896W        W30157   2.560   1.926  11.233  0.0946 -0.2058 -0.0169
13897W        W30158  11.362  10.395   2.617  0.0086  0.4112  0.0320
13898W        W30159  13.085   9.739  14.061 -0.1212  0.0136 -0.2881
13899W        W30160  14.729  15.942  10.609 -0.2098 -0.1401  0.1516
13900W        W30161   2.746   2.416  14.749 -0.1835 -0.0225  0.1379
13901W        W30162   8.681  18.324   5.788 -0.2358 -0.0554  0.0909
13902W        W30163  18.327  15.414   4.933  0.0543 -0.0291  0.3795
13903W        W30164   8.506   9.140   4.448 -0.0395  0.1923  0.0866
13904W        W30165   4.140   7.535   0.833 -0.2994 -0.2355 -0.1413
13905W        W30166  11.962   4.140  14.480 -0.1944  0.0465 -0.1454
13906W        W30167  17.757   7.723   4.475 -0.0450  0.3740 -0.1379
13907W        W30168   8.776   1.059   2.817  0.2296  0.0476 -0.0676
13908W        W30169   1.691   7.217  14.715 -0.4251 -0.0049 -0.1708
13909W        W30170   3.037   4.041   2.775 -0.3574  0.1566  0.2439
13910W        W30171   9.101  18.621  11.415 -0.0646  0.0931 -0.1503
13911W        W30172  15.290   6.095  14.210  0.0740 -0.0244 -0.0200
13912W        W30173  13.310   3.136   1.939 -0.3986 -0.1923 -0.1389
13913W        W30174   1.552   5.377   0.575 -0.2301  0.1718 -0.1938
13914W        W30175   0.497  13.214   3.641  0.4461 -0.2570  0.2755
13915W        W30176  12.819   1.572   4.253 -0.0906 -0.1116  0.0204
13916W        W30177  10.293  14.127  11.644 -0.2863  0.3298  0.1183
13917W        W30178  12.543   5.666   2.770 -0.0974  0.2894  0.1768
13918W        W30179  17.337  11.157   5.275  0.1669 -0.0687  0.0873
13919W        W30180  13.747   3.465  15.427 -0.0731 -0.2588 -0.5922
13920W        W30181  11.677  14.303  11.929 -0.1332  0.0500 -0.2758
13921W        W30182   2.841  16.097   1.883 -0.2074 -0.0582  0.2387
13922W        W30183  18.344   0.300  10.793  0.0133  0.0022 -0.1640
13923W        W30184  12.243  10.179   1.053  0.0305 -0.2057  0.3009
13924W        W30185   7.795  14.808  14.688 -0.0117  0.1154  0.0860
13925W        W30186  15.863   1.584   1.636  0.1504  0.3128  0.0995
13926W        W30187   8.688  10.092   3.085 -0.2540  0.0462  0.3364
13927W        W30188   5.862  17.558   4.415 -0.1802  0.0393  0.0777
13928W        W30189   1.670  13.324   2.502 -0.2105  0.0747  0.0933
13929W        W30190   8.087   2.535   1.918  0.0441  0.1053  0.0766
13930W        W30191  10.842   2.264  15.406 -0.4152 -0.0364 -0.0755
13931W        W30192   4.925  11.670   4.167  0.3669 -0.1019 -0.1503
13932W        W30193   3.889  16.914   4.466  0.1397 -0.2401  0.1624
13933W        W30194   1.066   4.334  15.085  0.2178 -0.5774 -0.0807
13934W        W30195  15.765  13.099   1.202  0.0992 -0.1477 -0.0271
13935W        W30196  16.187  13.569  13.701  0.1823  0.1647 -0.0018
13936W        W30197   6.330  13.099  13.458  0.1700  0.0436 -0.1420
13937W        W30198  13.083  11.338  13.989 -0.1205  0.1354  0.0959
13938W        W30199   3.651   7.615  13.033  0.1067 -0.1074 -0.1213
13939W        W30200  13.276   3.052   3.333  0.0265  0.2084 -0.1624
13940W        W30201  16.024  10.547   3.775  0.1939 -0.1416  0.2197
13941W        W30202  18.331   3.687   1.948 -0.1667  0.1121  0.1852
13942W        W30203   1.928   0.009   3.078  0.3325 -0.1909 -0.2049
13943W        W30204  13.349   2.562  15.532 -0.1274  0.0284  0.0183
13944W        W30205   5.114  13.782  12.938 -0.1331 -0.2451 -0.2011
13945W        W30206   0.511  12.241  11.425  0.1620 -0.0102  0.0334
13946W        W30207  14.438  15.040  10.730  0.2609  0.2877 -0.3839
13947W        W30208   2.102   1.845  14.431  0.0823 -0.1089 -0.3394
13948W        W30209   7.694   4.022  13.889 -0.3795 -0.1996 -0.3744
13949W        W30210   1.790   9.975  12.739 -0.4923 -0.0687  0.3076
13950W        W30211   1.453   6.834  15.086 -0.1774  0.2146 -0.2901
13951W        W30212  12.984   6.140   5.185 -0.3899 -0.1694  0.2430
13952W        W30213  13.088   8.800  14.124  0.0511 -0.2244 -0.0400
13953W        W30214  16.276  13.939  11.147  0.0747  0.0163  0.2287
13954W        W30215   9.589  15.738  13.289  0.1585  0.3354 -0.3498
13955W        W30216  14.211   7.078  11.365  0.0156 -0.1141 -0.0409
13956W        W30217   4.668   8.480   4.201 -0.1076  0.0254 -0.0101
13957W        W30218   0.666   1.327  10.039  0.0162  0.0184 -0.3512
13958W        W30219   0.608   4.150  15.530 -0.1418 -0.1005 -0.1181
13959W        W30220   3.129  17.650  13.356  0.1521  0.1092 -0.3162
13960W        W30221   0.353   1.749   9.945  0.2776  0.0838  0.1338
13961W        W30222   2.273  18.568  11.199 -0.1287  0.0235  0.1338
13962W        W30223   0.126  16.942   9.273  0.0154 -0.1190  0.1932
13963W        W30224   8.976  18.093   5.428 -0.2558 -0.4642 -0.2607
13964W        W30225   0.158   2.396   4.328 -0.3491  0.1216  0.0125
13965W        W30226   4.290  13.213  13.410 -0.0794  0.1279 -0.0592
13966W        W30227   5.883  13.809   4.790 -0.0573  0.1350  0.0101
13967W        W30228   7.366   0.732  14.479  0.0949 -0.0254 -0.3125
13968W        W30229   5.645   5.097  14.341  0.0281  0.0120  0.0755
13969W        W30230  14.654  13.796  14.015  0.1754 -0.3710  0.0810
13970W        W30231   7.018   7.495   5.033 -0.3673  0.0897 -0.0392
13971W        W30232   5.924  12.636   0.056  0.0501 -0.0514 -0.0291
13972W        W30233   2.165   4.136   5.515 -0.2879 -0.3020  0.1428
13973W        W30234   8.028  11.032   4.459 -0.2169  0.1071 -0.0013
13974W        W30235   1.314   0.017   4.332 -0.3939  0.1807  0.1744
13975W        W30236  13.193   2.115  13.287 -0.2114  0.2809  0.1474
13976W        W30237   5.322  11.829   4.468  0.1281  0.1296  0.1227
13977W        W30238  18.379  12.342   1.746 -0.0184  0.0493  0.1346
13978W        W30239   8.748   8.578  11.409  0.3277 -0.1929 -0.0084
13979W        W30240  17.210   1.140  14.512 -0.1346  0.2238  0.0877
13980W        W30241  12.532  12.019   3.933  0.2325 -0.1291 -0.0709
13981W        W30242   3.204   6.047   3.335 -0.2036  0.2375 -0.1169
13982W        W30243   3.474   0.170   0.401  0.1961  0.0382 -0.0535
13983W        W30244   7.570  15.751   4.512  0.1084 -0.1196  0.0411
13984W        W30245  17.478   7.704   0.764  0.2469  0.0253  0.1490
13985W        W30246   7.208  18.141   0.983  0.3143  0.1531 -0.4406
13986W        W30247  11.808   9.667   3.874 -0.1303 -0.0475  0.2610
13987W        W30248   4.682   2.125  13.420 -0.1359  0.1517 -0.2018
13988W        W30249   4.785  16.753  14.799  0.0543  0.2349  0.0329
13989W        W30250   0.247   9.837   4.064 -0.2164 -0.0631 -0.2346
13990W        W30251  15.835  10.017  12.806  0.1888 -0.0201 -0.0882
13991W        W30252   2.994  13.305   4.052  0.1017  0.2884 -0.3175
13992W        W30253   1.704  13.281   4.084 -0.1468  0.0661 -0.1269
13993W        W30254   9.153   9.148   4.962  0.0382  0.1144 -0.0038
13994W        W30255   2.433   0.630  12.500 -0.0133  0.0076 -0.0924
13995W        W30256  15.528   3.650  14.594 -0.2498 -0.0668  0.0738
13996W        W30257   0.809  14.408  11.624  0.0732 -0.0699  0.1290
13997W        W30258   6.036   6.022   0.178 -0.0563 -0.0574  0.0933
13998W        W30259  13.478  13.073  14.664 -0.1034 -0.0257  0.2088
13999W        W30260  14.442  17.848   0.072  0.1570 -0.2225  0.0720
14000W        W30261  14.066   6.847   1.977  0.1004  0.0549 -0.1814
14001W        W30262   8.184  14.935   1.221 -0.0208  0.2973  0.3090
14002W        W30263  12.972  17.285   2.450 -0.0099  0.1162 -0.0841
14003W        W30264  13.114   1.763  12.896  0.0628  0.0875 -0.2008
14004W        W30265  18.531   2.650  13.747  0.0716 -0.0068  0.2064
14005W        W30266  14.554   8.071  14.760  0.0925  0.1762  0.0599
14006W        W30267   9.321   3.386  13.066 -0.1126  0.0314  0.2032
14007W        W30268   2.892   5.719  12.367  0.1149  0.0222 -0.3308
14008W        W30269   8.144   0.596  13.663  0.3604  0.0216 -0.0823
14009W        W30270  12.299  18.498   0.857 -0.2110 -0.3609  0.0479
14010W        W30271   3.111   8.926  15.139 -0.2504  0.0397  0.0652
14011W        W30272   3.838  12.851  14.225  0.0593  0.2415  0.3587
14012W        W30273  11.205   3.418  11.536 -0.0582  0.1022  0.0269
14013W        W30274  13.508  11.459   9.695  0.0932  0.1714 -0.1401
14014W        W30275  16.518  13.653   5.077 -0.0246  0.2585 -0.1392
14015W        W30276   4.862  17.852  15.067  0.1460 -0.1806  0.1322
14016W        W30277   6.723   3.169   4.685  0.0302 -0.1586 -0.0296
14017W        W30278   9.818   2.672   5.858 -0.1512  0.0483  0.0366
14018W        W30279  18.635  15.701  14.222  0.0273  0.0369  0.1213
14019W        W30280  15.328   8.540   5.735  0.1233 -0.1322 -0.0648
14020W        W30281  17.850  17.576  12.753 -0.0685  0.0889 -0.1914
14021W        W30282  17.334  14.891  10.789  0.1325 -0.3562 -0.1241
14022W        W30283   3.576   8.115   1.552 -0.2761  0.1170 -0.0405
14023W        W30284   4.808   4.084  11.512 -0.0647  0.4247  0.2141
14024W        W30285  15.201   9.237  14.654  0.1527 -0.1567 -0.0359
14025W        W30286  15.846   6.013   3.337  0.0098 -0.2087 -0.0583
14026W        W30287  14.537  13.357   3.761 -0.0249  0.0113  0.0171
14027W        W30288  14.668   1.902  15.244  0.0719 -0.2335 -0.0925
14028W        W30289   8.420  11.221   0.844 -0.0655  0.0375 -0.0842
14029W        W30290   8.363  13.009   2.863  0.0432  0.4822 -0.0960
14030W        W30291   7.437  11.334   4.230  0.1991 -0.1412  0.0450
14031W        W30292  10.383   9.839  14.845  0.0289  0.2529 -0.3506
14032W        W30293   8.493  17.436   3.789 -0.1947  0.4121 -0.1443
14033W        W30294   9.016  11.690   5.221  0.1963  0.4034 -0.2114
14034W        W30295  14.502  10.283  10.833  0.1889  0.1847  0.1075
14035W        W30296  12.999   2.022   4.388 -0.2574  0.3725  0.1605
14036W        W30297  12.826   9.184  12.618 -0.1946  0.0227  0.0184
14037W        W30298   7.709  12.590  12.089 -0.2018 -0.1115  0.1238
14038W        W30299   9.353   8.395   6.156  0.0767  0.2080 -0.1637
14039W        W30300  16.418  15.350  11.783  0.3367 -0.0917 -0.1688
14040W        W30301  12.234   0.301   3.851 -0.1686  0.0279  0.1687
14041W        W30302  10.504  18.631   4.376 -0.0007  0.0869  0.1081
14042W        W30303   3.832   5.904   0.735  0.1324 -0.0363  0.1544
14043W        W30304  15.279  14.461   3.487 -0.0863 -0.1457  0.2808
14044W        W30305  18.291   6.959  12.779  0.0722 -0.2451 -0.0746
14045W        W30306  12.736   1.549  14.268  0.1051  0.0194 -0.1520
14046W        W30307  10.154  13.129  11.767 -0.0808  0.2356 -0.0539
14047W        W30308  13.853   7.107  13.701  0.3736 -0.1005 -0.0784
14048W        W30309  17.781   3.370   5.301 -0.0127 -0.0469 -0.0856
14049W        W30310  18.676   2.122   1.440  0.2575  0.0550  0.1820
14050W        W30311   2.211   1.570  11.035 -0.0663  0.1541 -0.2174
14051W        W30312   2.786  14.088  12.656  0.2291  0.0569  0.1136
14052W        W30313  16.837  10.148  11.980 -0.0461  0.0319  0.1319
14053W        W30314  18.731  15.535   3.880 -0.0575  0.1950 -0.0947
14054W        W30315   3.448   2.695   3.018 -0.1447 -0.1763 -0.1625
14055W        W30316  12.298   2.375  12.563  0.1473  0.1249 -0.1041
14056W        W30317   6.047  13.133  11.207  0.2886 -0.1132  0.1156
14057W        W30318   9.920   6.821  12.116  0.2585  0.0216  0.2887
14058W        W30319   7.897   5.784   1.088 -0.1805  0.1095  0.1508
14059W        W30320  17.997  15.798   4.015 -0.1889  0.0950  0.3485
14060W        W30321  16.946  17.602  14.482 -0.5080 -0.0419 -0.2403
14061W        W30322   8.876  18.163  11.280  0.0171 -0.4946 -0.0775
14062W        W30323  16.906  16.712   4.314  0.0091 -0.2911  0.1847
14063W        W30324  14.187   0.974  15.198 -0.0113  0.0056 -0.0672
14064W        W30325  12.685  14.978   1.352  0.1045  0.0941 -0.1228
14065W        W30326  15.502   0.472  10.558  0.0585 -0.1551  0.0585
14066W        W30327  13.681  18.140  13.574  0.0211 -0.3204  0.0954
14067W        W30328  13.883  13.630   1.742  0.1225 -0.1016  0.0589
14068W        W30329   6.704   9.067   1.486 -0.0639  0.3501 -0.0909
14069W        W30330   7.004   8.818  11.412  0.3484  0.0470 -0.1243
14070W        W30331   6.135   1.929   4.898  0.1052  0.0782 -0.0179
14071W        W30332  14.561   5.999  15.571  0.0262  0.0230  0.1278
14072W        W30333   9.720   3.821  14.078  0.2400  0.0508 -0.1179
14073W        W30334  11.816   8.576   3.910 -0.2638  0.0048 -0.2036
14074W        W30335  16.057   4.761  11.079 -0.2639 -0.0644  0.2658
14075W        W30336  14.626   5.278   1.332  0.0406  0.2152  0.2672
14076W        W30337   6.852   0.424  12.417 -0.1227  0.0289  0.0275
14077W        W30338  11.124   3.556  14.965 -0.0673  0.2024 -0.1914
14078W        W30339   3.908   2.853   1.907 -0.0987  0.0677  0.1292
14079W        W30340  13.159   0.693  14.951  0.4059  0.0100  0.1461
14080W        W30341   2.369  13.665  12.268 -0.0103 -0.2782 -0.3225
14081W        W30342  14.105   3.124  15.490 -0.1174  0.1602  0.1243
14082W        W30343   7.114  10.619   0.974  0.0640 -0.3626 -0.0682
14083W        W30344  12.428  18.733   3.550 -0.1960 -0.0863 -0.0165
14084W        W30345   3.600  14.952   5.304 -0.0891  0.2511 -0.0969
14085W        W30346   1.591   2.810  14.308  0.6003 -0.1751  0.1709
14086W        W30347  11.803   8.458  10.934  0.1898  0.3986  0.2276
14087W        W30348  18.062  13.811  15.090 -0.0536 -0.0057  0.4872
14088W        W30349   6.090  18.746   0.353  0.0015 -0.2581 -0.2623
14089W        W30350  17.056  12.518  11.807 -0.1157 -0.2596 -0.2606
14090W        W30351   2.255   4.478   3.240 -0.0022 -0.2910  0.1166
14091W        W30352   1.620   3.432   3.601 -0.1929 -0.2640  0.2227
14092W        W30353   1.180  11.369   2.440 -0.0394  0.1891  0.0642
14093W        W30354   6.224  16.499   5.170  0.0169  0.0545 -0.2478
14094W        W30355  15.078   5.456  12.778 -0.0366 -0.1903  0.1060
14095W        W30356   2.170   1.173   2.658 -0.2226  0.2881 -0.1568
14096W        W30357   2.278  14.103  11.469  0.3740 -0.0626 -0.4275
14097W        W30358   5.623  17.426   1.681 -0.0973  0.0304 -0.1483
14098W        W30359   7.505   0.695  13.113 -0.1915  0.3772  0.1244
14099W        W30360   4.802   5.945  14.159 -0.1717  0.0907 -0.0507
14100W        W30361  15.763   0.858  13.210 -0.3432 -0.1026  0.1467
14101W        W30362  14.091  17.238  12.333  0.1346 -0.1186  0.3259
14102W        W30363  10.686  10.554   9.809  0.0387 -0.1923  0.4117
14103W        W30364   1.517   7.593   3.766  0.0113  0.1031 -0.2108
14104W        W30365   0.699   5.070  14.571  0.1662 -0.1572 -0.1524
14105W        W30366  11.936   1.178  13.344  0.0922 -0.1068 -0.2482
14106W        W30367  16.605   1.180   3.462 -0.3216  0.3686 -0.1178
14107W        W30368   6.175   3.592   4.971 -0.0143 -0.1829  0.1979
14108W        W30369  13.665   5.217   5.256  0.0519  0.2743  0.0256
14109W        W30370  18.633   7.390  11.228  0.1616  0.2612  0.3766
14110W        W30371   5.131   7.200  14.142 -0.1907  0.1729  0.0775
14111W        W30372   9.944   6.752  13.322 -0.0550 -0.1476  0.1892
14112W        W30373   1.331   4.183  12.587  0.2303 -0.4026 -0.1615
14113W        W30374   7.777   8.609   4.434 -0.0245  0.1021 -0.1838
14114W        W30375  13.448   1.669   5.014  0.0506  0.1189  0.1387
14115W        W30376   4.243   2.851   3.873  0.0151  0.2533 -0.0523
14116W        W30377   6.912   7.632  13.475 -0.2303 -0.0559  0.1255
14117W        W30378  17.991   9.785   1.187  0.0131  0.0082 -0.1704
14118W        W30379   3.223  10.138   4.803 -0.2025  0.0736 -0.1033
14119W        W30380  16.482   2.123   3.592 -0.1622 -0.3066 -0.2939
14120W        W30381   4.367  11.239  15.194 -0.0870  0.3763  0.1250
14121W        W30382   4.775  15.057   1.472 -0.0607 -0.0670  0.0555
14122W        W30383   8.264  14.591   2.883 -0.1031  0.0270  0.0403
14123W        W30384   4.347  18.064   3.504  0.4003 -0.0402 -0.0758
14124W        W30385  10.678   8.389  11.207 -0.2267  0.1793  0.0232
14125W        W30386   7.165   1.455  12.174  0.0829 -0.2500 -0.0111
14126W        W30387  12.829  17.570   4.333 -0.0207 -0.4643 -0.0623
14127W        W30388   3.518   9.009  14.798  0.1918  0.2294 -0.0316
14128W        W30389  14.763  15.797   1.464 -0.1722  0.3528  0.2053
14129W        W30390   6.781  17.378   5.254  0.1422 -0.0745 -0.1985
14130W        W30391  13.413   1.853   1.827  0.2408  0.0264 -0.0637
14131W        W30392  13.525   3.228  12.132 -0.0808 -0.0531  0.0704
14132W        W30393   7.233   2.707   1.958  0.1564 -0.0148 -0.0559
14133W        W30394  17.806   3.537  13.675 -0.1502 -0.1849  0.2242
14134W        W30395  11.584  10.528  10.703  0.2114 -0.0339 -0.0664
14135W        W30396   6.365  14.156   3.756 -0.5198  0.0480  0.0897
14136W        W30397  11.893   6.452  11.116  0.1981  0.4912 -0.0662
14137W        W30398  15.018   0.887  11.559  0.0444 -0.0047  0.1706
14138W        W30399   6.363  10.102   2.399 -0.0434  0.1888 -0.0475
14139W        W30400  15.756  11.796  13.304 -0.1213 -0.0800 -0.1373
14140W        W30401   4.828  18.313   0.231  0.0757  0.0555 -0.1613
14141W        W30402   7.089   6.636  15.589  0.2769  0.2715 -0.2144
14142W        W30403   7.720  11.099  12.361  0.3425  0.1294  0.2445
14143W        W30404   4.458  11.864   2.719  0.5266  0.1883  0.1165
14144W        W30405  16.545   7.409  10.709  0.0470  0.1666  0.1510
14145W        W30406  15.002   9.433   1.506 -0.2461  0.4523  0.5166
14146W        W30407   4.498   6.955   5.574  0.2083 -0.1602 -0.2373
14147W        W30408   5.796  13.023  14.635 -0.2164  0.2518  0.0485
14148W        W30409  15.836  17.298  13.463 -0.1350  0.2934 -0.0454
14149W        W30410  15.893   4.641  14.523  0.1293 -0.2169  0.0718
14150W        W30411  14.046   3.611   0.677  0.0745  0.4103  0.0568
14151W        W30412  12.820   9.878   3.592 -0.0016  0.2043  0.0439
14152W        W30413  12.029   9.502  13.133 -0.0208 -0.2054  0.1133
14153W        W30414  13.289   4.887   5.244  0.2818 -0.0911 -0.2976
14154W        W30415  13.768   8.528  12.455 -0.1513 -0.2550 -0.0768
14155W        W30416   9.563   8.100  12.838  0.1213 -0.0923 -0.0436
14156W        W30417  12.146   2.556   5.038 -0.1498 -0.1452  0.0748
14157W        W30418  13.535   7.856  11.328 -0.2996 -0.0869 -0.0855
14158W        W30419   2.851   7.016  15.305  0.0418  0.0670 -0.1094
14159W        W30420  12.118  12.066   2.267  0.1317  0.0301 -0.0125
14160W        W30421   3.904  10.986   1.378  0.1021 -0.2262  0.2484
14161W        W30422  15.653  13.639   1.335  0.4033  0.0144 -0.0460
14162W        W30423  18.729   3.581   4.268  0.0517 -0.0874 -0.2106
14163W        W30424   1.016   3.804   4.893 -0.0246  0.0811 -0.0963
14164W        W30425   6.947  18.063   1.553  0.0001 -0.0894 -0.1691
14165W        W30426   4.332  11.660   4.846  0.2216  0.1835 -0.0186
14166W        W30427  15.371  10.731   5.062 -0.0428  0.4009  0.3369
14167W        W30428  15.060   5.145  14.461  0.0892  0.0151 -0.0192
14168W        W30429  12.796  13.217  11.244  0.0470 -0.2148 -0.0363
14169W        W30430  11.782   5.325   3.877  0.0759  0.2205 -0.0977
14170W        W30431   9.191   2.535   5.074  0.3302 -0.1723 -0.1883
14171W        W30432  11.927   3.623  14.530 -0.2229 -0.0258  0.0174
14172W        W30433  15.954  15.415  10.548 -0.1573  0.2000  0.0411
14173W        W30434   3.792  13.661   1.499 -0.2152 -0.0414 -0.2805
14174W        W30435  15.199  14.794  10.716  0.1365  0.2241  0.1240
14175W        W30436  10.764  14.106   0.282 -0.0586  0.1232  0.2761
14176W        W30437  14.682  17.515  15.468 -0.0817 -0.0796  0.1946
14177W        W30438  11.033  10.443  13.782  0.0830 -0.3481 -0.1719
14178W        W30439   1.055   4.956   2.068 -0.0253 -0.2090 -0.1744
14179W        W30440   7.858  14.966  13.003 -0.0919  0.4709  0.0175
14180W        W30441  10.315   6.390  14.458 -0.0603  0.1965  0.2728
14181W        W30442  17.685  13.963   0.118 -0.0433 -0.0320 -0.2227
14182W        W30443  13.653  12.252  14.868  0.0360 -0.0771  0.1391
14183W        W30444   6.828   1.874   3.955 -0.1991 -0.1480  0.1599
14184W        W30445   3.854   9.210  11.424 -0.3777  0.1511 -0.3324
14185W        W30446  16.093   3.323  10.923  0.2518 -0.1858 -0.0112
14186W        W30447   6.845  11.184  11.194 -0.0131  0.0196 -0.0044
14187W        W30448   9.299   7.541   5.042  0.2498 -0.0304 -0.0634
14188W        W30449  16.218  17.655  11.269 -0.0212  0.2756  0.1769
14189W        W30450  16.480  12.482  15.262 -0.0022 -0.1508 -0.1820
14190W        W30451   0.964  13.260  14.540 -0.1642 -0.0458 -0.1830
14191W        W30452   1.760   1.863   1.228 -0.3582  0.3744  0.3549
14192W        W30453  12.817   0.987  11.722  0.1381  0.0721 -0.0256
14193W        W30454  17.327   1.128   1.706 -0.0456  0.0544 -0.1322
14194W        W30455  15.111   9.043  10.928 -0.2067 -0.5557  0.1159
14195W        W30456  11.547   1.487  11.665  0.0665 -0.1411 -0.0398
14196W        W30457  10.498  11.919  13.264  0.6307  0.3987  0.3482
14197W        W30458   3.907  18.572  14.510  0.0580 -0.1317 -0.1407
14198W        W30459   6.614  16.796   0.646  0.1635 -0.1050 -0.3522
14199W        W30460   1.989   2.238   5.516  0.5070 -0.0992 -0.2644
14200W        W30461  16.394   7.630   2.716 -0.1852 -0.2801 -0.1667
14201W        W30462  11.846   9.275   1.753  0.1353 -0.1918  0.3300
14202W        W30463  12.212   5.553   4.660  0.2040 -0.1512 -0.0142
14203W        W30464  14.305  10.550  15.036 -0.0633  0.1950 -0.2691
14204W        W30465  17.294   0.740   9.863 -0.2070 -0.1240 -0.2912
14205W        W30466   2.450  10.323   5.226 -0.1874  0.0166  0.2495
14206W        W30467   5.249  10.287   3.457  0.2316  0.0410  0.0983
14207W        W30468  17.764   7.440  15.582 -0.0549 -0.2545  0.0966
14208W        W30469   4.229   0.199   2.965 -0.0176  0.1737  0.1424
14209W        W30470  14.004  11.198   3.772  0.4576  0.2740 -0.0483
14210W        W30471  17.631   4.866  10.906 -0.2873 -0.1638 -0.2902
14211W        W30472  14.615   6.298   3.940  0.2209 -0.0604 -0.3148
14212W        W30473   9.665   8.459   3.881  0.1015 -0.0520  0.1716
14213W        W30474   0.329  11.558  12.514  0.0266  0.0429 -0.2686
14214W        W30475  13.590   1.800   2.595 -0.3181  0.1904 -0.2039
14215W        W30476   0.227   7.369  14.988  0.1167  0.1320  0.3161
14216W        W30477   3.958   2.779  11.865  0.0311  0.0769 -0.0425
14217W        W30478  17.204  10.976   0.354 -0.1471 -0.0521 -0.0726
14218W        W30479   6.453  11.569   0.834  0.5030 -0.0313  0.1027
14219W        W30480   4.088  13.854  12.113  0.1029 -0.1760 -0.0351
14220W        W30481  16.314   3.893   3.702  0.1091  0.0272  0.2078
14221W        W30482   3.962  15.808  15.544  0.0259  0.0498  0.0384
14222W        W30483  10.557   3.914  13.700  0.1109  0.5996  0.0872
14223W        W30484  15.392   8.873  12.312  0.4147 -0.1590 -0.3064
14224W        W30485  12.283   0.312   0.979  0.0074  0.1636 -0.1008
14225W        W30486  16.796  14.689  10.608  0.1393  0.4823 -0.1369
14226W        W30487   6.031   7.558   2.033 -0.2732  0.0470  0.0955
14227W        W30488  18.671   2.733   4.172 -0.1793  0.1441  0.3145
14228W        W30489  13.217  10.162   0.158  0.1853 -0.2506  0.0162
14229W        W30490   6.658  11.568   1.307  0.0311 -0.1713 -0.2586
14230W        W30491  15.476  15.243   2.318  0.0988 -0.2453  0.2099
14231W        W30492   5.895  14.727   4.603  0.1149 -0.0384 -0.2068
14232W        W30493   1.451   2.021   3.442  0.0702  0.1791 -0.1401
14233W        W30494   8.974  13.565  14.204 -0.0423 -0.0568 -0.0016
14234W        W30495  14.949   5.337   4.747 -0.1050  0.1700  0.0595
14235W        W30496  11.596   9.835  11.904 -0.1046  0.1248 -0.1964
14236W        W30497   0.772   7.630   2.368  0.4540  0.2265  0.0475
14237W        W30498   7.106  11.402   4.603 -0.0314 -0.1710  0.0087
14238W        W30499  14.268  10.157   4.708 -0.1073  0.3100 -0.1264
14239W        W30500  11.282  12.822  15.236  0.0589 -0.0516 -0.2371
14240W        W30501   6.330   0.530   2.742  0.0525 -0.2694  0.0214
14241W        W30502   6.728  17.586   4.021  0.2455  0.0220 -0.0179
14242W        W30503   4.288  18.764   0.631 -0.0330  0.1040 -0.0722
14243W        W30504   1.422  13.753   0.124  0.1010 -0.0691  0.0605
14244W        W30505   4.016   3.213   0.976  0.0264 -0.1494 -0.0757
14245W        W30506  11.649  12.646   0.413 -0.2023 -0.1433 -0.1620
14246W        W30507   5.677  14.908   3.743 -0.0025  0.1496 -0.3534
14247W        W30508   2.899   5.481   1.565 -0.3629 -0.0904  0.1741
14248W        W30509   4.772  11.140  14.311  0.3157 -0.2163 -0.0895
14249W        W30510  12.752   9.526  12.216 -0.0748 -0.1221 -0.0795
14250W        W30511  11.194   7.625  14.988 -0.2153  0.1928 -0.0174
14251W        W30512  10.940   8.014  15.066 -0.1962 -0.0465  0.0442
14252W        W30513   4.306  17.815  13.142  0.3822 -0.0246 -0.0673
14253W        W30514  15.483   3.780  13.619  0.0385 -0.2256 -0.1360
14254W        W30515   3.319  12.301   0.296 -0.2612 -0.0570 -0.0395
14255W        W30516  16.949  14.212   2.138 -0.1484  0.0870  0.1040
14256W        W30517   7.495  12.825   3.220  0.0398  0.0686 -0.1463
14257W        W30518   7.991  10.876   2.815 -0.2149 -0.1707  0.1151
14258W        W30519  12.362  14.641   4.455  0.0500 -0.1983 -0.0599
14259W        W30520   7.109  13.686  12.829  0.0824 -0.0623 -0.2015
14260W        W30521   3.023   0.954   2.644  0.1745  0.0056  0.0654
14261W        W30522   7.427   0.883  15.121 -0.2516  0.0465  0.0894
14262W        W30523   1.785   5.115   3.868  0.4136  0.4046  0.0960
14263W        W30524  15.657  14.982  10.494  0.1339 -0.2243  0.0243
14264W        W30525   2.282   4.058   2.931 -0.0921 -0.1643 -0.4725
14265W        W30526   6.947  13.931   5.910 -0.0911  0.2604 -0.0276
14266W        W30527  13.658  15.048  11.160 -0.2103  0.1338 -0.1297
14267W        W30528  14.810   3.681   4.152 -0.1765  0.6078  0.0983
14268W        W30529   2.255   8.207   2.402 -0.0417  0.2482 -0.0264
14269W        W30530  11.651   0.108   2.461 -0.1500 -0.1889 -0.2277
14270W        W30531   4.503   9.807   1.328 -0.0025 -0.2032  0.2398
14271W        W30532  15.672   4.058   4.437 -0.0686  0.1027  0.0061
14272W        W30533  16.471   5.969  14.204  0.0960 -0.1325  0.0537
14273W        W30534   2.830  12.642   1.359 -0.2244 -0.1093 -0.2148
14274W        W30535  10.968  14.993   3.317  0.1907  0.1327 -0.0566
14275W        W30536   4.904  12.186   5.838 -0.0511  0.0028  0.1553
14276W        W30537   8.381   7.539   5.295 -0.0074 -0.1239 -0.2795
14277W        W30538   5.424   5.858   3.219  0.1083 -0.0165 -0.2197
14278W        W30539   7.695  16.691  11.132  0.0703 -0.0761 -0.0555
14279W        W30540  10.316   8.063  15.213 -0.0466  0.3055  0.2156
14280W        W30541  10.374   3.666  11.471 -0.0630  0.0837 -0.0217
14281W        W30542  11.562   6.466   3.157 -0.0751 -0.3118 -0.1257
14282W        W30543   5.734   7.268   1.698  0.0983 -0.3151  0.0454
14283W        W30544   7.016  17.055  12.731 -0.0740  0.1735  0.0907
14284W        W30545  12.853   7.915  13.555  0.0444 -0.0968  0.1946
14285W        W30546   3.975  12.407   5.455  0.1126  0.1531 -0.0663
14286W        W30547  15.863   0.374   2.233  0.2391 -0.3343  0.0584
14287W        W30548  14.090  11.755   0.958  0.1004 -0.1893 -0.2240
14288W        W30549   9.089  12.932  11.944 -0.1412  0.0189  0.3500
14289W        W30550  12.985   9.647  14.631 -0.1654 -0.1812  0.2096
14290W        W30551  14.882  17.969   3.422 -0.2102  0.3066  0.0160
14291W        W30552   7.469   8.087   4.417 -0.0605 -0.1320  0.2306
14292W        W30553   1.561   1.081   1.519  0.1729 -0.1203  0.3681
14293W        W30554   9.159  17.678  14.358  0.0439  0.0487  0.0476
14294W        W30555   6.462   3.242   1.501 -0.0302  0.0237  0.0441
14295W        W30556   2.430   9.790   4.457 -0.3445 -0.0824 -0.1654
14296W        W30557   5.989   9.897  12.009  0.1855  0.0283 -0.2782
14297W        W30558  15.903   6.798   2.605  0.1328 -0.1546  0.1184
14298W        W30559  16.051  18.433   5.779 -0.0802  0.1160  0.0606
14299W        W30560  10.676  12.899  11.339 -0.0873 -0.0445 -0.0567
14300W        W30561  11.356   3.331   5.266 -0.0664  0.0650 -0.2660
14301W        W30562   8.168   9.917   5.372 -0.0580 -0.0433 -0.1089
14302W        W30563   7.157  11.498   3.584 -0.1754 -0.2220  0.0133
14303W        W30564  16.192   8.686  14.702 -0.0847  0.2141  0.0943
14304W        W30565  12.361  15.558  14.342 -0.2051  0.3139  0.0087
14305W        W30566   9.827  17.985   0.473  0.1110 -0.2116 -0.1317
14306W        W30567   9.784   4.627  15.106  0.1481  0.2507 -0.0074
14307W        W30568  16.326   3.652   2.532 -0.1800 -0.0707  0.2790
14308W        W30569  10.983   6.795  12.930 -0.1809 -0.1838 -0.0693
14309W        W30570   2.840  12.701   9.588  0.0008  0.0130 -0.1500
14310W        W30571   1.447   4.520  13.563 -0.0031 -0.1568  0.3091
14311W        W30572  15.549  10.354  14.234 -0.0098  0.0763 -0.2194
14312W        W30573  12.256   2.433  14.108  0.1348 -0.1993  0.3966
14313W        W30574   4.919   9.020   3.161  0.1235  0.1719  0.0556
14314W        W30575  12.376   0.457  12.966  0.1041 -0.1941  0.2632
14315W        W30576   2.641  14.087   4.203  0.0069  0.0662  0.0182
14316W        W30577   1.579   3.937  12.903  0.0728 -0.0455 -0.0520
14317W        W30578  17.057  18.474   1.748 -0.5471  0.0782  0.1288
14318W        W30579  15.747  13.065  11.469  0.0682 -0.0226 -0.2934
14319W        W30580  12.292  15.462   5.431  0.0254 -0.0795  0.1186
14320W        W30581  13.547  11.829  15.178 -0.1060  0.4152  0.0521
14321W        W30582  13.137   3.806  14.815  0.2618  0.1123  0.0509
14322W        W30583  13.281   7.544   4.713  0.0457 -0.1579 -0.1027
14323W        W30584  12.711  15.193  14.215  0.1577  0.2754  0.1829
14324W        W30585   3.332   6.835   0.002 -0.2060  0.1068 -0.2416
14325W        W30586   1.651  15.474  13.216  0.2400  0.0061 -0.1323
14326W        W30587  13.891  16.454   3.338  0.1431 -0.0980 -0.0083
14327W        W30588  13.527  14.919   1.335 -0.0362 -0.4160 -0.0272
14328W        W30589   2.368   1.713  14.911 -0.1845  0.1125 -0.0945
14329W        W30590   2.241   7.166   0.668  0.1865  0.0432  0.4059
14330W        W30591  11.027   5.138  12.687  0.0819 -0.3188  0.1183
14331W        W30592   8.286  18.110   4.814  0.0363  0.1305 -0.1672
14332W        W30593   7.992  15.367   5.064 -0.1416 -0.0057 -0.1729
14333W        W30594  16.002   4.774  13.020 -0.2480 -0.1077  0.0848
14334W        W30595   8.147  13.456  13.278  0.1738 -0.4046  0.1217
14335W        W30596   5.342  16.937  14.108  0.1616 -0.0210  0.1478
14336W        W30597  13.383   9.635   4.954  0.1434 -0.0530  0.4153
14337W        W30598  10.417   7.252  13.780 -0.1010 -0.0193  0.2916
14338W        W30599   1.407   5.663   2.780 -0.0653  0.1753  0.1880
14339W        W30600  10.178   2.675   0.558  0.2869  0.3566 -0.0117
14340W        W30601   3.818   4.540   1.396 -0.0826  0.2260 -0.2856
14341W        W30602  16.406  13.360   4.646 -0.0068  0.1140  0.1830
14342W        W30603  17.860  13.655  12.742  0.0448 -0.4037  0.0909
14343W        W30604   7.194   5.936  13.764 -0.0306  0.0294  0.0600
14344W        W30605   2.176   2.422   4.110  0.1237 -0.2416  0.1840
14345W        W30606   2.513  10.253  13.194 -0.0752 -0.0550  0.2490
14346W        W30607  15.030  14.096  13.794 -0.2690 -0.1813  0.0363
14347W        W30608  13.347  15.568   4.675  0.0651 -0.3177  0.1720
14348W        W30609  17.450  15.897   3.967  0.2746 -0.1240  0.1538
14349W        W30610  13.689  14.021   3.583  0.1969 -0.1133 -0.0442
14350W        W30611  14.793  12.947  10.242 -0.0749  0.1526 -0.1506
14351W        W30612   6.324  12.234  13.210 -0.0840 -0.1552  0.3023
14352W        W30613  18.566   0.078   5.401  0.0390 -0.0411  0.2592
14353W        W30614  17.808   6.066  13.705 -0.0496  0.1526  0.1289
14354W        W30615   0.578   5.444   0.841 -0.0421  0.0953  0.0964
14355W        W30616  18.282  14.745   4.115  0.2631  0.0321 -0.0756
14356W        W30617  15.377   9.806   4.261  0.1692  0.2147 -0.3462
14357W        W30618  13.615   6.779   5.381 -0.0528  0.1425 -0.2622
14358W        W30619   6.905   9.559  11.802  0.0332 -0.1581 -0.1377
14359W        W30620   7.898  17.705  12.082  0.0491 -0.4035  0.0557
14360W        W30621  16.921  12.933   3.921 -0.1509  0.1424  0.1830
14361W        W30622   9.076   4.058  13.814 -0.2782  0.0624  0.0221
14362W        W30623   3.477  16.268  14.493 -0.0716 -0.2881  0.2019
14363W        W30624   2.802  10.158   4.404 -0.0952  0.1490 -0.1858
14364W        W30625  16.663   1.217   0.156 -0.4848  0.3611  0.3829
14365W        W30626  11.974  10.412   0.101 -0.2849 -0.3228  0.0990
14366W        W30627   8.439   8.923  12.848  0.0952  0.5673 -0.1751
14367W        W30628   4.770   2.775   1.149  0.0964  0.0621  0.0362
14368W        W30629  18.725  10.977   3.433 -0.1289  0.2516  0.1070
14369W        W30630  11.801   9.873  13.431  0.3418  0.2297 -0.2619
14370W        W30631   2.986   2.460   3.316  0.0435  0.2440  0.2750
14371W        W30632  18.248  14.072   3.565  0.0252  0.2193 -0.1846
14372W        W30633   2.838   7.681  14.746 -0.1624  0.0635  0.1638
14373W        W30634  17.234   6.014  13.123 -0.0163  0.0644  0.1225
14374W        W30635   2.437  17.659  14.013 -0.0455 -0.0426  0.1484
14375W        W30636  12.868  12.900   0.806 -0.2606 -0.1898 -0.0259
14376W        W30637   6.528   5.060  11.914 -0.1963  0.2232 -0.2366
14377W        W30638  15.172   2.972  13.416  0.2204 -0.0872 -0.2480
14378W        W30639   0.128   6.874  14.665  0.0590 -0.0080  0.0919
14379W        W30640  12.145  11.532  13.309 -0.0064 -0.1221  0.0673
14380W        W30641   3.148  10.700   4.821 -0.2862 -0.0966 -0.1451
14381W        W30642  13.700   9.407  14.793  0.3187  0.0622  0.0853
14382W        W30643   6.254   6.339  11.055  0.0129 -0.2159 -0.2408
14383W        W30644   2.966   8.080  14.366  0.0561  0.0381 -0.1158
14384W        W30645   3.798   8.475   3.314  0.1040  0.0095 -0.0899
14385W        W30646   1.093  15.653   1.467  0.1768 -0.2478  0.1194
14386W        W30647   2.556  18.773   1.712  0.0589 -0.0631  0.1534
14387W        W30648   0.673  13.972  15.210 -0.1992 -0.0813 -0.3268
14388W        W30649   7.979   6.965   0.058 -0.0799  0.2461  0.0948
14389W        W30650  12.168   5.301  11.022 -0.0593  0.4447 -0.1596
14390W        W30651  17.247  13.176  15.118  0.2946  0.0926  0.1611
14391W        W30652   5.592   4.980   0.752  0.0263 -0.1005  0.0522
14392W        W30653  14.336  15.725   3.452  0.2210 -0.0431 -0.1428
14393W        W30654   9.206   1.827   3.623 -0.2226 -0.1579  0.3504
14394W        W30655   8.131   2.312   2.832  0.2079 -0.1569 -0.4418
14395W        W30656  12.994   1.544   4.913  0.0231 -0.2141 -0.1147
14396W        W30657   2.198  17.211   2.365 -0.0400  0.0969 -0.1277
14397W        W30658   4.452   5.021  14.004 -0.1273 -0.1210  0.4312
14398W        W30659  11.938   4.236   2.095 -0.0360 -0.2679 -0.1297
14399W        W30660  15.087  18.733  11.575  0.4737 -0.1061  0.2085
14400W        W30661   0.956   3.947  13.456 -0.4343  0.0075  0.1682
14401W        W30662  10.491   7.083   4.960 -0.0618  0.0718  0.2180
14402W        W30663  10.067   9.931   4.121 -0.1831 -0.2891  0.2319
14403W        W30664  16.344  12.000   4.020  0.2119  0.0488  0.1606
14404W        W30665   8.210   9.490  15.071  0.2012 -0.0883 -0.0752
14405W        W30666   9.752  13.075  12.569  0.0860  0.2647  0.1687
14406W        W30667  17.229   4.012   3.580 -0.0854  0.0691  0.1639
14407W        W30668   3.226  14.831  14.897  0.0186 -0.0341  0.0894
14408W        W30669   7.388   1.412  15.065 -0.0201  0.2583 -0.2347
14409W        W30670   9.000   4.505  13.942 -0.2608  0.2507 -0.3375
14410W        W30671   1.094  15.325   0.522  0.1785  0.1513 -0.0648
14411W        W30672  11.869   0.543  14.503 -0.0457 -0.0425  0.0591
14412W        W30673   6.557   6.086   5.609  0.1741 -0.0115 -0.2778
14413W        W30674   0.993   9.030  11.258  0.0389  0.2581  0.0013
14414W        W30675   2.565  12.207   5.352  0.0398 -0.1703 -0.0021
14415W        W30676   2.778   8.304  12.286  0.1388 -0.0097  0.0718
14416W        W30677  18.561  14.329  13.941 -0.1074 -0.1093  0.0114
14417W        W30678   8.856   2.802  13.796  0.0172  0.1629 -0.1369
14418W        W30679  16.301   5.733   4.140  0.2144  0.0153  0.2166
14419W        W30680   8.234   8.332   1.733  0.1894 -0.0208 -0.1029
14420W        W30681  10.573   6.924   3.446  0.3702 -0.1732 -0.3965
14421W        W30682   9.648  13.387   2.853  0.0762 -0.2638 -0.1232
14422W        W30683  13.866  16.428  13.309  0.0251 -0.1643  0.2047
14423W        W30684   7.940   7.922  15.404  0.0181  0.2043  0.1796
14424W        W30685  13.830   3.132   1.171 -0.0198 -0.3839 -0.1557
14425W        W30686   5.703  15.537  12.248 -0.2449 -0.0460 -0.1008
14426W        W30687  10.159   5.437   4.428 -0.2261 -0.3350 -0.4294
14427W        W30688   7.509   0.583   1.002 -0.0705  0.0060  0.1157
14428W        W30689   9.145   7.266  13.038 -0.3692 -0.1550  0.0844
14429W        W30690   2.091  14.438   0.545 -0.2057  0.0675 -0.2348
14430W        W30691   6.923   0.618  14.673  0.0038 -0.1109 -0.2436
14431W        W30692   0.261  18.507   4.613  0.1906 -0.0228  0.2672
14432W        W30693   4.023  15.080   5.070  0.0152  0.0098 -0.3650
14433W        W30694  12.634   2.549  14.865 -0.0071  0.0447 -0.1719
14434W        W30695  15.688  10.936  11.925  0.1443 -0.2206 -0.0463
14435W        W30696   2.983  14.502   0.126  0.1415 -0.2477 -0.1638
14436W        W30697  12.871  17.447   0.258  0.0461  0.0357  0.0913
14437W        W30698   4.848  10.559  14.699  0.0086 -0.3769 -0.0435
14438W        W30699   7.329  18.750   4.929  0.0222 -0.2826  0.1066
14439W        W30700   7.552  18.639   4.462  0.0285  0.1660 -0.2483
14440W        W30701  13.717   8.856  12.816 -0.2881  0.3748  0.0279
14441W        W30702   0.794   9.854   4.795  0.2343 -0.3176  0.1941
14442W        W30703   8.101   4.440   5.881  0.0300 -0.1008  0.0526
14443W        W30704  15.953   1.641   1.143  0.0743 -0.0034  0.1168
14444W        W30705  16.901  18.143   2.124 -0.1417 -0.0509 -0.0594
14445W        W30706  17.967   8.207  11.097  0.2418 -0.1342 -0.4100
14446W        W30707  11.325  13.455   3.745 -0.1055 -0.0635 -0.1490
14447W        W30708   8.555   0.266   5.096 -0.1253 -0.2190  0.1948
14448W        W30709  15.563  13.505   0.524 -0.2387 -0.2189 -0.0508
14449W        W30710   0.151  15.720   0.556 -0.1420  0.4863  0.0574
14450W        W30711  15.543   7.857  13.453  0.0128  0.0598 -0.0343
14451W        W30712   7.420   3.693  11.896  0.0124  0.0465  0.1392
14452W        W30713   0.023   5.005  11.694  0.1148 -0.0213 -0.1211
14453W        W30714  13.267   3.178  15.242  0.2413 -0.3073 -0.1319
14454W        W30715   9.846  13.217   1.213 -0.0496  0.0509  0.0299
14455W        W30716   8.359  15.189   4.772 -0.1729  0.0712  0.0844
14456W        W30717  11.893  12.344   5.243 -0.1600 -0.0469 -0.2188
14457W        W30718   4.252  12.823   0.876 -0.0459 -0.0251 -0.2803
14458W        W30719   7.811   0.688  14.780 -0.0776 -0.1356  0.0719
14459W        W30720  14.929   6.658   3.699 -0.0269 -0.1529  0.0054
14460W        W30721  15.549   6.007   0.266  0.1125  0.2904 -0.2363
14461W        W30722   3.580  16.345   0.503 -0.1269 -0.2839 -0.2087
14462W        W30723  12.684   0.947   0.216  0.3517 -0.1425 -0.2369
14463W        W30724  15.175  13.118   3.852  0.0628 -0.1580 -0.0617
14464W        W30725   7.146  12.793  12.524  0.4812  0.0973  0.0280
14465W        W30726  11.477   8.313  12.809 -0.0407  0.0621  0.0467
14466W        W30727   8.391  17.773   2.512  0.0641 -0.1833 -0.1144
14467W        W30728   2.364   1.609   0.548  0.0800  0.1546 -0.2451
14468W        W30729   6.238  12.540   5.228 -0.2818  0.2142 -0.4269
14469W        W30730   5.420   2.998   4.735 -0.1667 -0.0591 -0.0547
14470W        W30731  18.319  10.886   1.858  0.0700 -0.1156 -0.0649
14471W        W30732   7.113  11.697   4.164 -0.1164 -0.0639  0.1286
14472W        W30733  10.037   0.699   1.247 -0.2169 -0.1096 -0.1446
14473W        W30734   5.156  11.493   3.244 -0.0066 -0.1050 -0.0779
14474W        W30735   1.836   9.769  14.897 -0.1229 -0.1262 -0.0348
14475W        W30736  16.873   8.586   4.618  0.0561  0.3638 -0.2326
14476W        W30737  12.725   6.915   5.269 -0.0040 -0.0172 -0.1260
14477W        W30738   3.937  10.539   5.401  0.2328  0.4372 -0.0598
14478W        W30739   2.569   7.902   4.950  0.1087 -0.0589 -0.1144
14479W        W30740   3.962   4.728   2.160  0.0787  0.1947  0.0623
14480W        W30741   9.299   5.658  11.536 -0.1573 -0.0497  0.0398
14481W        W30742  15.549   4.869   2.545  0.1165 -0.0902 -0.3782
14482W        W30743  14.434  18.421  15.223 -0.0145 -0.0083 -0.1088
14483W        W30744  13.100   9.861  12.161 -0.2398 -0.2247 -0.0575
14484W        W30745   1.066   5.508  10.916  0.0890  0.2487 -0.0568
14485W        W30746   7.597  16.859   6.074  0.1282  0.2069 -0.1695
14486W        W30747   7.895  14.333   2.097  0.0848  0.0992 -0.0508
14487W        W30748  17.010   1.514   1.962 -0.4114 -0.0077  0.1950
14488W        W30749   1.995  12.785   4.976  0.1796 -0.0849 -0.2200
14489W        W30750   8.043   3.637  13.756  0.1411  0.0836 -0.2868
14490W        W30751   2.672  18.067   0.435 -0.0595 -0.1215 -0.0632
14491W        W30752   0.319   8.707   4.090  0.2034 -0.2453  0.0597
14492W        W30753  16.215  14.141  11.667 -0.0685  0.0360 -0.2002
14493W        W30754   6.662  18.145  15.219 -0.3756 -0.2579 -0.0870
14494W        W30755  14.815  18.086   3.979 -0.1542 -0.1833 -0.1872
14495W        W30756  16.197  14.960   2.583  0.3039  0.3969  0.0438
14496W        W30757   3.807   5.380   5.046  0.1019  0.1777  0.0204
14497W        W30758   3.474   1.916  13.376 -0.0854  0.0383 -0.0151
14498W        W30759   2.325  10.169  11.940  0.0926  0.1686  0.0024
14499W        W30760  12.576  15.326  13.657  0.2382 -0.1551  0.1434
14500W        W30761   2.414  15.389  14.854  0.0253 -0.0274 -0.0649
14501W        W30762   4.943  12.532  12.582 -0.0212 -0.0416  0.1728
14502W        W30763  14.756  14.771   0.391  0.0185 -0.1471 -0.3048
14503W        W30764   2.311   6.188   1.348  0.1242 -0.2080  0.1391
14504W        W30765  11.984   9.560  12.565  0.2734 -0.2881  0.2494
14505W        W30766  12.665   9.826  14.265 -0.0425  0.0298  0.0853
14506W        W30767   8.389   6.459  11.941  0.3862  0.0821  0.3240
14507W        W30768  18.184  15.347  10.328 -0.0221  0.1891  0.2631
14508W        W30769   7.409   5.345   0.451 -0.4436 -0.2604  0.5249
14509W        W30770   9.641   5.644   4.455  0.0535 -0.2124  0.0169
14510W        W30771  18.295  15.830   0.431  0.0235 -0.0510  0.0597
14511W        W30772   1.994  16.067   2.222  0.0714  0.4500 -0.0094
14512W        W30773   9.614   2.288   6.065  0.3006  0.2835 -0.1009
14513W        W30774  11.339  15.247  13.713 -0.2810 -0.2279  0.0520
14514W        W30775   5.002  18.743   0.922  0.0956  0.1355  0.0559
14515W        W30776   8.633   4.951   0.775 -0.0040 -0.2596  0.2570
14516W        W30777  11.007   6.291   0.091  0.1237 -0.0513 -0.3649
14517W        W30778  17.359  12.603   3.772 -0.1728  0.0575 -0.1880
14518W        W30779   9.731  17.495   4.322 -0.0202  0.2548 -0.0109
14519W        W30780  14.258  12.450   2.884  0.2291  0.0721  0.2304
14520W        W30781   7.181   2.800   2.910 -0.1652  0.4583  0.3434
14521W        W30782   0.931  11.003   4.908 -0.2397 -0.1139 -0.4305
14522W        W30783  11.563  11.037   2.965 -0.0283  0.2236 -0.0953
14523W        W30784   4.385   8.305  14.389  0.2129 -0.2040  0.2563
14524W        W30785  14.619   8.576  14.918 -0.0279 -0.0314 -0.1717
14525W        W30786   6.078   1.780  13.633  0.2297 -0.1200  0.2573
14526W        W30787  10.358   5.873   5.866  0.2113 -0.0412  0.1387
14527W        W30788  17.361   3.507   5.556 -0.1845  0.1297  0.0046
14528W        W30789  17.604   9.534  14.642 -0.0093  0.2574 -0.1360
14529W        W30790  15.422   5.022  10.925  0.1195  0.1868  0.0598
14530W        W30791  12.456   5.996   3.457  0.0259  0.1196 -0.1998
14531W        W30792  16.021  14.546  13.698  0.1246  0.2498  0.0826
14532W        W30793   3.729   5.418   2.519  0.4023 -0.0797  0.1724
14533W        W30794   6.270   3.172   0.133  0.0702 -0.0787  0.0599
14534W        W30795  14.572   4.677  14.154  0.0507 -0.2362 -0.0194
14535W        W30796   9.159  14.646  13.936 -0.2507 -0.0362  0.0431
14536W        W30797  16.609   4.041   2.829 -0.0084  0.2759  0.0855
14537W        W30798  13.765   7.440   0.071  0.1166 -0.5737 -0.0187
14538W        W30799  15.325  17.153  13.880  0.1466 -0.0292  0.0320
14539W        W30800  16.226  18.291   4.637 -0.0447  0.3310  0.0691
14540W        W30801   3.341   0.289   4.019 -0.1766  0.2416  0.0781
14541W        W30802   4.161  17.079  15.028 -0.1303  0.3421 -0.2404
14542W        W30803  16.368  16.610  14.096  0.1219 -0.1182 -0.1359
14543W        W30804  13.032  12.838  13.796  0.1089  0.2425  0.0137
14544W        W30805   2.338  11.050  10.795  0.1356  0.1806 -0.2794
14545W        W30806  17.485  14.114   4.930 -0.0417 -0.1443 -0.3135
14546W        W30807   0.800   0.595   4.904 -0.4365  0.2288  0.0047
14547W        W30808   3.653  15.955  12.909  0.2445 -0.2149  0.1376
14548W        W30809  12.976  14.517   1.933  0.1308  0.3354 -0.0583
14549W        W30810   8.977   2.482  12.844  0.3200 -0.0329  0.2765
14550W        W30811   3.137  18.597  13.102  0.1592 -0.0318  0.0846
14551W        W30812   7.940  10.868   1.607  0.1458 -0.1051 -0.1205
14552W        W30813  13.660   0.002   3.320  0.0183  0.0931 -0.0529
14553W        W30814  15.786   6.847  15.150  0.0267  0.0559  0.1005
14554W        W30815  11.756   9.783  11.446 -0.1463  0.0601  0.1617
14555W        W30816   5.350   1.934  12.946  0.2123 -0.1386 -0.2978
14556W        W30817   2.062   0.396  12.880  0.0855 -0.0733  0.1567
14557W        W30818  11.339  11.689  11.431 -0.3940  0.3669 -0.0516
14558W        W30819   8.055   0.122   3.292 -0.2904 -0.0821  0.2266
14559W        W30820   5.880  12.913  13.624 -0.1486  0.1189 -0.2408
14560W        W30821  16.491   8.501   0.044 -0.2457 -0.2730  0.2323
14561W        W30822   9.692  11.277  11.189  0.0256 -0.1615 -0.1458
14562W        W30823  10.812  12.290   5.125  0.1512  0.0209  0.0950
14563W        W30824  16.268  13.057  11.407 -0.0054  0.1107  0.1361
14564W        W30825  17.377  15.583  14.443  0.1248 -0.0842 -0.0132
14565W        W30826  12.348   5.260   2.962 -0.1808  0.1044  0.1718
14566W        W30827  13.237   0.401  15.607  0.1124  0.1314  0.1466
14567W        W30828   5.751   0.189  13.810  0.0764 -0.2433  0.1198
14568W        W30829  12.818   5.002   3.992  0.0580 -0.3307 -0.0372
14569W        W30830  16.479   6.418  12.782 -0.2527  0.0734 -0.2234
14570W        W30831  10.451  18.012   3.616  0.0937  0.1231  0.3189
14571W        W30832  15.712   5.484   3.458  0.1622  0.1332  0.0778
14572W        W30833   4.122  16.631  13.542  0.1542  0.3596  0.1433
14573W        W30834   2.441  17.205  14.379  0.0984  0.4901 -0.0402
14574W        W30835   2.709   2.448  13.793 -0.0116 -0.0704 -0.0007
14575W        W30836  17.625   2.250  15.490  0.0474  0.4000 -0.1824
14576W        W30837  13.456  14.033   0.084 -0.0195 -0.0651  0.0373
14577W        W30838  15.768   2.432  11.274 -0.6209 -0.3703  0.0823
14578W        W30839  10.897   7.414   1.483 -0.0073 -0.0942  0.0275
14579W        W30840   8.728  16.353   1.630  0.1024  0.2074  0.1706
14580W        W30841   5.387  18.594   1.132 -0.1273 -0.1531 -0.0386
14581W        W30842  18.661  17.043  13.190 -0.1749  0.2817 -0.1600
14582W        W30843  12.836   0.600   2.512 -0.1175 -0.1769 -0.0494
14583W        W30844  16.096  13.985  12.390  0.2723  0.0214 -0.3292
14584W        W30845  16.760  16.351  11.076  0.0467 -0.2763  0.0478
14585W        W30846  17.152   5.641  11.146  0.2320  0.3585  0.2452
14586W        W30847   8.989   9.334  13.708  0.1687 -0.1184  0.2944
14587W        W30848  14.686  18.348   5.099  0.3865 -0.2895 -0.0290
14588W        W30849  15.443  13.460  14.144  0.2838  0.2362  0.0214
14589W        W30850  17.520   3.416  14.707 -0.0663 -0.1987  0.1075
14590W        W30851   6.029   4.554  11.207 -0.0618 -0.1590 -0.0158
14591W        W30852   7.254   9.857   3.298 -0.0719 -0.0059  0.1739
14592W        W30853  12.927   4.912   4.539 -0.2267 -0.1326  0.2716
14593W        W30854   1.141   4.214   0.007  0.2798 -0.0563 -0.0843
14594W        W30855  17.517  17.277  11.297  0.0618  0.1546 -0.1712
14595W        W30856  14.515  14.185   4.742 -0.0327  0.0918 -0.1471
14596W        W30857   5.162   1.868   1.337  0.0886 -0.2343  0.0311
14597W        W30858   7.602   4.808  14.022 -0.1953 -0.0387  0.0101
14598W        W30859  18.127   6.407  13.574  0.1783 -0.1956  0.1350
14599W        W30860   5.479  18.736   5.120  0.0356 -0.1290  0.2488
14600W        W30861  12.688   6.270   1.965  0.2330  0.0297  0.2676
14601W        W30862  14.976  15.216   2.355 -0.2705  0.4546 -0.0978
14602W        W30863   0.809   4.456  13.204  0.1381 -0.1221  0.0002
14603W        W30864  18.544   9.935   4.127 -0.0811 -0.1729  0.0325
14604W        W30865   4.191  12.852   4.719  0.1566  0.0595 -0.0192
14605W        W30866   4.039  15.398  15.365  0.1387 -0.3317  0.2816
14606W        W30867  15.113  15.894   0.519 -0.0965 -0.3398  0.3945
14607W        W30868   3.152   8.224   4.073 -0.1246 -0.0022  0.0527
14608W        W30869  17.330   5.276  10.657 -0.0787  0.1701 -0.1122
14609W        W30870  10.206  11.673  13.784 -0.2831  0.0153 -0.0343
14610W        W30871  13.198  13.622  10.423 -0.0594  0.0744 -0.0406
14611W        W30872  14.226   6.259  12.013  0.4022 -0.3773  0.1949
14612W        W30873   0.233   1.983  14.443  0.1701 -0.2211 -0.0672
14613W        W30874  15.572   0.407  12.253 -0.0755 -0.0042  0.0598
14614W        W30875   6.626   3.381   3.314  0.1417  0.0573  0.0865
14615W        W30876   2.491  16.540   5.615  0.1830 -0.1256 -0.1718
14616W        W30877  17.433  10.075   0.813  0.2587  0.0288  0.0394
14617W        W30878  15.227   1.062   2.110  0.1346  0.0145  0.1304
14618W        W30879   8.418  14.164  14.622 -0.0239 -0.1478  0.2625
14619W        W30880   3.210   8.876   0.568  0.0794  0.1355 -0.0370
14620W        W30881   9.277   9.011   3.252  0.0239 -0.2038 -0.3806
14621W        W30882   8.985   8.238  12.286  0.0944 -0.1223  0.0577
14622W        W30883  18.004   2.505   1.037  0.1154 -0.0429 -0.1344
14623W        W30884   2.562   2.978  15.325 -0.2029  0.1905 -0.0469
14624W        W30885  12.422  13.007   0.958  0.2150  0.3576  0.2644
14625W        W30886  13.396   8.833   5.516 -0.1763 -0.1583  0.1136
14626W        W30887  18.769  17.525   3.587 -0.0033  0.1596 -0.4308
14627W        W30888  17.517   2.622   2.207  0.0524 -0.0886  0.0861
14628W        W30889  11.976  18.704   1.171 -0.0668 -0.1092 -0.0164
14629W        W30890  15.056  12.124  15.233 -0.0251 -0.3085  0.2307
14630W        W30891   0.505   8.059  11.123  0.1020  0.0296 -0.1581
14631W        W30892  18.238   8.818  14.639  0.1816  0.0417 -0.4101
14632W        W30893  16.343   9.077  15.258 -0.0796  0.0300 -0.2140
14633W        W30894   8.809   1.200   5.827 -0.0095  0.0655 -0.2144
14634W        W30895  17.649  14.023   1.771 -0.4111  0.1990 -0.1116
14635W        W30896   0.317   1.146  13.976 -0.1676  0.3946 -0.1614
14636W        W30897   9.874  17.628  13.141 -0.1320 -0.2544  0.0330
14637W        W30898  12.213   3.306   0.695 -0.0069 -0.0414 -0.1718
14638W        W30899  16.368  18.354   2.407 -0.1104 -0.1926  0.1334
14639W        W30900   8.986   5.210   4.855 -0.2445 -0.0875  0.0548
14640W        W30901  13.325  14.502  13.865  0.0573  0.1893 -0.2292
14641W        W30902   1.188  10.812   1.272 -0.2594  0.0632 -0.2155
14642W        W30903   2.115  16.393   3.894 -0.0586  0.0290 -0.1532
14643W        W30904  14.364   4.146  12.963  0.1396 -0.0450  0.0243
14644W        W30905   7.813   8.005   1.047 -0.0122  0.1705 -0.1178
14645W        W30906  17.226   2.237   1.542 -0.0788 -0.2928  0.1382
14646W        W30907   9.932   8.748   1.568 -0.0683 -0.0529  0.1878
14647W        W30908   7.517   5.136  11.840  0.3506 -0.0132 -0.0539
14648W        W30909   7.058   1.504   1.377 -0.2555 -0.0578  0.1938
14649W        W30910   1.352   6.349  14.928  0.3339  0.1203 -0.2409
14650W        W30911  10.024   8.405   3.445  0.0344 -0.0546 -0.4131
14651W        W30912   2.190  10.585   3.307  0.1633 -0.0504  0.1314
14652W        W30913   9.606   0.087   5.525  0.0456  0.0018  0.1301
14653W        W30914   1.756   0.719  12.608 -0.1753 -0.0923 -0.0543
14654W        W30915   3.255  14.055  12.798 -0.0384 -0.0309  0.0605
14655W        W30916   8.828  14.312   2.227 -0.1777 -0.2551 -0.2477
14656W        W30917  18.499   5.069  12.127  0.1261  0.0716 -0.0984
14657W        W30918  10.329   9.898  13.765 -0.0485 -0.1521 -0.0101
14658W        W30919   3.948  14.315   3.540 -0.0837  0.1304 -0.2857
14659W        W30920  15.327  11.585  14.132  0.1690  0.1308  0.4098
14660W        W30921   7.185   2.620  11.707 -0.0836  0.1946 -0.0685
14661W        W30922   5.071   7.952  14.337  0.3173  0.0171  0.3822
14662W        W30923  12.408  14.208  12.832  0.4310  0.0209 -0.0760
14663W        W30924   8.918  16.610   2.532  0.3299  0.1050 -0.0309
14664W        W30925   0.911  18.378   1.140 -0.0289  0.1096  0.4004
14665W        W30926  16.063  18.765   3.794 -0.2999  0.0419 -0.2988
14666W        W30927  14.593   8.244   3.855 -0.1176 -0.1526  0.0583
14667W        W30928  13.734   0.268  14.150  0.0166 -0.1694  0.2443
14668W        W30929  18.369  18.526   0.179 -0.2699 -0.0775  0.1912
14669W        W30930   7.577  16.614  13.684  0.2374  0.0232  0.0165
14670W        W30931   3.186   7.118  11.192  0.0877 -0.2395  0.1726
14671W        W30932  12.839  13.941  10.711  0.2276 -0.1303  0.0496
14672W        W30933   1.954  18.435  10.160  0.2945  0.1605  0.0712
14673W        W30934  14.336   0.427  14.101 -0.2585 -0.0790  0.0301
14674W        W30935   8.697   6.790   1.957 -0.1286 -0.1022  0.0351
14675W        W30936   5.152   4.969  13.172 -0.0378 -0.1254  0.0012
14676W        W30937   9.551   0.215   1.901 -0.0740 -0.2065  0.0082
14677W        W30938   1.928   3.469  13.662  0.2891  0.2149 -0.2160
14678W        W30939  13.140  17.538   1.656  0.3376  0.4233  0.0925
14679W        W30940   2.729   0.025  13.769  0.0985  0.0508 -0.0771
14680W        W30941   0.017  18.004   2.848 -0.3367 -0.1227  0.4805
14681W        W30942   2.443   0.113   3.052  0.0835 -0.0076 -0.4647
14682W        W30943  16.932  16.023  10.704  0.0601  0.2269  0.4170
14683W        W30944   8.787   0.342  11.741 -0.0981  0.2091  0.0600
14684W        W30945   8.036  14.395  14.899  0.0690  0.0289  0.0720
14685W        W30946   7.799  10.657   2.066  0.0330  0.1668  0.3109
14686W        W30947   7.923  14.851   5.615  0.0835  0.1575 -0.1444
14687W        W30948   2.092  16.061   1.067  0.1185  0.1514 -0.1613
14688W        W30949  17.461   1.817  15.083 -0.2498  0.0396  0.1100
14689W        W30950   8.321  17.349  12.755 -0.1707 -0.0689 -0.0786
14690W        W30951  10.822   3.752  11.614 -0.3894  0.1520  0.1353
14691W        W30952   9.966   2.462   5.392  0.1031 -0.0237 -0.0515
14692W        W30953  14.815   4.536   4.720 -0.0293 -0.2126  0.2340
14693W        W30954  15.867   3.862  11.811  0.0436  0.1769 -0.0864
14694W        W30955   9.420  12.357  11.318 -0.1221  0.0619 -0.2584
14695W        W30956   1.850   4.323  13.809  0.1625 -0.0205 -0.1592
14696W        W30957  12.430   3.264   3.361  0.2223 -0.0962  0.2385
14697W        W30958   7.185   8.015   5.013 -0.0300  0.1090 -0.4969
14698W        W30959   5.263   8.540  12.519  0.3146 -0.0415  0.0251
14699W        W30960  16.684   0.624  11.291 -0.0176 -0.1030 -0.0946
14700W        W30961  13.957  18.404   9.666 -0.0122  0.0021 -0.0119
14701W        W30962   6.522  14.790  14.902  0.2852  0.1235  0.3004
14702W        W30963  11.356  16.776  11.459 -0.0559 -0.0880  0.2175
14703W        W30964  17.971   0.935  13.819 -0.0120 -0.2126 -0.0303
14704W        W30965  13.293   9.686   3.621  0.1525 -0.2521  0.1134
14705W        W30966   1.611   4.420  14.904  0.0405 -0.1878  0.1179
14706W        W30967   9.556   4.214   5.654 -0.0273 -0.0221  0.2433
14707W        W30968   6.113   8.427  12.052 -0.0278 -0.0812  0.2199
14708W        W30969  14.916   9.047   3.978  0.1258  0.3274 -0.0325
14709W        W30970   2.964   5.041  14.043  0.1349 -0.0914 -0.0175
14710W        W30971   8.310  15.374  15.009  0.1168  0.1183  0.1206
14711W        W30972   9.068  14.751  15.545  0.0745  0.1153 -0.3195
14712W        W30973   8.926   0.699   4.690  0.1462  0.2798  0.3736
14713W        W30974  12.539  14.615   4.912  0.0157  0.0776 -0.0273
14714W        W30975   2.244  15.539   2.981 -0.0366  0.0496  0.1507
14715W        W30976   9.952   0.681   3.512  0.1548  0.1923 -0.1122
14716W        W30977   9.515  15.037  14.771  0.3489  0.0905  0.2406
14717W        W30978  14.431  12.808   0.087  0.1644  0.0093  0.1583
14718W        W30979   7.095   4.721   4.099  0.2095 -0.2357  0.0072
14719W        W30980  14.451  17.717   5.615 -0.0524 -0.0110  0.0125
14720W        W30981   3.074   1.479   3.334 -0.2189  0.0308  0.0152
14721W        W30982  16.234   6.407   3.338  0.0720  0.1251 -0.1425
14722W        W30983   9.173  17.244   3.110 -0.0380  0.0096 -0.0164
14723W        W30984  17.257  16.338  14.042  0.0177 -0.0152  0.2453
14724W        W30985  17.549   8.004   3.247 -0.0578  0.0529  0.3688
14725W        W30986   0.347  14.388  12.382 -0.2646 -0.0245 -0.2363
14726W        W30987  14.006   6.605  10.808 -0.0246 -0.2670  0.0109
14727W        W30988   4.135   5.440  15.489 -0.1147 -0.3027  0.1723
14728W        W30989   7.866  13.392  10.937  0.1771 -0.0231  0.0309
14729W        W30990  11.834  18.646   4.700 -0.1398 -0.2260 -0.0243
14730W        W30991  14.302  17.983   4.082 -0.3695  0.3407  0.4439
14731W        W30992   6.270   3.866   2.688 -0.1933 -0.3585 -0.2765
14732W        W30993  16.824  16.915   0.087 -0.1620 -0.3005  0.1851
14733W        W30994   6.567   5.290   3.583  0.2446  0.0274 -0.3060
14734W        W30995   3.745  10.047   5.116 -0.2529  0.0424  0.2143
14735W        W30996  10.030   1.119  14.477 -0.1464  0.2753  0.1352
14736W        W30997   8.739  15.905  13.339 -0.0732 -0.1049 -0.1909
14737W        W30998   0.015  14.771  10.843  0.1905  0.1860  0.2057
14738W        W30999  16.364  15.685  12.631  0.3189 -0.1807  0.0320
14739W        W31000  14.730   4.579   2.033 -0.1858  0.1466  0.3273
14740W        W31001   0.713   3.327  14.094  0.1667  0.0240  0.0351
14741W        W31002   7.416  18.599  15.423 -0.1542 -0.3025  0.2586
14742W        W31003   8.459  18.587  15.560  0.0842 -0.1106  0.2885
14743W        W31004  11.218   1.049  13.007  0.2447 -0.0617  0.0305
14744W        W31005   5.056   7.712  11.905  0.0311 -0.2086 -0.1408
14745W        W31006   0.323  15.298   3.791 -0.1569 -0.2131 -0.2985
14746W        W31007   2.270  10.603   1.878  0.1749 -0.1471  0.1999
14747W        W31008   6.915  10.998  15.002 -0.1499  0.2450  0.2426
14748W        W31009  10.575  16.022   1.353  0.0197  0.1787 -0.0423
14749W        W31010  16.151   3.190   0.118 -0.1830 -0.0137 -0.2155
14750W        W31011  10.526   3.767   1.812  0.1405  0.0822 -0.1817
14751W        W31012  11.605   3.964   2.289 -0.0644  0.0450  0.2761
14752W        W31013   8.308  11.538   4.409  0.1202 -0.0120 -0.0227
14753W        W31014   5.211  16.639   1.776 -0.1202 -0.0601  0.0725
14754W        W31015   1.605  15.907   5.312  0.2007 -0.2725 -0.1084
14755W        W31016  12.052   0.319   1.420 -0.0574 -0.1549 -0.1177
14756W        W31017   4.097  18.493   3.665  0.0070 -0.1720  0.4723
14757W        W31018  16.481   9.197   3.832 -0.0996 -0.2231  0.1729
14758W        W31019  18.152  15.642   1.452 -0.2742  0.0765  0.4004
14759W        W31020   7.663   5.744   0.079 -0.0372 -0.3265 -0.0067
14760W        W31021  17.342   0.669  13.718  0.3983 -0.0734  0.0010
14761W        W31022  12.230   4.951   1.962  0.0868  0.3464  0.2520
14762W        W31023  15.870  17.577  14.859  0.1245 -0.2066  0.0182
14763W        W31024  16.587  15.977  12.304  0.0116 -0.1499 -0.1100
14764W        W31025   6.139  17.317   1.724 -0.1580  0.2380  0.3488
14765W        W31026   8.266   8.217   1.174 -0.0082  0.0985 -0.0914
14766W        W31027   6.299   2.877  12.177  0.2563  0.1220 -0.0340
14767W        W31028  15.830   2.678  10.400 -0.3628  0.1481  0.1628
14768W        W31029  18.514  13.795  13.597 -0.2960 -0.0667  0.0601
14769W        W31030   3.085   4.703   3.240  0.1129 -0.1428  0.0728
14770W        W31031  13.147  10.950  11.868 -0.3559 -0.2261  0.1926
14771W        W31032  12.819   9.038  13.139  0.0476  0.1044 -0.0461
14772W        W31033  17.629  16.054   1.444  0.0124 -0.1173  0.4100
14773W        W31034   9.295  10.640  13.234 -0.4120 -0.0488  0.4124
14774W        W31035   2.715  10.783   1.056  0.0892  0.1597 -0.2015
14775W        W31036   5.932   5.041  15.469 -0.4834  0.4907  0.0411
14776W        W31037  10.581  11.909   4.010  0.1838  0.0313 -0.0936
14777W        W31038  17.329   5.747   0.477  0.0009 -0.1395  0.0991
14778W        W31039   9.777   2.427   0.871  0.0184  0.0281  0.2805
14779W        W31040   2.878   8.481  14.924  0.0150  0.2621 -0.0860
14780W        W31041   9.597   3.567  12.290 -0.4296  0.0590  0.1508
14781W        W31042  15.468  16.344   3.180 -0.0720 -0.0490 -0.4311
14782W        W31043   8.685  10.635  12.026 -0.0779  0.0356 -0.0230
14783W        W31044   9.386  11.880   2.444  0.1568  0.1438 -0.0244
14784W        W31045   1.683  13.689  12.859  0.0019 -0.1673  0.3110
14785W        W31046  18.136  16.018   4.442  0.0287 -0.2310  0.0804
14786W        W31047   0.730   9.654  13.987  0.1521  0.1312  0.1298
14787W        W31048  16.985   0.544  13.389 -0.2691 -0.0721  0.0528
14788W        W31049   2.940   3.688   1.671 -0.0953 -0.0449 -0.1886
14789W        W31050  10.730  16.533  13.307 -0.0294 -0.1521  0.2340
14790W        W31051   8.926  16.727   3.143  0.4394 -0.2328 -0.1142
14791W        W31052   2.444   1.132   1.041 -0.0793  0.2724 -0.0086
14792W        W31053  15.236   9.869   0.669  0.0494  0.0016  0.0517
14793W        W31054   3.740  17.583  10.470  0.2779 -0.1929 -0.4501
14794W        W31055   1.358  18.378  12.794  0.0720 -0.2012 -0.2526
14795W        W31056  14.959   6.391  11.125  0.1011 -0.0506  0.1010
14796W        W31057   3.502   4.751   2.980 -0.2406  0.2014  0.3705
14797W        W31058   0.363   2.202  13.335 -0.3657  0.2940 -0.0092
14798W        W31059   2.339   1.012   3.528  0.1023 -0.0048 -0.1517
14799W        W31060  16.138   8.801   3.990  0.1133  0.1815  0.1099
14800W        W31061   0.866   6.145  14.827  0.2268 -0.1948  0.1406
14801W        W31062  11.141  17.456   4.353  0.1971 -0.3327  0.0012
14802W        W31063  11.553  15.863   4.946 -0.0063  0.0584 -0.0706
14803W        W31064   8.409  17.237   2.412  0.2762 -0.0466 -0.2184
14804W        W31065   9.440  18.763   5.041  0.0485  0.1518  0.1669
14805W        W31066   0.718  15.263  11.009 -0.0670  0.1369  0.2710
14806W        W31067   7.380  10.908  13.180  0.0850  0.2536  0.2088
14807W        W31068   1.542   1.859   4.669  0.1490 -0.0686 -0.2573
14808W        W31069  16.328  17.533   5.159 -0.3562  0.0197 -0.0878
14809W        W31070   6.901  10.115   3.974 -0.3383 -0.1777 -0.1007
14810W        W31071   0.050   5.003   3.904  0.0095  0.1548 -0.1816
14811W        W31072   3.367   0.095   3.552 -0.1292  0.3668 -0.2794
14812W        W31073   4.333  17.610   4.780 -0.1572 -0.1169  0.0644
14813W        W31074  10.266  11.309  11.999 -0.3614 -0.0524  0.0566
14814W        W31075   2.909  10.446  14.772  0.1202 -0.0072  0.0714
14815W        W31076   9.622   0.424  14.972  0.0078 -0.1770 -0.0012
14816W        W31077   5.931   1.423  15.106  0.3162 -0.2967  0.1751
14817W        W31078   2.077  11.929   3.528 -0.2044 -0.1383 -0.1425
14818W        W31079   3.990  11.560   5.268  0.1338 -0.1427  0.0895
14819W        W31080  16.694   9.797   2.128  0.1167 -0.0944  0.1746
14820W        W31081   6.107   5.638  13.930  0.0125  0.1287  0.3316
14821W        W31082  12.957   7.909   2.802 -0.0638 -0.2023 -0.2295
14822W        W31083  11.462   3.191  11.939  0.0279  0.0580 -0.2019
14823W        W31084   6.516   3.851   3.455 -0.0861  0.3018 -0.2419
14824W        W31085  14.725  12.125   1.771 -0.0620 -0.0478 -0.1004
14825W        W31086   9.171   8.197   3.371 -0.3655 -0.1222 -0.2994
14826W        W31087  13.760  11.832  11.105  0.1307  0.0534 -0.1110
14827W        W31088  18.540   5.516   4.816 -0.2906 -0.1206 -0.1974
14828W        W31089  17.537   9.497   3.304  0.1073 -0.1745  0.2369
14829W        W31090  16.898   4.856   3.856  0.1698 -0.1223 -0.0538
14830W        W31091   2.002  17.574   5.803  0.0747 -0.2019  0.2148
14831W        W31092   6.184   8.711   3.988 -0.0990  0.0752  0.0887
14832W        W31093   8.631   7.815  12.650  0.1387  0.0938 -0.2878
14833W        W31094  18.100  15.458  13.491  0.1655  0.0105 -0.1653
14834W        W31095  12.390  15.427  12.599  0.2560 -0.1074 -0.0611
14835W        W31096   5.507  15.686  13.738 -0.0183 -0.0662  0.0774
14836W        W31097   8.897  14.712  11.125 -0.0106 -0.2989 -0.2293
14837W        W31098  10.597   9.207   1.039  0.0829  0.2028  0.0047
14838W        W31099  13.208  15.872  12.692 -0.3782  0.3407  0.1159
14839W        W31100   1.266  18.807  14.302 -0.2654  0.3348 -0.0072
14840W        W31101   6.968  15.818   4.768  0.1144 -0.0656  0.1414
14841W        W31102  15.201  16.786  13.448  0.0075  0.0393 -0.1279
14842W        W31103   9.164   0.045   0.292  0.0740  0.1809  0.2584
14843W        W31104  11.829  12.531   1.425  0.1037 -0.0907  0.0152
14844W        W31105   5.316   9.591   4.629 -0.2644 -0.0985 -0.0370
14845W        W31106   5.664   2.139  11.400 -0.0802  0.0147  0.0387
14846W        W31107  18.649   2.636  11.770  0.0425  0.0214 -0.0927
14847W        W31108   7.896   9.219  12.857  0.2344 -0.0790  0.0330
14848W        W31109   9.365   7.994   0.081  0.3131  0.0351 -0.2212
14849W        W31110   5.747   8.529  14.651 -0.1818  0.1224 -0.0174
14850W        W31111  11.075  14.276   5.317 -0.3403  0.3477 -0.1895
14851W        W31112  10.931   2.201  12.971 -0.0913 -0.0332 -0.0462
14852W        W31113   4.647  12.060   1.947  0.0387 -0.3198 -0.0358
14853W        W31114   9.214  16.559   0.520  0.0612  0.1128 -0.1116
14854W        W31115   7.846  15.584   3.582  0.1239 -0.0518 -0.0378
14855W        W31116   0.474   9.143   5.636 -0.0043 -0.0203 -0.1616
14856W        W31117  17.109   0.588  14.245  0.0780  0.2057  0.1820
14857W        W31118  11.401  16.938   0.062 -0.1211  0.4054 -0.0834
14858W        W31119   5.786   7.019   3.678 -0.2890 -0.1446  0.0040
14859W        W31120  15.088   7.109   3.496 -0.0327  0.1775 -0.0923
14860W        W31121  11.717  10.606   4.101  0.0317 -0.0595  0.0837
14861W        W31122   1.401  12.222  13.347  0.0979  0.3040  0.1546
14862W        W31123  18.195   6.762   1.149  0.0151  0.0346  0.1175
14863W        W31124  13.261  15.048  15.172 -0.1040  0.1178  0.0099
14864W        W31125   9.209  14.305   4.167 -0.1201  0.1814 -0.1668
14865W        W31126  14.072   7.890  10.238  0.0099 -0.0687  0.0466
14866W        W31127   4.469   9.867  14.756 -0.1971  0.0883  0.1959
14867W        W31128   1.658   9.442  15.376  0.0345 -0.1098 -0.1103
14868W        W31129   2.273   7.853   2.020  0.3431  0.0132  0.2547
14869W        W31130   8.739  11.741  13.657 -0.1328 -0.0218  0.0544
14870W        W31131   4.795   3.433  13.490 -0.0319 -0.4133  0.2085
14871W        W31132  12.777  16.616  14.250 -0.0487  0.1486 -0.2021
14872W        W31133   3.566  10.304  14.041  0.3139 -0.2723 -0.1259
14873W        W31134  13.926   6.052  14.846 -0.1924 -0.0019 -0.1123
14874W        W31135  17.915   5.898   2.518  0.1120  0.0321 -0.0079
14875W        W31136   2.892  15.835   3.313  0.1980 -0.1773  0.2087
14876W        W31137  15.447  13.426   3.486  0.0972  0.2022  0.0583
14877W        W31138  16.024   5.525   2.967 -0.1634  0.0600 -0.0996
14878W        W31139   6.791  12.456   0.455 -0.3082 -0.4179 -0.1611
14879W        W31140   7.044   7.447  11.719  0.0655  0.1849  0.0098
14880W        W31141  15.440  10.378   9.690  0.0804  0.3006 -0.1459
14881W        W31142   0.106  14.651  14.163  0.3734  0.2954  0.3208
14882W        W31143  10.606   2.258   5.910 -0.0159 -0.1117 -0.1168
14883W        W31144   6.275   2.668  15.081  0.0089  0.1412 -0.2472
14884W        W31145  15.089  16.141  10.282 -0.1145  0.0097  0.1128
14885W        W31146  14.592   7.754  10.105 -0.0904 -0.2588 -0.1117
14886W        W31147   3.398  14.563  10.780  0.0652  0.0032 -0.2352
14887W        W31148   0.593  13.158   0.950  0.0639  0.1519  0.0369
14888W        W31149  15.467   9.305   0.056 -0.1065 -0.1425  0.2691
14889W        W31150  10.571   6.888   3.955  0.2872  0.0167  0.1318
14890W        W31151   8.805  13.384   0.543  0.1785  0.0584  0.0924
14891W        W31152  12.708   5.623   0.823 -0.2106  0.0907  0.2794
14892W        W31153   3.492  14.954   2.746  0.2311  0.0644  0.1228
14893W        W31154   5.015   1.141  14.716 -0.0455  0.2537 -0.3510
14894W        W31155   7.319  15.251   1.051 -0.2286  0.2074  0.0736
14895W        W31156  14.921  11.468   2.852  0.1259  0.2183  0.1154
14896W        W31157   3.733   3.290   1.817  0.0032 -0.0867 -0.0798
14897W        W31158   8.761  11.276   1.344  0.0385  0.2518  0.0059
14898W        W31159   2.678  16.459  11.795  0.1278 -0.2750  0.1322
14899W        W31160  10.702  16.761   4.747 -0.0939 -0.0865 -0.1699
14900W        W31161   2.719   9.845  11.965  0.1281 -0.1081 -0.0397
14901W        W31162   0.853   6.471   1.273 -0.2439 -0.1151 -0.2769
14902W        W31163   4.300   3.420  12.808 -0.0794 -0.0798 -0.1196
14903W        W31164  12.303  12.335  14.751  0.0982 -0.2879  0.1236
14904W        W31165  17.378   6.011   5.143 -0.2749 -0.1008 -0.3411
14905W        W31166  14.598  15.776  15.184 -0.2395 -0.0469  0.2172
14906W        W31167  16.995   2.020   3.233  0.0225 -0.0001 -0.2601
14907W        W31168   9.524   9.061  10.746  0.3048 -0.0217 -0.2179
14908W        W31169  17.343  17.715   5.006  0.1899 -0.0220 -0.0161
14909W        W31170  12.603  16.787   5.119 -0.2208  0.2282 -0.1443
14910W        W31171   7.325  14.960  11.308 -0.0048 -0.1986  0.3684
14911W        W31172   2.037  16.515   1.412 -0.0844  0.2202 -0.1473
14912W        W31173   3.045  16.422   4.555 -0.1689  0.0327  0.3378
14913W        W31174  14.712   9.350   0.093  0.0075  0.0872  0.2970
14914W        W31175   9.800  14.835  13.113  0.0176 -0.1449  0.2951
14915W        W31176  15.906   6.217   4.800 -0.1143  0.1058  0.0235
14916W        W31177   2.619  16.465   1.152  0.2180  0.1790 -0.2631
14917W        W31178   7.159   0.068  13.793 -0.1140  0.0768  0.0873
14918W        W31179  15.812  16.527  10.136  0.0143 -0.1704 -0.1500
14919W        W31180  15.727  13.630  14.943  0.1086  0.1782  0.1303
14920W        W31181  13.439  15.346  14.294  0.2669  0.0523 -0.0791
14921W        W31182   5.424   0.394   3.297  0.2428  0.0180 -0.0753
14922W        W31183   9.944   1.639  13.662 -0.0589 -0.1729  0.3670
14923W        W31184   9.781  16.243  14.360 -0.0406  0.1630  0.3010
14924W        W31185  14.017  14.912   3.277 -0.2249 -0.5232  0.1431
14925W        W31186   5.201  14.023   0.444 -0.1254 -0.1874 -0.0541
14926W        W31187  17.342   2.662  13.070  0.3350 -0.3075 -0.2694
14927W        W31188  11.823   7.592   0.906  0.0973  0.0412 -0.0368
14928W        W31189  13.195  13.743  13.291 -0.1541  0.0657 -0.0425
14929W        W31190   1.583  17.915   2.406 -0.1489  0.0409 -0.0601
14930W        W31191  16.074   0.460  12.974  0.0399  0.0598  0.0199
14931W        W31192  14.163  17.754  11.081  0.1436  0.0240  0.1256
14932W        W31193   4.472  11.968  12.572 -0.1175  0.2492  0.3107
14933W        W31194  14.788   6.673  14.265  0.0993 -0.1381  0.1731
14934W        W31195  17.145  15.737  13.871 -0.2802 -0.2680  0.2920
14935W        W31196  12.500  12.256   1.907 -0.4256  0.0639 -0.2294
14936W        W31197   9.974   4.731  12.888 -0.0907 -0.0491  0.0285
14937W        W31198   9.380   1.727  12.194  0.1534  0.3182 -0.0649
14938W        W31199   8.576  16.149  11.376  0.2805 -0.2018 -0.1628
14939W        W31200  11.128  14.294   4.835  0.2375  0.0709 -0.0142
14940W        W31201   4.586  13.642   3.137 -0.0535  0.2933  0.0539
14941W        W31202   7.409   0.542   2.175  0.1109  0.0805 -0.4774
14942W        W31203   3.125  12.694  13.034  0.0815 -0.2630 -0.1855
14943W        W31204  12.362  10.543   2.925  0.1773  0.5478 -0.0202
14944W        W31205   2.441   7.823  14.457  0.5259 -0.3193  0.1321
14945W        W31206   7.823   3.236   1.441  0.2451  0.0253 -0.0096
14946W        W31207   1.936  12.947   4.496 -0.2131 -0.1141 -0.0458
14947W        W31208   6.111   5.875  11.100  0.0758  0.3514  0.1275
14948W        W31209   2.175  15.877  15.125  0.1481  0.1944 -0.2773
14949W        W31210  11.174   8.878  12.318  0.1594  0.0224 -0.2259
14950W        W31211   3.983  14.631  14.018  0.0682  0.0012 -0.0267
14951W        W31212  12.113   1.748  11.721 -0.1123 -0.0712 -0.1148
14952W        W31213  13.220   4.064   5.322 -0.3986  0.2075 -0.3078
14953W        W31214  16.488  16.486   2.299  0.3112 -0.1535  0.0154
14954W        W31215  16.185   0.673   2.630  0.0075 -0.0883  0.0362
14955W        W31216   4.073   6.056  12.395 -0.0171  0.0372 -0.0418
14956W        W31217   5.594  10.125   2.962 -0.0212  0.0690 -0.0286
14957W        W31218   8.487   8.976   5.354  0.3554  0.0950 -0.1416
14958W        W31219   8.225  10.946  14.692  0.0528  0.0279 -0.1791
14959W        W31220   2.839  14.404  13.081 -0.0103 -0.0188  0.1659
14960W        W31221  15.802   8.833   4.356 -0.3009  0.2599  0.1238
14961W        W31222  16.045  13.319  12.584  0.0016 -0.1241  0.1667
14962W        W31223   4.556  17.942  12.734  0.0825  0.2154 -0.0240
14963W        W31224  14.704  16.791  13.540 -0.2526 -0.3292 -0.2964
14964W        W31225  15.869  15.945  15.206  0.0582  0.1537  0.0440
14965W        W31226  16.804   9.257  12.996  0.3070 -0.2743  0.1296
14966W        W31227  14.149  16.236   1.379  0.1445 -0.0019 -0.2430
14967W        W31228   4.085   4.458  14.509  0.0527 -0.0376 -0.0034
14968W        W31229   0.465  13.484   4.593  0.0944 -0.2208  0.0016
14969W        W31230  14.082  13.155  15.272  0.0464  0.0720 -0.2924
14970W        W31231  14.439  10.773   4.661  0.2649 -0.0506 -0.0788
14971W        W31232   0.649  18.595   4.934 -0.0699 -0.1857  0.1489
14972W        W31233   3.772   1.312  11.806 -0.0755 -0.1296 -0.2156
14973W        W31234   5.250  12.626   5.331 -0.0773  0.1222 -0.2040
14974W        W31235   7.718  16.551  12.684  0.0939  0.5701  0.3116
14975W        W31236   7.145  15.083  12.207  0.2480  0.0534  0.0614
14976W        W31237  17.257   9.049  14.877 -0.1304 -0.2145  0.2416
14977W        W31238  18.461  11.995  12.669 -0.1321 -0.0422  0.1931
14978W        W31239   6.994   6.295   1.563 -0.2231 -0.1132 -0.2500
14979W        W31240   7.676  15.018  11.691  0.0958  0.0575  0.1074
14980W        W31241   3.211  13.833  14.946  0.1221 -0.1312 -0.2033
14981W        W31242   8.477   5.587   0.343 -0.1938 -0.1536 -0.1834
14982W        W31243   0.656   1.672  13.003  0.2363 -0.0960  0.2328
14983W        W31244  12.507  10.727  12.690  0.4388 -0.0357 -0.3286
14984W        W31245   7.693  13.500  15.596 -0.1874  0.0353  0.0774
14985W        W31246  15.710   5.719   2.256  0.0656  0.0888 -0.1515
14986W        W31247   7.814   4.636  12.958 -0.1356  0.1327  0.1163
14987W        W31248   0.177   5.240   2.965  0.0032  0.0313  0.0084
14988W        W31249   4.319   8.752  10.944 -0.0060 -0.0101 -0.0020
14989W        W31250  14.750   2.695  12.476 -0.1432 -0.2400  0.0687
14990W        W31251   4.231   6.318  11.117 -0.0226 -0.0214 -0.0193
14991W        W31252  11.581  13.228   0.997  0.1033 -0.0676 -0.1572
14992W        W31253  11.952   8.530   0.673  0.0216 -0.0066 -0.2002
14993W        W31254   3.566  15.695  11.290  0.2156 -0.0584 -0.0672
14994W        W31255  12.978  17.686   5.144  0.1486 -0.0147 -0.3168
14995W        W31256   9.992  18.430  14.748  0.1660  0.1679  0.1758
14996W        W31257   7.519  10.615  12.398 -0.2885  0.3366 -0.3850
14997W        W31258   7.159   7.938   0.334 -0.0044 -0.2647 -0.1781
14998W        W31259  14.292   0.901   0.874  0.2015  0.0450 -0.1624
14999W        W31260   6.348  15.807  15.533  0.0798 -0.0318 -0.1571
15000W        W31261   6.188   0.039  15.376 -0.1438 -0.2050 -0.1827
15001W        W31262   3.756   5.694  12.305  0.1882  0.1193 -0.1673
15002W        W31263  17.805   6.863   0.771  0.0626 -0.0028 -0.1512
15003W        W31264   7.882  11.268   1.974  0.0582 -0.0225  0.0859
15004W        W31265   3.710   3.814  15.318  0.0997 -0.0406 -0.1960
15005W        W31266   5.675   0.556  13.330  0.0948 -0.0313  0.0063
15006W        W31267  10.643  11.273  14.903  0.3671  0.1174 -0.0054
15007W        W31268   6.446   8.538   0.702 -0.2220 -0.1213 -0.0949
15008W        W31269  16.458  13.545  12.887 -0.0069  0.0822  0.2435
15009W        W31270  17.621  11.788  13.949 -0.1142 -0.0800  0.2980
15010W        W31271   8.169  10.224   1.351 -0.2418 -0.0225  0.1047
15011W        W31272   2.944   9.797  11.464 -0.0123  0.2469  0.0885
15012W        W31273   2.893  16.399   0.714 -0.0723 -0.3237 -0.0743
15013W        W31274   5.455  12.286   0.658  0.2905 -0.2146  0.0439
15014W        W31275  11.658   7.484  13.237  0.2225 -0.0042 -0.1447
15015W        W31276   4.179   1.381   1.183 -0.1794 -0.5178 -0.0172
15016W        W31277  14.205   3.472   1.119 -0.0184 -0.1160  0.1279
15017W        W31278   2.266  16.863   4.059  0.1158  0.0916 -0.0208
15018W        W31279  12.125  16.896  12.095 -0.1073 -0.0458 -0.1684
15019W        W31280   8.295   5.339   1.651 -0.2325  0.1020  0.3029
15020W        W31281  15.706   3.069  12.648 -0.0263  0.2428  0.1571
15021W        W31282   0.090  11.452   2.499  0.0003 -0.3034  0.1654
15022W        W31283   4.582  12.908  13.838  0.1500 -0.0425 -0.0363
15023W        W31284  11.123   9.117  11.829 -0.1547 -0.0290 -0.1902
15024W        W31285   8.166   3.873   5.433  0.0021  0.2851 -0.2560
15025W        W31286   6.437  12.197   0.170 -0.0405  0.2138  0.0925
15026W        W31287  13.492   2.750  10.513 -0.2110 -0.1719 -0.1285
15027W        W31288  16.373   2.198  12.283  0.2058  0.2052 -0.2549
15028W        W31289  13.175  13.758   3.218  0.1652  0.1064  0.0674
15029W        W31290   7.858  14.475  13.177  0.1091 -0.0626  0.2021
15030W        W31291   7.381   2.290   5.873  0.1128 -0.1424  0.2070
15031W        W31292   8.857   8.042  14.019 -0.1139  0.1371 -0.0862
15032W        W31293   5.049   5.822  11.990  0.0749  0.0289 -0.2054
15033W        W31294  12.907  14.069   0.068  0.0960  0.1768 -0.2321
15034W        W31295   4.877   4.568  11.538 -0.0126 -0.0887  0.0906
15035W        W31296   3.008   4.077   4.039 -0.1563  0.0687  0.1537
15036W        W31297  10.938   0.344  11.952 -0.1896  0.2554 -0.1791
15037W        W31298  12.857  17.250   4.738  0.2944  0.0391 -0.0013
15038W        W31299  14.258  18.682   0.425 -0.1095  0.0921  0.1104
15039W        W31300  16.618   6.346   0.089  0.2402 -0.0221  0.0295
15040W        W31301   5.426  12.365   3.549  0.1220 -0.1632  0.0622
15041W        W31302   6.909  13.890   5.339  0.1433 -0.2352 -0.2382
15042W        W31303   5.397   5.961   0.999 -0.1783 -0.1560  0.1034
15043W        W31304  11.379  18.741  13.669  0.0139 -0.0561  0.0678
15044W        W31305  15.116   9.534   3.416 -0.0588 -0.3172 -0.0618
15045W        W31306  11.402   5.734  15.636 -0.0130 -0.0978  0.0600
15046W        W31307  17.943  18.071   1.066  0.0457  0.0031 -0.1031
15047W        W31308  15.477   7.406  13.543  0.1532  0.1632 -0.0326
15048W        W31309  14.249   9.960  10.526  0.1235 -0.0318 -0.1183
15049W        W31310   0.116   3.809   3.845 -0.0419 -0.0466  0.1465
15050W        W31311  16.180  14.408   2.763  0.1337  0.2377  0.0418
15051W        W31312   4.684   3.546  14.397 -0.0128  0.1852 -0.2196
15052W        W31313  15.977  18.017  14.598  0.2746  0.1440 -0.0311
15053W        W31314   4.920   5.981   4.121  0.5809  0.3854  0.0658
15054W        W31315  10.190   2.545   4.852 -0.0416 -0.0685 -0.4991
15055W        W31316   7.032   8.030  12.402  0.1227 -0.0396  0.1330
15056W        W31317  16.494   6.944  10.844 -0.0709  0.2438  0.2769
15057W        W31318  17.058  10.606   5.214 -0.0300 -0.2579 -0.0740
15058W        W31319   8.452   0.789   2.066  0.0004  0.0708  0.1577
15059W        W31320   5.102  15.997   4.161 -0.0162 -0.3282 -0.0849
15060W        W31321   5.893   7.175   2.298  0.2955 -0.1910 -0.1352
15061W        W31322   0.208   3.748  14.124  0.1410  0.1451 -0.0094
15062W        W31323   9.631   7.854   5.287  0.0081 -0.3539 -0.1059
15063W        W31324   2.431  16.701   0.028  0.1095 -0.0685 -0.0727
15064W        W31325   2.370  18.662   5.009 -0.2098 -0.1653 -0.0177
15065W        W31326  13.394   9.464  12.079  0.0497  0.0286 -0.0454
15066W        W31327   2.968  10.421  12.132 -0.1761  0.1639 -0.0111
15067W        W31328   0.103   4.082  12.764 -0.4198  0.0374 -0.2049
15068W        W31329   1.855   1.785  14.885  0.2375  0.0365  0.0843
15069W        W31330   6.332  16.038   1.702 -0.0222  0.2208 -0.3428
15070W        W31331   3.154   7.902  11.588  0.0025  0.0121 -0.0103
15071W        W31332  16.103   4.382  13.701  0.1460 -0.0188 -0.0193
15072W        W31333   9.588  11.048   3.703 -0.1152 -0.0718  0.0841
15073W        W31334  18.246   6.498  10.494 -0.0798  0.1037  0.0508
15074W        W31335   3.184  13.503   3.006  0.2205 -0.3453  0.1147
15075W        W31336  11.436  11.121   5.386  0.0642 -0.2105  0.1016
15076W        W31337  11.646  17.492   0.360  0.2292 -0.2295 -0.0535
15077W        W31338   2.646   4.203   3.439  0.0247  0.0031 -0.0462
15078W        W31339  16.779   2.045   1.748 -0.1047 -0.1795 -0.1139
15079W        W31340   1.502  17.735   0.098  0.3878  0.3337  0.0824
15080W        W31341   0.189   4.548   3.196 -0.0034 -0.0438 -0.1223
15081W        W31342   9.580  17.041   5.539 -0.0807  0.3150  0.1374
15082W        W31343   2.429   5.406   4.843 -0.0069 -0.2885 -0.0677
15083W        W31344   1.711  14.213  10.627  0.0022  0.1189  0.1578
15084W        W31345  14.159  18.069   0.486  0.1364 -0.0770  0.3450
15085W        W31346   7.651   2.316  13.986 -0.0097  0.2326  0.2841
15086W        W31347  16.833   8.008   3.505 -0.1915 -0.0623 -0.2205
15087W        W31348  13.626   0.152   1.643 -0.1475 -0.4660 -0.2169
15088W        W31349   5.411  16.544  11.949  0.1365  0.2973  0.0621
15089W        W31350  17.662   9.443   2.045  0.0465  0.2544  0.0327
15090W        W31351   2.571  12.160   1.155 -0.1895  0.2765  0.1076
15091W        W31352   7.104  11.766   1.163  0.2195 -0.0500 -0.2631
15092W        W31353   1.177  16.124   1.247  0.1218 -0.1872 -0.0426
15093W        W31354   9.428   4.743  14.068 -0.1396  0.3635 -0.0024
15094W        W31355  14.080   4.255  11.363  0.3367 -0.0805  0.1495
15095W        W31356   1.440  12.949   1.316  0.1053 -0.1857 -0.0285
15096W        W31357  14.546  10.048  15.168  0.1222  0.0873  0.1765
15097W        W31358  12.854   8.618   1.079 -0.1381  0.1406 -0.0227
15098W        W31359  13.959  12.935   5.169 -0.2095 -0.2282  0.1429
15099W        W31360  14.801   8.436  11.262  0.2413 -0.1088 -0.3451
15100W        W31361   8.998  10.764  11.637 -0.1035  0.0931 -0.3395
15101W        W31362   8.218   1.173  11.435 -0.0406  0.0450 -0.0042
15102W        W31363   0.569  14.775  13.546  0.0908  0.5324 -0.0113
15103W        W31364  16.112   5.871   1.987 -0.2628 -0.2066 -0.3376
15104W        W31365  11.078   1.076   4.949  0.3656 -0.1606 -0.1806
15105W        W31366   4.329  13.522  12.513  0.0865 -0.1318 -0.1053
15106W        W31367   2.108  14.826  15.308  0.1471  0.3240  0.0866
15107W        W31368   5.826   0.909  15.599  0.3248  0.2941 -0.1688
15108W        W31369  18.079   2.409  13.709 -0.2897  0.1512  0.1121
15109W        W31370   9.177   3.232   4.358  0.2754 -0.0509 -0.2835
15110W        W31371   2.172  16.831  11.194 -0.1036  0.0671  0.0414
15111W        W31372   2.059   9.753   1.649 -0.2441 -0.3860 -0.0874
15112W        W31373  18.044   4.358  15.098  0.2065 -0.3226  0.2190
15113W        W31374  11.943   4.579   2.975 -0.3015  0.1475 -0.2599
15114W        W31375  18.769   3.643  12.807  0.2911 -0.0789 -0.0306
15115W        W31376   5.048   2.413  10.898 -0.2098 -0.0823 -0.0025
15116W        W31377   3.149  16.904   2.242 -0.2646 -0.0493  0.0300
15117W        W31378   7.372   4.942   0.170  0.0885 -0.2827 -0.0029
15118W        W31379   4.561   0.844   4.325 -0.0568  0.1753  0.1393
15119W        W31380   5.650  14.852   2.201  0.0828 -0.0212  0.1372
15120W        W31381  10.685  17.827  15.233 -0.2506 -0.1670  0.1412
15121W        W31382  11.153  17.993  15.275 -0.1466  0.2772 -0.1409
15122W        W31383   3.027   0.400   1.625 -0.0652 -0.2163 -0.0674
15123W        W31384  17.228  17.931  12.150  0.1224 -0.0766 -0.0618
15124W        W31385   4.627  18.017  11.155 -0.2216 -0.1497 -0.0809
15125W        W31386  11.010  13.798  11.241  0.1288  0.0251  0.0189
15126W        W31387  12.293   0.297  14.781  0.0318 -0.1493 -0.2846
15127W        W31388  15.030   3.980   2.862  0.1364 -0.1398 -0.1294
15128W        W31389   2.718  10.585  11.657 -0.0634 -0.0861  0.1984
15129W        W31390   7.859   3.679  15.607 -0.2162 -0.0247 -0.0372
15130W        W31391   0.329  17.210  15.430 -0.2608  0.1339 -0.1463
15131W        W31392  12.618   7.300   3.991  0.2580  0.0934  0.2594
15132W        W31393   1.638   6.627  12.567 -0.0479  0.0580  0.0254
15133W        W31394   4.744  16.983   4.111  0.3033 -0.0780  0.0749
15134W        W31395  14.646   7.413  15.619  0.0449  0.2948 -0.3272
15135W        W31396   8.545   6.359   2.590 -0.0947  0.3091 -0.0987
15136W        W31397  10.494   8.325  13.834 -0.0837 -0.1243 -0.0518
15137W        W31398   6.053  12.415   0.481 -0.0745  0.0110 -0.2455
15138W        W31399   0.672  17.051   1.351  0.1434  0.1042 -0.0029
15139W        W31400   3.449  11.782   1.285 -0.2454  0.0624 -0.1967
15140W        W31401   0.977  12.426   5.209  0.1761  0.1009 -0.3003
15141W        W31402  15.125  12.669   4.222 -0.1572  0.1997  0.1476
15142W        W31403   7.333  12.318  13.704  0.3528  0.0149  0.2032
15143W        W31404  14.382  12.517   4.284  0.2154  0.0786  0.2424
15144W        W31405   8.547  15.688   2.985  0.0263  0.1948 -0.1769
15145W        W31406  15.440   8.782  11.139  0.0995  0.2233  0.0299
15146W        W31407   1.829   9.004  14.061 -0.0879 -0.0341  0.0506
15147W        W31408  10.654  12.189  12.793  0.0250 -0.1285  0.0233
15148W        W31409   7.235   0.530   4.165 -0.0957  0.3095 -0.0544
15149W        W31410  13.285   5.513  11.586  0.2023 -0.0995  0.1792
15150W        W31411   3.610  12.126   1.660 -0.2688  0.2178  0.0394
15151W        W31412   3.358  17.855  11.469 -0.2582  0.3217  0.1169
15152W        W31413  17.641  11.976  11.603  0.1761  0.0246  0.3487
15153W        W31414   2.311  13.854  12.775  0.0037 -0.0373 -0.2463
15154W        W31415  13.450  13.972  12.136  0.6024 -0.0917 -0.0351
15155W        W31416   6.274   2.013   1.031  0.2777  0.3054 -0.4046
15156W        W31417   2.311   5.253  15.499  0.0650 -0.0314 -0.1700
15157W        W31418   4.304   1.976  13.798  0.2345 -0.2758  0.1849
15158W        W31419  10.902  14.775   2.583 -0.1022  0.3499  0.3375
15159W        W31420  14.890   9.950   1.083 -0.2826  0.1081  0.1848
15160W        W31421   0.948  11.361   1.657 -0.2611 -0.0468 -0.1053
15161W        W31422   2.569   1.685   1.402 -0.0511  0.2580 -0.2837
15162W        W31423   7.857  12.599   0.366  0.1758  0.1401  0.3293
15163W        W31424   6.914   7.322   3.217  0.2584  0.0478  0.0657
15164W        W31425  17.853  12.331  10.152 -0.0869 -0.0703  0.1295
15165W        W31426  11.546   9.128  10.761 -0.1341 -0.0021  0.2593
15166W        W31427   7.987   2.118   4.163  0.0505 -0.2838  0.2064
15167W        W31428  17.635   4.771   2.613  0.2354  0.0337  0.0824
15168W        W31429   7.141   7.895  15.139  0.4746 -0.2270  0.1559
15169W        W31430  18.557   6.506  13.351  0.1104  0.1165  0.1465
15170W        W31431  10.239   8.244  11.420  0.1139  0.2055 -0.2405
15171W        W31432  12.342  17.332  12.038  0.1145 -0.3217  0.1112
15172W        W31433   8.335   7.142  12.165 -0.1553 -0.0315  0.1419
15173W        W31434  10.002   6.800   0.691 -0.1143  0.1379  0.3820
15174W        W31435   7.560  15.794   0.922 -0.0117 -0.1754  0.0745
15175W        W31436   7.504   4.878   4.415  0.0512  0.2634  0.0396
15176W        W31437  10.719  15.089   0.456 -0.0774  0.1572  0.1301
15177W        W31438   9.753  11.813  14.037  0.0758 -0.1342 -0.2609
15178W        W31439  16.165  16.485  12.287 -0.1721  0.2074  0.4974
15179W        W31440   0.221  17.968   3.836  0.1345  0.1295  0.1765
15180W        W31441   6.202  12.834  10.820  0.1973 -0.0656 -0.1461
15181W        W31442   1.915  17.984   2.862 -0.2256 -0.3330  0.0378
15182W        W31443  12.815  10.891  13.129 -0.4493 -0.0706  0.2003
15183W        W31444  12.478  18.467  13.390 -0.1425 -0.0660 -0.1446
15184W        W31445  15.337   3.667   4.965 -0.2027 -0.1837  0.1768
15185W        W31446  14.215   2.287   0.277  0.2209 -0.1580  0.4697
15186W        W31447   3.146  11.488  10.750  0.0945 -0.6115  0.0032
15187W        W31448  17.139  14.803  13.768 -0.1167  0.1842  0.2303
15188W        W31449  12.004   5.911  13.689  0.2900 -0.0888  0.5437
15189W        W31450   5.883   6.536   0.563 -0.1491  0.2342 -0.0848
15190W        W31451  15.321   7.513   0.883  0.2301  0.1242  0.0428
15191W        W31452   5.401  10.074   5.093  0.2193 -0.1760 -0.0818
15192W        W31453  10.897   5.565   2.123 -0.1309 -0.3095 -0.0399
15193W        W31454  17.074   4.450  12.347 -0.0093 -0.0303 -0.0282
15194W        W31455   3.262  17.602   2.868 -0.1312 -0.2312  0.1225
15195W        W31456   4.311  17.790  13.696  0.2219  0.0426 -0.0228
15196W        W31457  18.215   2.534   0.101  0.1125  0.2302  0.0679
15197W        W31458  13.691  13.549  12.312 -0.3207 -0.1103  0.2797
15198W        W31459  16.198   1.563  11.591  0.0496 -0.0217 -0.2034
15199W        W31460   6.254  15.029  14.007  0.0558 -0.0873 -0.0696
15200W        W31461  10.111   5.793  12.407  0.4564  0.3455 -0.2997
15201W        W31462   9.873   1.680   3.002 -0.1847  0.1632 -0.1458
15202W        W31463  11.926  10.943   1.535 -0.0897 -0.1323 -0.1187
15203W        W31464   7.689   2.027   3.630  0.2449  0.1238  0.1122
15204W        W31465  17.075   9.422   0.153  0.1037 -0.1087 -0.1761
15205W        W31466   0.147   0.387  15.077 -0.2343  0.0747 -0.2268
15206W        W31467   7.825   6.007  12.774  0.0389  0.2050  0.1149
15207W        W31468  16.256   2.135  15.524  0.2302  0.0193 -0.1112
15208W        W31469   8.983  13.492   1.810  0.0114  0.0097  0.1654
15209W        W31470  17.784   5.061  11.499 -0.0157 -0.0040 -0.1591
15210W        W31471   6.795   3.979   5.958 -0.1967  0.3358  0.0106
15211W        W31472  13.950  16.860   5.590  0.0767  0.0796  0.4057
15212W        W31473   4.851  14.493   1.671  0.0669 -0.1610 -0.0295
15213W        W31474  14.138   5.206  12.757 -0.0718 -0.2490  0.3713
15214W        W31475   6.061  12.937   5.417  0.0888  0.0174 -0.0694
15215W        W31476  11.057  15.879  14.446 -0.0472  0.0024  0.2692
15216W        W31477   8.387  15.653   3.842  0.1333  0.2792 -0.0398
15217W        W31478   2.594  12.149   0.649 -0.1434  0.0740  0.2411
15218W        W31479   7.438   8.626  10.570  0.1905  0.3282  0.0644
15219W        W31480   5.505   5.989   5.652 -0.1118 -0.4344  0.1114
15220W        W31481   4.803  18.615   1.319  0.0233  0.0829 -0.2121
15221W        W31482   5.365  15.528   4.780 -0.0923  0.1706 -0.3540
15222W        W31483   8.807   8.961  14.025 -0.0777  0.0314 -0.2164
15223W        W31484  12.956  16.861  14.690  0.3838  0.1785 -0.1163
15224W        W31485  16.580   1.496   0.596  0.0969 -0.0739  0.0185
15225W        W31486  16.088  13.716   3.134 -0.1314  0.0646  0.3483
15226W        W31487   8.062  14.683  15.517  0.1386  0.1661  0.2477
15227W        W31488   5.632  12.854   2.170 -0.0440  0.0024  0.3550
15228W        W31489  13.517  17.502   3.567 -0.2168  0.0872  0.2388
15229W        W31490   9.968  12.752  10.715 -0.4345 -0.0523  0.1323
15230W        W31491  17.861  12.327   1.045 -0.1659  0.2103  0.0067
15231W        W31492   9.805  11.894  12.583  0.1055  0.1651  0.3147
15232W        W31493   4.788   6.200  12.932 -0.1511  0.0943  0.0779
15233W        W31494   8.385   5.183  14.453  0.0104  0.2057 -0.1112
15234W        W31495   9.655  11.416   1.594  0.0333 -0.0701  0.1159
15235W        W31496   8.769   9.446   4.804 -0.1733 -0.0804  0.2184
15236W        W31497   9.298  16.821   3.546  0.0369 -0.1413  0.2651
15237W        W31498  10.097   9.140  14.473  0.3416  0.0548  0.3765
15238W        W31499   6.650  12.703  13.322  0.0463 -0.5791 -0.0913
15239W        W31500   7.978  14.791  11.324  0.0832 -0.0856  0.1889
15240W        W31501   0.466  12.207   4.193  0.3057 -0.1757 -0.1094
15241W        W31502  12.600   0.308   5.781 -0.1124 -0.0069  0.0534
15242W        W31503   8.557   8.618   1.359 -0.1841  0.1152 -0.0261
15243W        W31504  11.446   2.992  12.837  0.0446  0.2301 -0.0305
15244W        W31505   8.106  15.537  11.206  0.0166 -0.1406 -0.2299
15245W        W31506  11.297   8.364   3.753 -0.2839  0.0682  0.0225
15246W        W31507   1.818   2.154  12.068  0.0102 -0.1299 -0.1427
15247W        W31508   5.312   3.695   2.824 -0.1876 -0.1160 -0.1658
15248W        W31509   9.998  18.006  10.900 -0.0922  0.1569 -0.1277
15249W        W31510   9.252   5.481  12.085 -0.1249 -0.0361 -0.0517
15250W        W31511  15.329   6.048  14.859 -0.0704 -0.1427  0.2587
15251W        W31512  11.989   7.480  14.420 -0.0320  0.0683  0.1592
15252W        W31513  15.724  10.509  12.747  0.2622 -0.1304 -0.1191
15253W        W31514  10.341  12.023  12.446  0.0153  0.0362  0.1282
15254W        W31515  13.833  15.874  11.463  0.2084 -0.0622  0.3195
15255W        W31516  14.726   0.048   5.092 -0.0143  0.2822 -0.3630
15256W        W31517   1.201  17.418  13.753 -0.0068  0.4527  0.0528
15257W        W31518   0.386  17.061   0.289  0.3150 -0.0755 -0.0782
15258W        W31519  10.032   5.444  11.977 -0.1719 -0.3017  0.1510
15259W        W31520  18.269  17.125   0.250  0.0761  0.6766 -0.1394
15260W        W31521   5.498  12.956   0.153  0.0903 -0.0902 -0.0461
15261W        W31522   1.207  14.690   4.631  0.0932 -0.2313  0.0294
15262W        W31523  10.311   4.669   1.195  0.1421  0.0353 -0.2431
15263W        W31524  10.508   2.990   2.633  0.0380  0.1583  0.0310
15264W        W31525   7.498   5.217   2.270  0.0248 -0.1548  0.2846
15265W        W31526   0.237  16.738  15.289 -0.1513 -0.1569  0.0557
15266W        W31527  16.017  16.494  15.496 -0.2765 -0.1149  0.2110
15267W        W31528   2.559  11.641  15.522 -0.1116 -0.0336 -0.0638
15268W        W31529   7.146   7.283   2.757 -0.3536 -0.1440  0.0099
15269W        W31530   3.605  16.524  11.497  0.1440 -0.1692  0.0410
15270W        W31531   8.014   3.658   5.931  0.2681 -0.2189 -0.2125
15271W        W31532   7.687   0.440   1.428  0.1496 -0.0465 -0.1370
15272W        W31533   6.978  16.038  12.671 -0.2393  0.1379  0.3953
15273W        W31534   0.490  15.813  10.630  0.0877 -0.3181  0.1532
15274W        W31535  11.371   1.539  12.712  0.0051 -0.3559  0.3300
15275W        W31536   3.998   3.239   4.073 -0.1731  0.3562 -0.4366
15276W        W31537   4.324   7.236   3.963  0.0871 -0.1897 -0.1598
15277W        W31538  15.210   7.940   4.627 -0.1077  0.1610  0.2530
15278W        W31539   7.207   3.424   0.250 -0.0883  0.1381  0.3090
15279W        W31540  13.967  14.736  15.559  0.0570  0.1300  0.3062
15280W        W31541  10.045  15.113   3.068 -0.1883 -0.2248 -0.0753
15281W        W31542   3.421   0.944  12.223 -0.0974 -0.1694 -0.3710
15282W        W31543   2.871  16.912   0.892  0.0610  0.0797 -0.0046
15283W        W31544  15.512   9.353   1.215 -0.0445 -0.1457  0.0499
15284W        W31545  16.593  15.937  11.749  0.2071 -0.0934 -0.3296
15285W        W31546  18.065   7.546   2.002  0.4020 -0.2455 -0.0813
15286W        W31547   7.205   3.825   5.313  0.0698 -0.1283  0.3364
15287W        W31548   6.095  12.311   2.817  0.3262 -0.0183 -0.2770
15288W        W31549  10.017   3.136   0.275 -0.0224  0.0290  0.0225
15289W        W31550   8.935   7.952   2.365 -0.1848  0.1134 -0.0315
15290W        W31551   1.756  11.754  15.017 -0.0864 -0.1374  0.2270
15291W        W31552   1.073   9.981   1.264 -0.2442 -0.1728 -0.0676
15292W        W31553   2.724   4.424   3.928  0.1717 -0.2949  0.3042
15293W        W31554  12.738   7.714   5.510 -0.1939 -0.0677 -0.1004
15294W        W31555   5.126  17.273   5.070  0.1374  0.2288  0.1366
15295W        W31556   9.843   4.001   1.058 -0.0461 -0.2304 -0.0762
15296W        W31557   8.255  16.908   0.210 -0.1673 -0.2176  0.2958
15297W        W31558   4.488  11.922   1.431  0.0802 -0.0321 -0.0030
15298W        W31559  18.328  13.758  14.636  0.0836 -0.0971  0.0039
15299W        W31560   7.571  13.883   0.761  0.3038 -0.0676 -0.2525
15300W        W31561  16.851  11.308   0.389  0.4123 -0.0085 -0.1293
15301W        W31562   6.920   2.814  12.860  0.1764 -0.1524 -0.0182
15302W        W31563  15.850   6.743   2.082 -0.0119 -0.0529 -0.0559
15303W        W31564  18.709  14.036   2.850  0.3776 -0.0364  0.0256
15304W        W31565  16.007   8.291   4.792  0.0371 -0.0863  0.1251
15305W        W31566  10.339  15.793  13.867  0.0646 -0.0512  0.0907
15306W        W31567  17.871   0.819  12.297  0.1497 -0.2343 -0.0962
15307W        W31568  11.365  12.328   3.229  0.1656 -0.1581 -0.0762
15308W        W31569  18.503   1.000   0.131 -0.2104  0.0369  0.0852
15309W        W31570   5.956  10.179   2.067  0.3628  0.2745 -0.0584
15310W        W31571  15.017   9.760   0.168  0.1533  0.0402  0.0267
15311W        W31572  17.485  17.364  13.733  0.0322  0.3331  0.2726
15312W        W31573  10.325   1.519   3.849 -0.2901 -0.0903 -0.1689
15313W        W31574   9.374  14.771   0.400  0.0945 -0.0041 -0.0810
15314W        W31575   0.299   2.348  11.801  0.0721  0.2888  0.2051
15315W        W31576   5.496   2.619   1.641 -0.1645  0.0900 -0.3428
15316W        W31577  11.131  15.628  10.989  0.1643 -0.1263  0.2615
15317W        W31578  14.736   7.258  13.569 -0.0745  0.3587 -0.0316
15318W        W31579   3.229   9.464  14.706  0.0770  0.0964 -0.3588
15319W        W31580   7.517   6.673  12.013  0.2253 -0.0276 -0.3141
15320W        W31581  18.601   6.697   4.201 -0.0959  0.1212 -0.1772
15321W        W31582  18.284   0.196   4.221  0.0577  0.1976  0.1243
15322W        W31583   3.157  12.093   4.675 -0.2998 -0.2068  0.1081
15323W        W31584  18.506   9.681   2.379  0.3111  0.0368  0.1722
15324W        W31585  18.422   5.027   3.703  0.1191  0.0346 -0.3385
15325W        W31586   1.853  15.143  12.884  0.1939  0.1174 -0.0159
15326W        W31587  15.365  12.462  13.000 -0.0015 -0.1323 -0.0528
15327W        W31588   3.427   0.040   1.356 -0.1987 -0.0955 -0.0096
15328W        W31589   9.286   1.268   3.558  0.0967  0.0807  0.0408
15329W        W31590  16.660  16.926   3.254 -0.2874 -0.0239 -0.1142
15330W        W31591   0.537  13.473   0.543  0.0711  0.1633 -0.1855
15331W        W31592   6.448  13.647   1.401  0.4579  0.0729  0.0856
15332W        W31593  18.364  18.246   4.675 -0.2003 -0.1916 -0.1285
15333W        W31594   4.295   0.581  11.323 -0.0519  0.0017 -0.2905
15334W        W31595  14.349   6.651  12.402 -0.2309 -0.0907  0.1826
15335W        W31596  12.232   1.207   1.649 -0.2188  0.3972  0.2327
15336W        W31597   7.320  15.515   3.682  0.2084 -0.0694  0.0715
15337W        W31598  10.805   1.084  13.954 -0.1148 -0.0084  0.1505
15338W        W31599   8.110  13.999   5.829  0.2207 -0.1012  0.0127
15339W        W31600  12.559  17.308   1.250  0.0455  0.1723 -0.2945
15340W        W31601  18.609   4.954  11.179 -0.0357  0.0290  0.2147
15341W        W31602  12.232  18.804  12.880  0.2214 -0.0605 -0.1436
15342W        W31603  13.550  15.454   1.986 -0.0782  0.1852  0.2080
15343W        W31604   8.074  15.672   1.777  0.1889  0.3602  0.1817
15344W        W31605   7.677   8.347   5.347 -0.1984 -0.1078  0.0777
15345W        W31606   1.061  12.482   3.381 -0.1058  0.1933  0.4240
15346W        W31607  16.277  17.069  13.515 -0.1066  0.0090 -0.0026
15347W        W31608  12.358  10.143   0.236 -0.1303 -0.1495  0.4119
15348W        W31609   9.830  13.741   4.412 -0.0774  0.1492 -0.0046
15349W        W31610   7.758   8.073  15.017  0.1829 -0.2279 -0.0956
15350W        W31611  10.636  15.808  14.845  0.1667  0.1524 -0.0434
15351W        W31612  16.201   8.029  12.155 -0.2618  0.1542 -0.2237
15352W        W31613  10.577   1.757  14.421  0.0142  0.1363  0.1866
15353W        W31614  16.302   0.551   2.079  0.1284  0.0630 -0.0752
15354W        W31615  14.318   3.834  11.058 -0.0606  0.2975  0.0897
15355W        W31616  17.699   0.965   2.033 -0.0907 -0.0801  0.2461
15356W        W31617   7.347   3.226   1.951  0.1357  0.2742  0.1189
15357W        W31618  13.919  10.224   1.965  0.1113  0.2008 -0.1456
15358W        W31619   1.424  12.271  13.917  0.0141  0.0559  0.0546
15359W        W31620  15.086  13.902  14.292 -0.5491 -0.0067  0.0613
15360W        W31621  16.642  10.343   2.361  0.2515  0.3045  0.0959
15361W        W31622   8.991   0.598   1.939  0.1309  0.2596 -0.2006
15362W        W31623  16.348   8.803   1.647  0.1084  0.1873  0.1897
15363W        W31624  10.188   4.063   0.040 -0.0262 -0.3440  0.0650
15364W        W31625   5.165   1.545   0.066 -0.1553 -0.2399  0.2605
15365W        W31626  18.676   7.498   2.825  0.0265 -0.1092  0.1518
15366W        W31627   2.293  18.592  14.528 -0.1952  0.0685 -0.0173
15367W        W31628  14.070   0.459  15.351  0.2469 -0.4405 -0.2729
15368W        W31629  11.522  17.455   1.693 -0.0488 -0.0630 -0.2500
15369W        W31630  12.018   9.348  14.591  0.0398 -0.2067  0.1664
15370W        W31631  16.335   5.045  12.243 -0.0373 -0.2401 -0.0014
15371W        W31632  16.059   0.406  12.149 -0.1329 -0.0513 -0.1925
15372W        W31633  10.617  17.925  10.947 -0.1141 -0.1915  0.1368
15373W        W31634  10.503  10.950  10.697  0.1987  0.0351 -0.1045
15374W        W31635   7.001  18.582   5.280 -0.1686  0.2676 -0.0594
15375W        W31636   8.788  10.489  13.469  0.2224  0.0812  0.0862
15376W        W31637  17.151   9.887  12.379 -0.2496 -0.1999  0.1075
15377W        W31638   0.298  10.240  11.531  0.3314 -0.0924  0.1298
15378W        W31639   4.746  15.007   4.263  0.0726  0.0304 -0.1211
15379W        W31640  16.699   6.249  11.825 -0.0446  0.2244 -0.0446
15380W        W31641   5.403  18.793  14.154  0.2838 -0.1740  0.3048
15381W        W31642   5.049  13.784   3.432 -0.1876 -0.1757  0.1537
15382W        W31643   0.809  12.867   9.581  0.0255 -0.0407 -0.0588
15383W        W31644  16.230  10.860   0.944 -0.0034  0.0991  0.1371
15384W        W31645   2.321   5.169  11.202  0.0332 -0.1539 -0.1929
15385W        W31646  12.026   2.425  13.655  0.1612  0.0922 -0.4961
15386W        W31647  11.693  15.124  11.781  0.0529  0.0791 -0.3773
15387W        W31648  14.055  13.602  11.180  0.2751 -0.0191  0.2797
15388W        W31649   6.756   7.789  14.802 -0.3156  0.0775  0.3456
15389W        W31650   6.447  10.151   1.906  0.1739  0.1162  0.1814
15390W        W31651   2.723   1.620  11.761 -0.3235 -0.2871  0.3465
15391W        W31652   3.834   6.509   4.591  0.0134  0.2049 -0.3982
15392W        W31653  17.117   5.730   1.756 -0.2636  0.0378 -0.0696
15393W        W31654   2.068  11.296   4.427 -0.0961  0.2139 -0.4117
15394W        W31655  11.711   2.763  13.355 -0.0362 -0.1584  0.0733
15395W        W31656   5.537  12.646  13.921 -0.1331  0.0516 -0.0090
15396W        W31657   4.979   0.175   2.789 -0.0417  0.0569 -0.1046
15397W        W31658   1.515   5.735  12.932 -0.0154 -0.0812 -0.2138
15398W        W31659  10.443   0.852   5.474  0.0183 -0.2123 -0.3581
15399W        W31660   4.283  14.061  14.569  0.4084  0.2058  0.3991
15400W        W31661   7.106   5.898  12.347  0.1971 -0.3344  0.0856
15401W        W31662   5.356   2.416  12.223  0.1756 -0.0516  0.2338
15402W        W31663  17.088   8.087   2.174 -0.0379 -0.0102  0.1804
15403W        W31664   4.032   4.556  10.940 -0.2751  0.3703  0.0727
15404W        W31665   0.053   4.636  12.029  0.1774  0.1054  0.1825
15405W        W31666  11.817  17.497   2.875  0.0857 -0.0210  0.0272
15406W        W31667   0.110  14.095   1.141 -0.1084  0.5481  0.0955
15407W        W31668  13.419  10.986  10.650 -0.3257 -0.1830 -0.0981
15408W        W31669   1.063   1.077   4.951 -0.2526  0.2450  0.2293
15409W        W31670  14.963  16.509   4.760  0.2139  0.1110 -0.1733
15410W        W31671   0.931   0.259  12.491 -0.0046 -0.3001  0.3638
15411W        W31672   8.815   2.623  14.600  0.1836 -0.0655  0.0205
15412W        W31673  15.045  13.284  14.423  0.0005 -0.2412  0.2850
15413W        W31674  13.631   1.812  13.169 -0.0050  0.0226 -0.1471
15414W        W31675  13.401  16.048   5.190  0.1057 -0.2336  0.0819
15415W        W31676   6.573  13.781  13.075 -0.1781  0.3130  0.1295
15416W        W31677   3.241   5.692   6.123  0.0965  0.1194  0.1972
15417W        W31678   1.377  17.106  15.545  0.0060 -0.2789  0.0376
15418W        W31679  17.711   9.869   2.963  0.0881  0.3581  0.2072
15419W        W31680   8.812  11.375   4.434 -0.1225 -0.1507  0.1324
15420W        W31681   1.041  11.266  15.568  0.1981 -0.0008 -0.1303
15421W        W31682  11.407   6.188  13.741  0.1294 -0.1847 -0.3731
15422W        W31683   5.623  18.264   5.001 -0.3770  0.1839  0.2483
15423W        W31684   9.862   0.254   4.996  0.1061  0.0745 -0.1063
15424W        W31685   0.586  11.962  15.087 -0.1862 -0.0566 -0.1302
15425W        W31686   5.651  18.809   5.827 -0.2165 -0.2429 -0.1572
15426W        W31687   7.351  12.441  14.162  0.1183  0.0450  0.1233
15427W        W31688   6.339   5.710   4.780 -0.2035 -0.1556 -0.1419
15428W        W31689   2.401  17.142  15.062  0.0442  0.0916 -0.4191
15429W        W31690  13.265  12.740  15.015 -0.0072  0.2006 -0.0390
15430W        W31691   1.938  16.746   0.475  0.2536  0.0759  0.1326
15431W        W31692   9.688  12.120   0.788 -0.1732 -0.1869  0.2407
15432W        W31693   9.741  11.830  15.617  0.0637  0.1630 -0.3049
15433W        W31694   9.012  13.954  12.913  0.0587  0.1278  0.0702
15434W        W31695  14.634  11.994  11.393  0.2375  0.0766 -0.0854
15435W        W31696   4.508   9.403   0.848 -0.1071 -0.1566 -0.1801
15436W        W31697   5.183  15.805   1.245 -0.1996  0.0627  0.1179
15437W        W31698   1.916  17.775  10.796  0.0585  0.1524 -0.2906
15438W        W31699  17.279  10.189  10.654  0.1908 -0.3239  0.1930
15439W        W31700  16.475   3.619  14.711  0.0914 -0.3859  0.0720
15440W        W31701   1.215  13.358   3.229 -0.1537  0.0667  0.0931
15441W        W31702   6.915  18.582   1.731  0.0852  0.2890  0.0517
15442W        W31703  12.525   8.850  10.494  0.0144 -0.3817  0.3180
15443W        W31704  15.831   3.595  10.477 -0.3519 -0.1262  0.0131
15444W        W31705   5.218  13.056   5.694 -0.0586  0.2017  0.1345
15445W        W31706   1.885  15.508   0.878  0.3125  0.1149 -0.1167
15446W        W31707  16.278   3.200  14.840 -0.2371 -0.0083  0.2075
15447W        W31708  13.333   2.297   2.756  0.2915 -0.3905  0.0843
15448W        W31709   9.173  15.081   2.465 -0.1039  0.1199  0.0133
15449W        W31710   4.719   9.606  12.566  0.0196 -0.1667  0.0573
15450W        W31711   1.827  14.743   1.404 -0.1527  0.1199 -0.1750
15451W        W31712   1.889   4.193   2.367 -0.0639  0.1782  0.0217
15452W        W31713   2.347  16.381   6.243 -0.2458 -0.2741 -0.1547
15453W        W31714  13.636  10.102  11.282 -0.2153  0.1221  0.3336
15454W        W31715   8.706  14.512   4.067 -0.0599  0.1420  0.3284
15455W        W31716   0.799  13.676  14.785 -0.1207 -0.0577  0.1616
15456W        W31717  12.420   8.695  11.122 -0.2623  0.2552  0.0617
15457W        W31718   8.909  17.735  11.658 -0.3002  0.2667  0.3655
15458W        W31719   4.365   0.865  14.068  0.1691 -0.0813 -0.4052
15459W        W31720  13.825   2.351   0.669 -0.2633  0.1801 -0.0449
15460W        W31721   0.151  12.530   4.970 -0.2928  0.0298  0.2430
15461W        W31722   4.370   0.539  13.712 -0.1655 -0.3025 -0.0187
15462W        W31723  17.171   3.434   1.001  0.2337  0.0757  0.1259
15463W        W31724   2.327  11.313  11.830  0.1115  0.1751  0.0077
15464W        W31725   6.989   3.558   3.622  0.1708 -0.2328 -0.1991
15465W        W31726   8.978  14.409  10.747  0.1406  0.3302 -0.0946
15466W        W31727   6.045  17.445  14.615  0.3564  0.0721 -0.0046
15467W        W31728   5.317  15.814  12.744  0.1202  0.0518 -0.1046
15468W        W31729   8.269  15.269  12.143 -0.0273  0.0962 -0.3809
15469W        W31730   6.462   2.109   1.546  0.0881  0.0653  0.0535
15470W        W31731  12.575   8.511   1.463  0.1398  0.2917  0.3472
15471W        W31732  13.030  11.275   0.859  0.0152  0.0491 -0.2517
15472W        W31733  11.992  15.134  11.393 -0.2339 -0.0745 -0.1708
15473W        W31734  14.004  17.988   3.181 -0.0465  0.2320  0.0756
15474W        W31735   6.747   1.887  15.456  0.2053 -0.1102 -0.0737
15475W        W31736  11.167   1.617   3.486 -0.1890 -0.0657  0.1483
15476W        W31737   9.198   0.742  11.184 -0.0040  0.0736  0.0579
15477W        W31738   9.309   7.225   1.957 -0.2863 -0.0932  0.2829
15478W        W31739  16.139   9.337  11.039  0.3609 -0.3148  0.1617
15479W        W31740  18.010  10.010  13.567 -0.2514 -0.4792  0.1284
15480W        W31741  17.368   4.989   3.906 -0.1822  0.4178 -0.0334
15481W        W31742  12.221   4.676   1.083  0.3147  0.1276 -0.1992
15482W        W31743   2.138   1.706  13.067 -0.3668 -0.3388  0.4486
15483W        W31744   1.764  12.932   2.801  0.1005 -0.0756  0.0851
15484W        W31745   0.033   1.770  13.456 -0.0594  0.0584 -0.3090
15485W        W31746  10.729   5.429  14.592 -0.0024  0.4160 -0.1373
15486W        W31747   8.571  18.348  10.910  0.1816 -0.0397  0.2996
15487W        W31748   8.107   6.901  14.136  0.2152 -0.0654  0.1763
15488W        W31749   1.996   8.455   0.852 -0.0951  0.2425 -0.1652
15489W        W31750   7.396   0.216   2.551  0.0552  0.1411  0.1017
15490W        W31751   5.686  17.050   4.384 -0.0076  0.1221  0.1538
15491W        W31752   0.907   5.197   5.820 -0.1507  0.2004 -0.1556
15492W        W31753   2.760  13.668  15.355  0.2083  0.1325  0.3914
15493W        W31754  18.050   7.057  11.806 -0.1259  0.0192 -0.0843
15494W        W31755  14.826   0.137   5.633 -0.2643 -0.1093  0.1797
15495W        W31756   4.384   6.459  12.184 -0.1759 -0.2319 -0.0104
15496W        W31757   2.572   0.448   0.009 -0.0143  0.0685  0.0067
15497W        W31758   9.112  12.988  14.444 -0.0468 -0.2972 -0.0740
15498W        W31759  12.518  14.198   3.232 -0.1129  0.1908 -0.0004
15499W        W31760   3.389  16.789   0.669  0.1596  0.1034  0.1869
15500W        W31761   3.376   9.311   3.297  0.0509 -0.0431 -0.0070
15501W        W31762   6.970   1.805   4.437  0.0344 -0.1847  0.2216
15502W        W31763   5.005  18.802  11.709 -0.2474  0.0543 -0.1020
15503W        W31764   3.431   3.998  14.901 -0.0569  0.1997 -0.0201
15504W        W31765  13.733  16.401  11.191 -0.1458 -0.1450 -0.1068
15505W        W31766   4.334  11.689   1.851  0.2017  0.2233 -0.1317
15506W        W31767  13.592   0.613   3.609 -0.2330  0.1595  0.2717
15507W        W31768   7.735   9.556  10.823 -0.3747  0.0642  0.1385
15508W        W31769   0.319  17.596   4.828  0.1423  0.0763 -0.1600
15509W        W31770   1.323   5.560  12.141  0.2645 -0.0159 -0.1280
15510W        W31771   1.825   8.932   3.122  0.2717 -0.1319  0.0206
15511W        W31772   5.794  17.050   1.348  0.3463 -0.4977 -0.0543
15512W        W31773   8.003   7.700   3.893 -0.0678 -0.1661 -0.1226
15513W        W31774   8.291  12.492   1.459 -0.1815 -0.0201 -0.0150
15514W        W31775   4.031   7.690   5.098  0.1821  0.2096 -0.1965
15515W        W31776  14.956   9.404  13.755  0.2303  0.4131  0.0822
15516W        W31777  14.239   5.758   2.290 -0.1025 -0.1244 -0.0532
15517W        W31778  16.164  17.537  13.788  0.2677 -0.1321 -0.1344
15518W        W31779   1.395  17.226  15.018 -0.0917 -0.1235 -0.0645
15519W        W31780   9.576  10.548   2.916 -0.0298 -0.2464 -0.2299
15520W        W31781  16.001  16.646   2.202 -0.1016  0.2857 -0.0746
15521W        W31782   6.136  13.122  12.620 -0.1258 -0.1074  0.0136
15522W        W31783   7.909   2.191  14.451 -0.0712 -0.0359 -0.0103
15523W        W31784  10.170  10.091   4.612  0.2068  0.1798  0.0355
15524W        W31785   0.438  15.467   5.686  0.1069 -0.1320 -0.0272
15525W        W31786  10.036  10.616  10.759  0.2133 -0.1122 -0.1868
15526W        W31787   0.006   7.826  10.944  0.2107 -0.0102 -0.2202
15527W        W31788  14.387   6.369  13.755 -0.2059  0.0484 -0.1673
15528W        W31789   9.012  12.676   2.186  0.0719  0.1611  0.5194
15529W        W31790  11.185   7.295  13.036 -0.0825 -0.1895 -0.1394
15530W        W31791  15.284  11.618  12.583  0.2772  0.2332  0.2580
15531W        W31792   3.584  16.791  13.624 -0.2689 -0.1986 -0.2229
15532W        W31793   1.052  14.930  13.521  0.1250 -0.2230  0.2368
15533W        W31794  15.701   6.527  13.669 -0.3311 -0.0340  0.1161
15534W        W31795  10.646  12.855  14.221  0.0540  0.1206 -0.1306
15535W        W31796   0.296   9.764  14.505  0.1197 -0.1646 -0.0275
15536W        W31797  17.049   8.033  13.738  0.1242 -0.0939  0.1812
15537W        W31798   4.702  11.427  14.785 -0.1361  0.1596  0.1427
15538W        W31799  17.285   2.372   2.964 -0.3908  0.3809  0.0467
15539W        W31800   4.837  15.946   5.130 -0.0736 -0.3113 -0.2079
15540W        W31801   0.214  17.666  13.517 -0.0380  0.0223  0.2257
15541W        W31802  15.843   2.440   1.800  0.0894 -0.1956 -0.0359
15542W        W31803   0.787   8.640  13.332 -0.0324 -0.0731 -0.2738
15543W        W31804   7.793   2.993  12.413  0.2254  0.0632  0.1485
15544W        W31805  18.808   6.776  14.215 -0.0783 -0.1777  0.1414
15545W        W31806   0.513   7.464  11.806 -0.0256 -0.1090  0.4438
15546W        W31807   0.749  12.123  11.897 -0.0460 -0.0693 -0.2969
15547W        W31808  15.841  15.074   0.069 -0.0839 -0.2530 -0.3904
15548W        W31809   3.694  16.076   3.495  0.3258  0.1711 -0.1631
15549W        W31810   7.137   2.290   3.768 -0.0549 -0.1261  0.1508
15550W        W31811  12.308   7.991   1.730 -0.2119 -0.0213 -0.0425
15551W        W31812   6.181   8.340   0.211  0.2305  0.3630 -0.0219
15552W        W31813  17.887   2.956   0.905 -0.0989 -0.3917 -0.1923
15553W        W31814  14.657   0.559   3.994 -0.1907  0.0103 -0.1243
15554W        W31815   8.789   3.475   4.200 -0.0540 -0.2170  0.2128
15555W        W31816  14.386   2.800  13.126  0.0295 -0.0066  0.0687
15556W        W31817   1.711  17.142   0.272 -0.0461  0.0151 -0.1372
15557W        W31818  16.573   9.496  14.923  0.0414 -0.1748 -0.0897
15558W        W31819   6.530   4.765   1.503  0.0740 -0.2313  0.2277
15559W        W31820  11.270   5.893   5.974 -0.0771  0.2322  0.0997
15560W        W31821   0.084  16.374   2.138 -0.2054  0.1236  0.3895
15561W        W31822  14.597   0.660  11.713 -0.1988  0.0935  0.0721
15562W        W31823   9.707  17.859   2.115  0.2384 -0.2747 -0.0395
15563W        W31824  18.720  15.013   1.904 -0.2836 -0.1267 -0.0109
15564W        W31825   7.523   0.343  14.042  0.0808 -0.0444  0.0873
15565W        W31826  17.357   3.793   1.321 -0.0922  0.0458  0.2606
15566W        W31827  13.874   5.567  13.165  0.0232 -0.1688  0.0276
15567W        W31828   4.955   0.462   0.829  0.1692  0.0864 -0.1114
15568W        W31829  13.357   3.695  12.937  0.0342  0.0963 -0.2277
15569W        W31830   4.485  11.813  13.056  0.1344 -0.1022 -0.0355
15570W        W31831   7.315   8.789  12.406  0.5099 -0.0498  0.0327
15571W        W31832   8.759   2.409   0.605  0.1542 -0.3308  0.1087
15572W        W31833  16.480   4.164  10.188 -0.1819 -0.0669  0.1423
15573W        W31834  16.758  17.432   1.196  0.0144  0.2862  0.2255
15574W        W31835   8.228   6.854  12.925  0.0263  0.2037 -0.0949
15575W        W31836  11.864   6.055  11.605  0.2541  0.4784  0.0389
15576W        W31837   1.261   1.055   2.428 -0.0521  0.1041  0.1314
15577W        W31838   1.642   4.317   0.753 -0.2477 -0.0160 -0.0622
15578W        W31839  14.175  12.674  15.373 -0.0396  0.0021  0.0022
15579W        W31840   2.481   8.379  11.816 -0.1046 -0.0208 -0.1212
15580W        W31841   1.256  16.188   0.682  0.2365  0.0376 -0.3216
15581W        W31842   9.400   1.906   2.274  0.1626 -0.0510 -0.0871
15582W        W31843   6.387  15.280   2.257  0.1906  0.4988 -0.2338
15583W        W31844   3.020   2.066   3.916 -0.0858  0.0434  0.2017
15584W        W31845  18.504   8.756   1.134 -0.1838  0.1453  0.1103
15585W        W31846  17.677   0.460  15.451 -0.1619  0.2018  0.2818
15586W        W31847  12.592   9.344  14.467 -0.2334 -0.0283  0.3165
15587W        W31848   7.241   9.924   4.295  0.0865  0.0845  0.2740
15588W        W31849   5.417   1.102  12.659 -0.1364 -0.2875  0.0433
15589W        W31850  12.552  10.707   2.472 -0.2594 -0.0278  0.4510
15590W        W31851   6.571  10.887  13.675 -0.1669  0.1181  0.1456
15591W        W31852  12.980   6.489  13.848 -0.1769 -0.0341  0.1622
15592W        W31853  16.758  12.358  10.963  0.1360  0.0079  0.2863
15593W        W31854  17.715  13.089  14.893 -0.3782  0.2415 -0.0316
15594W        W31855  17.449   2.192   4.987  0.1027 -0.1620 -0.1329
15595W        W31856   7.151   4.639   4.649 -0.4166 -0.0205 -0.1887
15596W        W31857  11.196   6.662  15.058 -0.1034 -0.0472 -0.5948
15597W        W31858   9.290   9.778   1.279  0.0581 -0.1700  0.0318
15598W        W31859  11.434   7.809   0.644 -0.2157 -0.1032 -0.0901
15599W        W31860  13.230  17.970   4.813  0.0102  0.2244 -0.0732
15600W        W31861  17.773  15.937   0.449  0.0597 -0.1231  0.3114
15601W        W31862   9.090  18.815  11.905  0.1879 -0.1560 -0.2222
15602W        W31863  12.470  18.393   2.716  0.0535 -0.3917  0.0723
15603W        W31864   8.422  12.909  11.273 -0.1241 -0.0487  0.2666
15604W        W31865  16.856  11.481   1.873  0.1874  0.0261  0.3058
15605W        W31866  15.777   5.680   4.958  0.5545 -0.4049  0.0451
15606W        W31867  10.832  15.413   0.790  0.1529 -0.2147 -0.0324
15607W        W31868   8.651  13.412   4.037 -0.1111 -0.1140 -0.1516
15608W        W31869   0.047   6.732  12.412  0.3193 -0.3273  0.2186
15609W        W31870   0.770  18.220   1.745 -0.1021 -0.1349  0.0587
15610W        W31871   7.970   4.222   1.052  0.3663  0.0917 -0.1895
15611W        W31872   6.244   7.330  15.205  0.3118 -0.0566 -0.1544
15612W        W31873  14.071  17.110   3.391 -0.2392  0.3153  0.1904
15613W        W31874   4.066  11.480   2.578 -0.2737  0.0831  0.2587
15614W        W31875   0.859   5.852  12.663  0.3459 -0.3323  0.0457
15615W        W31876  18.428  10.317  15.205 -0.0215  0.1808 -0.1972
15616W        W31877   1.707   7.853  12.889  0.0192 -0.5307  0.0441
15617W        W31878   5.337  11.135  14.214  0.3235  0.0312  0.1556
15618W        W31879  15.279   9.361   3.836  0.2095 -0.1754  0.2682
15619W        W31880  18.505   4.795  13.947 -0.0168  0.1130  0.1659
15620W        W31881   9.043  10.927  13.487  0.0658 -0.3379 -0.2428
15621W        W31882  10.652   0.026  12.783 -0.0809  0.2662  0.0668
15622W        W31883   9.155  11.861  14.192  0.2676 -0.0221  0.0580
15623W        W31884   7.268   9.608   2.890  0.1002 -0.1012  0.1070
15624W        W31885  15.361   9.659   1.777  0.1258 -0.0552  0.0653
15625W        W31886   8.423   5.551   2.534  0.0414  0.0682  0.0215
15626W        W31887   9.629   9.661   5.336 -0.0375 -0.0470 -0.0981
15627W        W31888   7.772   8.867  12.494 -0.3290  0.3362 -0.1314
15628W        W31889   9.493  17.998   0.822 -0.4056 -0.1862  0.1059
15629W        W31890  16.622   2.867  11.464 -0.1861 -0.1933  0.1094
15630W        W31891   6.985   5.911   5.916  0.1513  0.2319  0.0653
15631W        W31892  15.059   5.285  15.443 -0.0584 -0.0125 -0.4024
15632W        W31893  12.181   3.165   4.275 -0.0449 -0.3761  0.0921
15633W        W31894  16.894  14.663   0.284 -0.3077  0.1827 -0.0705
15634W        W31895   9.682   8.369   5.320  0.2288  0.0136 -0.4412
15635W        W31896  16.329   5.743   0.089  0.1562  0.0643  0.0863
15636W        W31897   1.151   7.701   3.434  0.0187 -0.0198 -0.1361
15637W        W31898  12.566   4.597   4.210 -0.1118 -0.0830 -0.1898
15638W        W31899   2.497  13.688  11.749 -0.0081  0.1592  0.0282
15639W        W31900  17.769  18.198   4.244 -0.2414  0.2536 -0.1415
15640W        W31901  18.123   2.904  12.815  0.0666  0.1616  0.0477
15641W        W31902  14.023  15.911   3.031  0.3381 -0.1389 -0.1227
15642W        W31903   5.293   0.492  15.379  0.1177  0.0431 -0.3018
15643W        W31904  13.465   2.709   3.658 -0.2167  0.2878 -0.1771
15644W        W31905   3.851  15.455  13.665  0.1913  0.0335 -0.1788
15645W        W31906   8.155   8.152  13.285  0.0646  0.1507  0.3063
15646W        W31907  17.727  10.030   4.259  0.0056 -0.1190  0.2704
15647W        W31908  11.212   7.580   3.207 -0.2993 -0.0813  0.2802
15648W        W31909   5.097  16.925  13.682 -0.0962  0.0195  0.0973
15649W        W31910   1.277  18.797  11.362  0.2732 -0.0084  0.1489
15650W        W31911   1.278   5.227   3.741 -0.0395  0.0395  0.2105
15651W        W31912   6.178   4.614   0.077 -0.0794  0.0514 -0.1333
15652W        W31913  13.414   3.859   4.078 -0.0253 -0.1673 -0.1182
15653W        W31914   9.033  15.999   3.903  0.1945  0.2835  0.1416
15654W        W31915   5.508  14.355   2.200 -0.1298 -0.2001  0.1729
15655W        W31916   8.020  17.281   3.638  0.0862 -0.4000  0.2200
15656W        W31917   7.499   8.465   1.802  0.0223  0.1175 -0.1163
15657W        W31918   1.746  14.229   1.349 -0.1547  0.0143 -0.0132
15658W        W31919  18.701  11.584  12.849  0.0419  0.1636 -0.0756
15659W        W31920  11.613   5.055  12.703  0.2161 -0.1946 -0.0568
15660W        W31921  12.310  14.744  15.367 -0.0833  0.0973  0.2865
15661W        W31922  17.166  14.485   2.576  0.2974  0.1040 -0.1511
15662W        W31923  15.647   4.155  14.592  0.0814  0.0893 -0.2017
15663W        W31924  12.575   6.846  14.654  0.0716 -0.3321  0.6105
15664W        W31925   3.952  10.535  14.300  0.2684 -0.2907  0.0313
15665W        W31926  15.684   9.226   3.400 -0.1311  0.0183 -0.0282
15666W        W31927   3.076  18.696   0.379  0.0935  0.1679  0.1812
15667W        W31928  10.067  13.100   0.687  0.0762 -0.1214 -0.0636
15668W        W31929  14.777   8.848  13.014 -0.0806 -0.1789 -0.1403
15669W        W31930  15.775   8.372  13.419  0.1701 -0.2232  0.0416
15670W        W31931  11.693   1.180  12.816  0.0121 -0.2903  0.2714
15671W        W31932  14.059   8.617  14.060 -0.0258  0.1598  0.2200
15672W        W31933   6.626   6.562   2.566  0.2131 -0.2714 -0.1819
15673W        W31934  15.576   9.499   2.892  0.0932 -0.2518 -0.1284
15674W        W31935  11.300   9.801  13.572 -0.4023 -0.2068 -0.3344
15675W        W31936  15.663  12.088   2.899  0.1194  0.1008  0.0976
15676W        W31937  13.138  11.305  15.394  0.1316  0.2460  0.1770
15677W        W31938  12.199   8.037   4.902 -0.2809  0.1044  0.2113
15678W        W31939   6.409  11.247  10.926  0.0989  0.3975 -0.0958
15679W        W31940   3.595   4.406   4.012 -0.1599  0.0393  0.0080
15680W        W31941  15.344   2.794  11.270 -0.2339 -0.4451  0.0368
15681W        W31942   6.749   2.287  14.579 -0.0569 -0.1040 -0.0063
15682W        W31943  17.858   4.247   1.626 -0.3989 -0.0159  0.1109
15683W        W31944   8.667  16.047   3.582 -0.0059  0.1192  0.3169
15684W        W31945  10.043   6.654   2.165 -0.0952 -0.0806  0.1395
15685W        W31946  18.752   0.125  14.737  0.1564  0.0073 -0.0242
15686W        W31947  10.440   6.641   1.543 -0.0636 -0.0010  0.1228
15687W        W31948   1.197   5.522  12.606  0.1141  0.0379 -0.0393
15688W        W31949   8.155  17.189   6.255  0.1289  0.0104  0.3284
15689W        W31950   0.023  11.051   0.710 -0.1976  0.0005  0.0309
15690W        W31951   0.334  12.850  15.357 -0.3821 -0.2108  0.0504
15691W        W31952  11.410   7.869   5.797  0.0489 -0.1131 -0.2222
15692W        W31953  14.267  12.897  14.898  0.0304  0.2733 -0.2641
15693W        W31954   7.561   7.895  12.374 -0.3909  0.0978 -0.0766
15694W        W31955  13.544  15.236   3.468 -0.2270  0.2632 -0.1362
15695W        W31956   7.118   6.028   3.920 -0.0698  0.1884  0.0793
15696W        W31957  11.485  11.075  10.962 -0.1408 -0.0515 -0.1360
15697W        W31958  11.064  14.542   1.567 -0.2687  0.1490  0.0053
15698W        W31959   8.063   7.785   0.648 -0.3403  0.0306 -0.2896
15699W        W31960  14.411   5.528  13.178 -0.0392 -0.1107 -0.0398
15700W        W31961   9.284   3.636   0.507 -0.1901 -0.0892  0.1873
15701W        W31962   1.023  15.101   2.550 -0.0836  0.1581 -0.1804
15702W        W31963   2.300   8.833  11.909  0.1226 -0.2281  0.0321
15703W        W31964   5.789   0.644   3.561 -0.0418  0.2499 -0.0429
15704W        W31965  16.225   1.071  11.946  0.1632  0.0461 -0.0908
15705W        W31966  14.158  15.728   0.500  0.2201 -0.2134  0.0958
15706W        W31967  11.377   7.032   3.064  0.2217  0.2143  0.0165
15707W        W31968  13.755   8.557  11.953 -0.1717 -0.3879  0.4371
15708W        W31969   8.441   5.322  11.859  0.2029  0.4050  0.3875
15709W        W31970   6.592   6.034  15.058 -0.2208  0.0569  0.1394
15710W        W31971   2.513  13.753   0.416 -0.0412  0.1908  0.0282
15711W        W31972   0.695  18.089   0.132  0.0024 -0.4031 -0.1445
15712W        W31973  17.011  10.916  14.787  0.0482  0.3078 -0.4549
15713W        W31974  13.440  15.895   5.649  0.0005  0.3712  0.0748
15714W        W31975   0.898   5.177  10.609 -0.2210 -0.0052  0.3896
15715W        W31976   9.761   6.915  15.413 -0.1682 -0.1684 -0.1280
15716W        W31977   5.590  14.746  11.820  0.2675  0.0287  0.2187
15717W        W31978   6.911   2.773  13.371 -0.0493  0.1747 -0.0381
15718W        W31979   7.080  13.035  14.090  0.1300  0.1187 -0.1281
15719W        W31980   1.000   1.325   3.408  0.0473 -0.2714 -0.2644
15720W        W31981  15.412  13.345  13.413 -0.3565 -0.1693 -0.1538
15721W        W31982   3.512  11.086   3.422 -0.0577 -0.1229 -0.0366
15722W        W31983   1.505   1.282   5.487  0.0507 -0.2470  0.1157
15723W        W31984  12.235   6.733   5.100 -0.2929  0.1473 -0.2988
15724W        W31985  12.457   3.461  13.326 -0.0734 -0.2165  0.0933
15725W        W31986   6.022   7.849   3.988  0.2344 -0.2918 -0.0948
15726W        W31987   5.804   4.491   1.232  0.0238  0.1712 -0.0799
15727W        W31988   2.200  15.180   0.646 -0.1758 -0.1236 -0.1482
15728W        W31989  12.108  16.652   4.822 -0.1524  0.5074 -0.0820
15729W        W31990  13.550   1.511  13.565 -0.3153 -0.0831 -0.0900
15730W        W31991   9.866   4.260   4.755  0.0232 -0.1767  0.2721
15731W        W31992   6.489   6.368   4.753 -0.2232  0.0275  0.3637
15732W        W31993   9.439   4.267   0.203 -0.1340  0.3121  0.3055
15733W        W31994  11.367   6.654  14.621 -0.1095 -0.0814  0.0607
15734W        W31995   8.256  15.733  13.441  0.2810 -0.1301 -0.2866
15735W        W31996   1.086  16.072  12.499 -0.3037 -0.1223 -0.0238
15736W        W31997  14.021  18.523  13.641 -0.0238 -0.0613  0.2673
15737W        W31998   5.775   1.629  12.860 -0.0220 -0.0064  0.3101
15738W        W31999   9.879   7.990   0.382 -0.2033  0.2429  0.1513
15739W        W32000  15.993  13.041   2.323  0.0993  0.2632 -0.2205
15740W        W32001   1.326   4.767   4.696  0.1134 -0.0835  0.1569
15741W        W32002  12.277  11.314   2.982  0.2317 -0.0257 -0.2002
15742W        W32003   1.327   8.054   5.522  0.1624  0.0707  0.1084
15743W        W32004   0.065   9.324  11.065  0.0409 -0.0513 -0.0558
15744W        W32005  18.152  13.514  12.352 -0.2971 -0.0886  0.1159
15745W        W32006   8.724   7.516  12.263 -0.1814 -0.1321  0.1179
15746W        W32007   2.793  13.525  12.434 -0.3424 -0.0265  0.0258
15747W        W32008   4.568   8.880  14.051 -0.0211  0.3169  0.2409
15748W        W32009   7.289   4.827   5.088 -0.2712  0.0122  0.0912
15749W        W32010  10.264   2.730  12.976 -0.4566  0.2108 -0.1074
15750W        W32011  15.114   3.276   4.232  0.1803  0.1742  0.1269
15751W        W32012   6.288   4.814   5.653 -0.0964 -0.0667  0.1418
15752W        W32013  18.602   4.181   4.024  0.3943  0.0706 -0.0619
15753W        W32014  11.511   0.807   2.240  0.2151  0.6017 -0.0528
15754W        W32015  11.475  12.518   2.776  0.1237 -0.0787 -0.1412
15755W        W32016   1.927  16.740   2.335 -0.0516  0.1730  0.0052
15756W        W32017   9.874  15.247  12.101  0.3063 -0.5166 -0.2323
15757W        W32018  14.039  15.572  11.880 -0.1974  0.2603  0.3100
15758W        W32019  13.581  11.537   4.905  0.0189 -0.2989 -0.0240
15759W        W32020   4.849   9.188  15.341 -0.0641  0.1659 -0.1487
15760W        W32021   4.715   6.405   4.377 -0.2554 -0.1230  0.0073
15761W        W32022   3.644   0.207   2.407  0.1258 -0.2913  0.1400
15762W        W32023  10.647  15.559  10.967 -0.4610  0.0687 -0.1743
15763W        W32024   9.940  17.560   1.737 -0.0418 -0.0237  0.1646
15764W        W32025  10.505   5.743  12.082 -0.1523  0.1153 -0.2768
15765W        W32026  12.436   8.183  12.331  0.3308  0.1054  0.0237
15766W        W32027  13.129  11.077  13.451  0.0361  0.2008  0.0833
15767W        W32028  13.801   2.895  12.459  0.2103 -0.0145 -0.1426
15768W        W32029  14.035  14.702  13.150 -0.1236 -0.0962 -0.0378
15769W        W32030   3.265  16.127  12.613 -0.1777  0.0207 -0.0958
15770W        W32031   1.968   7.650   0.143 -0.0665 -0.1692  0.0019
15771W        W32032   8.545   2.751  14.134  0.0675 -0.3552  0.0044
15772W        W32033   6.572   0.535  13.166  0.2979  0.0962  0.2933
15773W        W32034   1.441  11.624   4.703  0.1636 -0.1838  0.0576
15774W        W32035  17.562   1.903  12.604  0.2687 -0.2588 -0.1432
15775W        W32036   1.789   5.029   1.668 -0.0861  0.4995  0.1740
15776W        W32037   4.938   9.102  12.568  0.0674 -0.0106 -0.3821
15777W        W32038  16.808   5.334   1.660 -0.1499  0.1474 -0.1350
15778W        W32039  11.430  17.729   4.057  0.0482 -0.1722 -0.5144
15779W        W32040   1.679   2.357   0.239  0.1074 -0.0959  0.2953
15780W        W32041  14.546  17.358  12.199  0.1386  0.2963  0.2149
15781W        W32042  17.811  18.766  14.779  0.1147 -0.1521  0.1994
15782W        W32043  17.294   6.002   1.381 -0.1388 -0.2533 -0.1097
15783W        W32044  11.540   2.958   3.208 -0.2354  0.1982 -0.0819
15784W        W32045  18.438  10.376   1.643 -0.2181  0.2192 -0.1485
15785W        W32046  12.129  18.728   2.382 -0.0001  0.0767  0.1934
15786W        W32047   3.620   0.034  11.792 -0.2257 -0.4437  0.0787
15787W        W32048   8.789  13.811   4.696  0.3629 -0.0833  0.0164
15788W        W32049   3.400   8.198  14.627  0.0663  0.0251 -0.1962
15789W        W32050   0.834  13.132  12.890  0.2401 -0.0451 -0.3908
15790W        W32051   6.496   2.985   3.639 -0.3038 -0.0865  0.0664
15791W        W32052   5.140   8.814  13.956  0.3048 -0.0138 -0.2730
15792W        W32053   1.035   7.822  14.519 -0.0030 -0.1368 -0.0218
15793W        W32054   0.129   2.646  13.358  0.0981  0.2073  0.0189
15794W        W32055  13.781   1.217  15.556 -0.0041  0.2586 -0.0972
15795W        W32056   8.283   6.238  12.983  0.2517  0.0853 -0.0021
15796W        W32057   3.235  12.437   1.808 -0.2988 -0.1396  0.0795
15797W        W32058  15.890   2.228  10.193  0.2941  0.2474  0.1190
15798W        W32059   0.239   7.390   0.619 -0.0677 -0.0474  0.0051
15799W        W32060   3.933   6.267  10.700 -0.2314 -0.2252 -0.0139
15800W        W32061   8.592  16.640  13.735 -0.3375  0.3291  0.1536
15801W        W32062   5.939  17.454   5.260 -0.1453 -0.1751 -0.2748
15802W        W32063   5.022   9.196   5.375 -0.0524  0.2109 -0.1859
15803W        W32064   1.160   7.833   1.203  0.1048  0.2371 -0.0040
15804W        W32065  17.583  18.483  11.010  0.0389  0.0230  0.2484
15805W        W32066   6.007  14.076   3.392 -0.2375  0.0237 -0.4308
15806W        W32067  12.761   6.773  11.106  0.1847 -0.0556  0.0889
15807W        W32068   1.792   4.364  13.185  0.1435 -0.1681 -0.1989
15808W        W32069  12.601   7.266  10.934 -0.0234  0.1763 -0.1024
15809W        W32070  10.267   4.883  13.280  0.0171 -0.0159 -0.4264
15810W        W32071  13.817   4.985  15.499  0.0195  0.0786  0.0837
15811W        W32072  16.306  15.325   0.322  0.1375 -0.0043  0.0458
15812W        W32073  10.260  10.147   1.122  0.1766  0.0073 -0.0047
15813W        W32074  11.872  10.336  12.597  0.1139 -0.3533  0.0896
15814W        W32075   7.884  10.502  10.937 -0.0067  0.5645 -0.2396
15815W        W32076  10.932  11.369  10.559 -0.0969  0.1385  0.0594
15816W        W32077   9.152  10.789  12.146 -0.0996  0.2446  0.0543
15817W        W32078  17.430   5.155   4.856  0.0631 -0.3198 -0.3586
15818W        W32079  15.019   5.389   0.314 -0.1071  0.1160  0.2210
15819W        W32080   6.148  13.144  13.939 -0.2757  0.1229 -0.1422
15820W        W32081  13.706   5.905   0.391 -0.2645  0.0486  0.0149
15821W        W32082   4.753  16.111   1.116  0.3003 -0.1836 -0.2777
15822W        W32083  18.453  16.838  12.327 -0.1297 -0.2402 -0.0332
15823W        W32084  12.128  12.731   2.797 -0.3263  0.0740  0.1287
15824W        W32085  17.267   0.179  12.606 -0.2990 -0.1471  0.0986
15825W        W32086   0.487  14.108  14.784 -0.2942 -0.0831  0.2257
15826W        W32087   8.993   8.317  15.117 -0.1980  0.3226  0.0003
15827W        W32088  15.208   9.114  11.883  0.2897  0.0576  0.0430
15828W        W32089  10.097   3.450   1.638 -0.1306 -0.0508  0.1045
15829W        W32090   4.517   9.013   0.019 -0.0618 -0.2623 -0.2003
15830W        W32091   8.083   0.923  13.320 -0.0183 -0.0861  0.0300
15831W        W32092  16.558  17.587   5.586 -0.1766 -0.1034 -0.1105
15832W        W32093   6.340  16.911  11.782  0.0789 -0.1382 -0.1413
15833W        W32094   2.530  12.617  15.163  0.3624  0.0504  0.2248
15834W        W32095   0.427   9.196  13.858  0.0819 -0.2393  0.0080
15835W        W32096  10.331   7.362   4.495 -0.0904 -0.1273  0.2169
15836W        W32097  11.184  14.138   1.329  0.2148  0.0040  0.0015
15837W        W32098   9.403   3.449   5.414 -0.0918 -0.2753  0.0526
15838W        W32099  12.844   0.746  15.416  0.0200  0.0915 -0.1406
15839W        W32100   7.744   1.601   4.080 -0.2095 -0.2034 -0.1328
15840W        W32101  15.829   6.283  15.072 -0.0061 -0.4966  0.0098
15841W        W32102   3.769  17.803  10.002  0.0196  0.0292 -0.0522
15842W        W32103  11.100   3.413  12.579 -0.3274  0.1157 -0.0794
15843W        W32104   0.241   8.135  14.421  0.1351  0.0830 -0.3267
15844W        W32105   0.274   4.954  14.961 -0.2313  0.2810 -0.1333
15845W        W32106  11.364   5.247   3.537 -0.0120 -0.3426  0.2700
15846W        W32107  12.403  14.788   0.954  0.1023  0.1488 -0.0181
15847W        W32108  17.170  12.572  12.322  0.4700 -0.0401  0.1848
15848W        W32109   6.477  15.872   2.465  0.0562  0.0685  0.2768
15849W        W32110   5.108  10.651  10.203 -0.0923  0.0533 -0.0914
15850W        W32111   8.591  13.815  13.973 -0.1719 -0.1274  0.2453
15851W        W32112   1.701  12.503   1.541 -0.0036  0.1760 -0.0682
15852W        W32113   5.858   1.448   0.285 -0.0317 -0.1988 -0.2151
15853W        W32114  18.560  13.770   1.960  0.1981  0.0790  0.1774
15854W        W32115  10.867   4.713   1.429  0.2177 -0.1947  0.1152
15855W        W32116   4.061  11.571  13.770  0.1035 -0.0697 -0.0272
15856W        W32117  14.186   5.153  14.995 -0.0307  0.0242  0.5721
15857W        W32118  16.308   2.044   4.150  0.1622  0.2818  0.2057
15858W        W32119  18.420  11.827   3.620  0.2096  0.1956 -0.1620
15859W        W32120   1.168   0.790   3.385 -0.0502  0.0211 -0.3663
15860W        W32121   4.856   6.701  14.166  0.1085  0.3330  0.0739
15861W        W32122  11.361  10.887  11.501 -0.2607 -0.0558  0.0572
15862W        W32123  15.189   5.076   0.629  0.4104  0.2986  0.0634
15863W        W32124   5.381  12.428   2.961 -0.2153  0.1688  0.2625
15864W        W32125   6.091   1.274  10.812  0.4568 -0.0303 -0.1340
15865W        W32126   8.203   9.332   0.761  0.0142  0.0778  0.0352
15866W        W32127   2.812  17.830   1.804  0.1985 -0.1730  0.2183
15867W        W32128   2.808  10.543  11.057  0.1102  0.0691 -0.0803
15868W        W32129   4.763   8.694  12.783 -0.1955 -0.1818 -0.1308
15869W        W32130  16.273   1.957  14.297  0.0841  0.1215 -0.0604
15870W        W32131   8.942   5.232  11.739  0.0067  0.2894  0.0398
15871W        W32132   7.456   3.303   1.038  0.0559 -0.0309  0.0333
15872W        W32133  12.104   4.293   1.591  0.1667  0.1810 -0.0745
15873W        W32134  10.381  17.480   0.452  0.0053  0.1756  0.1828
15874W        W32135  12.598   4.975  12.734 -0.1901  0.1744  0.2855
15875W        W32136   4.502   4.467   0.730  0.2605 -0.1469 -0.2004
15876W        W32137   2.843   4.602  11.733 -0.3654  0.2410 -0.2189
15877W        W32138  16.017   0.014   1.199  0.2158 -0.2407 -0.0494
15878W        W32139   7.740   3.442   2.868  0.3865  0.1325  0.1776
15879W        W32140   8.586   9.642  14.595  0.4651  0.3125  0.2798
15880W        W32141  14.252   9.620  14.112  0.3485  0.0616 -0.0377
15881W        W32142   5.794   5.660  14.322  0.1804 -0.4702  0.1330
15882W        W32143   9.335   8.656   0.825 -0.2581 -0.1739  0.1712
15883W        W32144  18.164   2.908  13.383 -0.1907  0.1879  0.0041
15884W        W32145   3.360  18.258  11.174  0.2841  0.0637 -0.4305
15885W        W32146  12.279   2.407   0.239  0.2669  0.1867 -0.0573
15886W        W32147  14.479  13.060  13.510  0.1056 -0.1022  0.2066
15887W        W32148  12.416  13.131   1.580 -0.1408  0.1000 -0.4560
15888W        W32149  10.232   5.369   0.606 -0.1135 -0.1427 -0.0087
15889W        W32150   6.364  16.883   2.062 -0.2191 -0.0388 -0.0431
15890W        W32151   2.007  14.297   3.067 -0.1268  0.0210  0.3216
15891W        W32152  15.516  15.295   5.229 -0.1381 -0.2024 -0.2053
15892W        W32153   9.811  10.788   0.034 -0.0394  0.1008  0.1323
15893W        W32154  16.360  11.401  11.775  0.3844  0.2320  0.0266
15894W        W32155   3.459   0.442  12.703 -0.1777  0.2380 -0.0531
15895W        W32156  13.964   1.518  14.442  0.0671 -0.1806 -0.0225
15896W        W32157   1.388   6.197  12.493 -0.2633  0.0389 -0.0295
15897W        W32158   1.560  15.910   0.983 -0.2942  0.2070 -0.0008
15898W        W32159  16.139  11.010  14.713  0.0550  0.0929  0.1006
15899W        W32160  16.782  18.393   1.323 -0.0175  0.0082  0.4865
15900W        W32161   2.606   9.236  12.103 -0.1134 -0.4284  0.0294
15901W        W32162  15.105  13.664   0.873  0.1148  0.1749  0.3988
15902W        W32163  18.076   5.516   9.546  0.0732  0.0300  0.0839
15903W        W32164   9.781  17.019   3.544 -0.0083  0.0997  0.2922
15904W        W32165   5.992   7.159  13.548 -0.0352  0.2451  0.0663
15905W        W32166   0.139  16.315   4.244 -0.4005  0.1148  0.1851
15906W        W32167  18.612   2.853  11.333 -0.2348 -0.0000 -0.3061
15907W        W32168   0.122   7.514   4.037  0.0168 -0.0205  0.1996
15908W        W32169  16.655   7.402  14.840  0.1429  0.0518 -0.3008
15909W        W32170  11.124  10.591   0.119  0.3071  0.1158 -0.0202
15910W        W32171  15.433  14.298  11.252  0.3456 -0.0228 -0.0269
15911W        W32172   8.052   9.536  12.504 -0.0455 -0.3025 -0.1024
15912W        W32173  17.014   8.800  11.267 -0.2213  0.1736 -0.1345
15913W        W32174  18.146   7.855  11.377  0.0625 -0.0835  0.0527
15914W        W32175   4.155  16.233  13.213  0.0799 -0.0655 -0.1388
15915W        W32176   9.112   6.958  14.206  0.1023  0.1171 -0.2613
15916W        W32177   5.319  12.154  12.661  0.0803  0.0672 -0.0341
15917W        W32178   3.601  18.425  11.627  0.3078 -0.0938  0.4628
15918W        W32179   3.331  15.672   4.579  0.0320  0.0878  0.0084
15919W        W32180  18.441   4.552   2.188 -0.1052  0.3616 -0.0633
15920W        W32181   3.259  14.052  13.339  0.0623 -0.1245 -0.0901
15921W        W32182  13.597   9.873   2.309  0.1006  0.0474  0.0274
15922W        W32183   8.449  17.887  11.306  0.0980 -0.2310  0.0655
15923W        W32184   1.449   7.860  13.549  0.1348 -0.0024  0.2314
15924W        W32185   0.933  17.249  15.286 -0.0650  0.1033 -0.2887
15925W        W32186   0.478  13.969   4.253  0.2870 -0.0077  0.3995
15926W        W32187  13.442   4.722   2.486 -0.0237 -0.3825  0.3009
15927W        W32188   0.087   9.501   4.865  0.0280 -0.2337  0.0289
15928W        W32189   1.238   7.810  11.136  0.1657 -0.2036  0.1777
15929W        W32190   0.526  12.429   2.578 -0.2683  0.0258  0.3558
15930W        W32191  17.827  17.653  11.542 -0.1065 -0.1240  0.3414
15931W        W32192   2.489  11.403  13.388 -0.1255 -0.2866  0.1119
15932W        W32193   6.789  12.018   2.619 -0.0977  0.3421 -0.4776
15933W        W32194  12.921   3.330   2.236  0.0244  0.1903 -0.0101
15934W        W32195   8.742  12.372   3.599 -0.2651 -0.0330  0.0356
15935W        W32196  10.525   5.215  11.167  0.0871 -0.1984  0.0132
15936W        W32197  18.688   9.763  12.398  0.1041  0.0516 -0.0975
15937W        W32198  17.623   5.654  12.594 -0.0031  0.3141  0.1471
15938W        W32199   8.216  15.300   2.914  0.0223 -0.0397  0.1407
15939W        W32200   4.426  15.812  10.685 -0.2218 -0.1909  0.1130
15940W        W32201  16.386   3.638   3.176 -0.2726 -0.2867 -0.0354
15941W        W32202   0.084  15.022   1.436 -0.3446  0.0722 -0.1240
15942W        W32203   7.776   9.617  13.778  0.0411  0.0856 -0.0427
15943W        W32204  14.298   1.381   0.724 -0.3178  0.1453 -0.2867
15944W        W32205   2.413   8.533   4.597  0.1439 -0.2835  0.3517
15945W        W32206   4.007   6.019   4.489 -0.1936  0.2331  0.0782
15946W        W32207   3.411   4.639   2.066 -0.3947  0.0297  0.2402
15947W        W32208   2.245   4.616   5.265  0.0640 -0.0581 -0.1027
15948W        W32209  10.018   7.910   1.518 -0.1200  0.2513  0.0597
15949W        W32210   1.621  11.836   5.350  0.0255  0.2036  0.0487
15950W        W32211   7.573  10.878   4.432 -0.2227  0.0610  0.0403
15951W        W32212   0.562  10.266  12.332  0.2049 -0.2859  0.0359
15952W        W32213  17.464   7.283   4.445 -0.0955 -0.0122 -0.2133
15953W        W32214  13.784  15.599   3.706 -0.2061 -0.2569  0.3640
15954W        W32215  18.216  13.508  11.068  0.1582 -0.0682 -0.1262
15955W        W32216  13.329  10.125   4.588 -0.2296 -0.0660  0.0219
15956W        W32217   3.939   2.193   0.807  0.1910  0.2245 -0.2195
15957W        W32218  15.165  14.651  15.554 -0.4496 -0.0869 -0.3326
15958W        W32219   2.043  10.025   0.638 -0.2221  0.1041  0.1891
15959W        W32220   7.857   1.465   5.841  0.0668  0.2466  0.0436
15960W        W32221  10.616  10.451   5.134  0.0515 -0.0631  0.0109
15961W        W32222  14.100   1.906   0.651 -0.2943 -0.2161  0.2251
15962W        W32223  17.236   0.548  15.603  0.1732  0.0503  0.3122
15963W        W32224  10.636   7.838  14.000  0.1087  0.4202 -0.0710
15964W        W32225   4.878   1.910  11.536  0.0875  0.1159 -0.1471
15965W        W32226   6.816   0.018  12.685  0.0332 -0.0635  0.0395
15966W        W32227   5.127  17.467   1.395 -0.1044  0.0562  0.1453
15967W        W32228   2.760   4.444   2.914 -0.0058 -0.3247 -0.0650
15968W        W32229  14.426   9.825  14.547 -0.2889  0.0912 -0.1089
15969W        W32230   1.219  18.135   0.289  0.1939 -0.0720  0.1102
15970W        W32231  16.241   2.963   5.149  0.1304  0.3731  0.0114
15971W        W32232  13.211   9.127   3.474 -0.1505  0.1143  0.0737
15972W        W32233   0.282   7.770  13.253  0.2321 -0.1824  0.1557
15973W        W32234  16.836  13.351   2.764  0.0172  0.1515  0.1026
15974W        W32235   6.437  14.599  11.294 -0.2218 -0.0148 -0.0561
15975W        W32236  11.834  14.873  11.026 -0.2655  0.3308  0.3127
15976W        W32237  13.661  18.535  13.959  0.3129  0.3172 -0.0064
15977W        W32238   8.217   5.778  11.491 -0.2173  0.0057 -0.2230
15978W        W32239   8.762  11.261  10.895  0.0349  0.1206 -0.0284
15979W        W32240   7.892  17.875   2.454  0.0483 -0.1221 -0.1100
15980W        W32241  17.472   8.917  11.272 -0.1033  0.0526 -0.1435
15981W        W32242   7.761   5.579  14.571 -0.0707 -0.0233 -0.3677
15982W        W32243   1.387  14.187   3.699 -0.0507  0.5727  0.0774
15983W        W32244  15.905   6.028  13.331  0.0258  0.0520 -0.1656
15984W        W32245  14.744  18.122   0.471 -0.5569  0.2719  0.0982
15985W        W32246   1.767  11.568  13.797  0.0698  0.0909 -0.1079
15986W        W32247  18.277  11.851   4.973  0.1832 -0.0051 -0.1687
15987W        W32248   7.208   2.078   0.601 -0.0924  0.0803  0.0533
15988W        W32249   3.880   8.199   2.747  0.2021 -0.0263  0.0838
15989W        W32250   0.428  16.952  14.864 -0.2977 -0.2035 -0.1520
15990W        W32251   7.290   5.136   1.798 -0.1970 -0.0030 -0.2968
15991W        W32252  11.839   7.259   3.926 -0.1337  0.3108 -0.0806
15992W        W32253  12.179   0.522   4.302 -0.2811 -0.0321 -0.1550
15993W        W32254   0.042  12.458  11.384 -0.1252  0.0879 -0.2700
15994W        W32255  15.737  11.489  15.354  0.0103  0.0438  0.2413
15995W        W32256   2.892   7.712   3.986 -0.4414  0.1364  0.3222
15996W        W32257   9.161   7.247  14.966 -0.2490 -0.1595 -0.2400
15997W        W32258  15.761  16.367   0.886 -0.0360  0.0509 -0.1899
15998W        W32259  13.212   6.572  14.307  0.0253  0.0148  0.0881
15999W        W32260  12.194  15.513   3.738  0.0496  0.2014  0.0069
16000W        W32261  11.338   5.255   2.918  0.4024  0.2588  0.1744
16001W        W32262   3.376  11.261  11.656  0.0418 -0.0808  0.0669
16002W        W32263  16.620   5.740   2.897  0.2167 -0.3232  0.0649
16003W        W32264   3.773   9.831   0.521  0.1490  0.0658 -0.0862
16004W        W32265  18.735  12.263   2.138 -0.0911 -0.1317 -0.1200
16005W        W32266  12.920  11.380   3.047 -0.1094  0.2060  0.2856
16006W        W32267   3.310   3.072   5.434  0.1481 -0.2413  0.0324
16007W        W32268  10.887   7.950   4.634  0.0839 -0.3964  0.3465
16008W        W32269  18.733  10.722   1.438  0.4321  0.0561  0.1116
16009W        W32270   5.001   1.280   3.394  0.0705 -0.0293  0.0509
16010W        W32271   7.862   7.432  12.212 -0.1804 -0.1801 -0.0407
16011W        W32272   2.545   4.960  12.742 -0.0021 -0.1120 -0.0755
16012W        W32273   8.877   6.383   1.466  0.1951  0.0877 -0.2715
16013W        W32274   6.947   2.990   3.340 -0.0564 -0.0040 -0.1688
16014W        W32275  12.580   5.544   3.282 -0.2216 -0.1689 -0.1941
16015W        W32276   6.050  18.608   1.143 -0.1645 -0.1876 -0.0847
16016W        W32277  16.749   2.778  12.861  0.1243 -0.1314  0.1666
16017W        W32278   3.939   2.844  15.401 -0.0774 -0.2248  0.0028
16018W        W32279  15.935   3.234  13.092  0.1551 -0.0770 -0.3371
16019W        W32280   8.956   4.243   4.412 -0.0168  0.0488 -0.1630
16020W        W32281   6.821   7.959  11.709  0.1977  0.0626 -0.0754
16021W        W32282   9.715   2.093   1.417 -0.2418 -0.1482  0.0802
16022W        W32283   4.195   3.826  14.233  0.0744 -0.1418 -0.0009
16023W        W32284   9.664   9.954  13.369  0.3064 -0.0791  0.1224
16024W        W32285  14.959  18.401  10.285  0.3369 -0.0216  0.2443
16025W        W32286   9.225   7.429  12.141  0.2211 -0.1017  0.3604
16026W        W32287   7.485   5.838  13.228 -0.0734 -0.0056 -0.0236
16027W        W32288   2.962   1.999   3.431  0.2111 -0.1878 -0.0861
16028W        W32289  11.781  17.853  14.331 -0.2183  0.0690 -0.1341
16029W        W32290  12.847  10.317  12.926 -0.2164 -0.2084 -0.0447
16030W        W32291   7.755   0.490   0.174  0.3883 -0.1058  0.1394
16031W        W32292  15.437  10.635   3.673 -0.2349 -0.0910 -0.1814
16032W        W32293  18.581   5.935   0.192  0.0432  0.0919  0.1696
16033W        W32294  18.137   1.557   5.168  0.2270 -0.1991  0.0850
16034W        W32295   3.742  17.936   4.318  0.0568  0.0658 -0.0786
16035W        W32296   6.106   4.897  13.997 -0.2151  0.2116 -0.2831
16036W        W32297  16.973  14.369   1.651  0.0649  0.3272  0.4178
16037W        W32298  18.042   8.386   0.294  0.4047  0.0781  0.0886
16038W        W32299  11.702   2.507  15.512 -0.4824  0.2674  0.0659
16039W        W32300  18.709   8.997  10.222  0.1648 -0.1450  0.3577
16040W        W32301  10.500  15.682  13.356 -0.2670  0.1617  0.0854
16041W        W32302   0.891   9.837  10.913  0.3318 -0.2977 -0.2477
16042W        W32303  16.820   8.961   1.908  0.1280 -0.0662 -0.0453
16043W        W32304   7.080   4.620  13.830 -0.1100  0.1428 -0.0729
16044W        W32305  13.059  12.281   2.700  0.0583 -0.0663 -0.0035
16045W        W32306  15.297  17.886   0.555  0.0656 -0.0361  0.2078
16046W        W32307   9.419   6.413   2.889 -0.1578 -0.2288 -0.0126
16047W        W32308   7.269   3.502   6.939 -0.0187 -0.0967  0.3764
16048W        W32309   7.598   2.223  13.427 -0.2808 -0.2318 -0.0678
16049W        W32310   6.824   6.298   2.131 -0.0953 -0.1141  0.0052
16050W        W32311   4.835   7.325   4.913  0.0278 -0.2172 -0.3757
16051W        W32312  17.780  16.447   1.941 -0.0181  0.0059 -0.0484
16052W        W32313   0.332  11.212   2.140  0.1540 -0.3843 -0.1906
16053W        W32314   9.034  12.147  10.890  0.0584  0.0962 -0.1344
16054W        W32315   4.280   3.899  12.770  0.1965  0.0052  0.3935
16055W        W32316  10.861  15.551   1.281 -0.2714 -0.0269 -0.3011
16056W        W32317   9.463   2.436  12.782 -0.1939 -0.2534  0.1584
16057W        W32318  14.523   5.251   2.960 -0.2181  0.6409 -0.2423
16058W        W32319  10.729   6.634   1.950 -0.0909 -0.0629 -0.0624
16059W        W32320   7.467  12.808  15.109 -0.3151 -0.0262  0.1061
16060W        W32321  11.545  14.996   4.815 -0.2452  0.1510  0.3340
16061W        W32322   9.007   0.690  13.336  0.0678  0.0657  0.2311
16062W        W32323   2.209   9.851   4.856 -0.2138  0.0283 -0.2067
16063W        W32324  12.316  16.885  11.258 -0.0801  0.0287 -0.0377
16064W        W32325   1.329  10.610  15.144  0.0815  0.0286 -0.2993
16065W        W32326   4.689  13.444   4.307  0.0517 -0.1655  0.4952
16066W        W32327   1.883   9.121   5.003  0.0821 -0.2574 -0.4914
16067W        W32328  15.087  13.753   4.692 -0.2289 -0.0637  0.1350
16068W        W32329  18.830  16.308   4.872  0.0376 -0.0115 -0.1156
16069W        W32330   2.448   7.318  12.711  0.0876 -0.0408  0.0500
16070W        W32331  17.356   6.109   0.886  0.0327  0.0168  0.0528
16071W        W32332   4.289   1.579   3.836  0.0702  0.0794 -0.5258
16072W        W32333  10.153  13.350   4.432 -0.1861 -0.0881 -0.0239
16073W        W32334  18.457  14.760  10.502  0.0443 -0.1273  0.0012
16074W        W32335   6.570  11.794  14.034 -0.0264  0.4373 -0.1660
16075W        W32336   6.422   7.096  11.556 -0.2809  0.1050 -0.0634
16076W        W32337  17.724   5.956   0.586  0.0953 -0.3552  0.2690
16077W        W32338  18.358   3.345  12.492 -0.0839  0.1719  0.2668
16078W        W32339  11.027  15.903   0.926  0.3944  0.1073  0.0049
16079W        W32340   0.471   7.770   0.862  0.0800 -0.0474 -0.1308
16080W        W32341   1.559   9.782  13.834 -0.1116 -0.2083 -0.2539
16081W        W32342  15.408  12.267   2.544  0.0435 -0.3398  0.2068
16082W        W32343  10.413  15.163   3.422 -0.1248 -0.2814  0.1122
16083W        W32344   4.648  10.012   2.973 -0.1107  0.2881  0.0947
16084W        W32345   1.949  11.039   5.427 -0.2976  0.0830 -0.4960
16085W        W32346   7.880  12.256   4.577  0.1907 -0.1058 -0.0145
16086W        W32347  12.886  13.712   2.284 -0.0594  0.4471 -0.0961
16087W        W32348   2.157  11.055  14.540  0.1624  0.0567  0.0187
16088W        W32349   5.046   7.397  14.589 -0.2429 -0.0767 -0.0211
16089W        W32350   1.360   0.881   1.033  0.2333  0.0387 -0.3662
16090W        W32351  14.223   9.135   4.677  0.3422 -0.1660 -0.2443
16091W        W32352  12.038  12.485   1.937  0.0811 -0.0511  0.1923
16092W        W32353  14.900  13.104  12.663 -0.2111 -0.0011 -0.2670
16093W        W32354   0.630  16.359  12.497 -0.1836 -0.1640  0.2067
16094W        W32355  13.520   0.566  13.161 -0.0790 -0.5158  0.0706
16095W        W32356  15.163   4.338   1.915  0.0223 -0.0960  0.3380
16096W        W32357  11.129   5.637   2.556  0.0945  0.3063 -0.2742
16097W        W32358   2.957   8.581   0.256  0.0211  0.0751  0.1956
16098W        W32359   8.876  10.988   1.718  0.1331 -0.0060  0.1809
16099W        W32360  12.961   2.182  15.314  0.3618 -0.1899  0.0111
16100W        W32361  16.474  13.382   0.121 -0.0745 -0.3114  0.0036
16101W        W32362   9.073   9.669  14.089 -0.2260 -0.2754 -0.1796
16102W        W32363   5.140   9.638  13.414  0.0616 -0.1427 -0.0052
16103W        W32364   2.751   7.286   0.651 -0.2075  0.1339  0.0412
16104W        W32365  13.972   0.982   4.191 -0.3604  0.0879  0.2213
16105W        W32366   4.185   9.125   1.737 -0.0281 -0.1728 -0.0352
16106W        W32367  15.481   6.298   2.279  0.1627  0.0249  0.0021
16107W        W32368   1.257  12.219  11.967  0.0658  0.0218 -0.3784
16108W        W32369  13.275   2.104   0.116 -0.0129 -0.1331 -0.0706
16109W        W32370  13.951  18.473   3.749 -0.0741 -0.1017 -0.2677
16110W        W32371   3.746   3.379  11.589 -0.0046 -0.0931 -0.1441
16111W        W32372   9.835   6.275  12.000 -0.0657 -0.0638 -0.0555
16112W        W32373  11.422  10.960   5.909  0.0542 -0.3319  0.1966
16113W        W32374  16.155   1.197  15.541 -0.2309 -0.1383  0.0881
16114W        W32375  16.821  12.805  13.464  0.1604 -0.0947 -0.2825
16115W        W32376  14.950   9.178  14.220  0.0081 -0.0236 -0.0563
16116W        W32377  15.188  14.404  14.178  0.2057  0.0774  0.1892
16117W        W32378   5.848  17.424  10.894  0.1241  0.0666 -0.2776
16118W        W32379  13.920  13.521  13.881  0.2872  0.1300 -0.2780
16119W        W32380   1.390   9.084   1.113 -0.2102  0.1601 -0.1400
16120W        W32381  10.513   7.138   5.473  0.1204  0.0435 -0.0512
16121W        W32382  10.520  11.469  11.557  0.0624  0.2265 -0.0081
16122W        W32383   7.209  15.096  14.272  0.0749  0.2356 -0.2363
16123W        W32384   2.491   8.100   5.814  0.2167  0.1978  0.3674
16124W        W32385   2.560  18.812  13.263 -0.4213 -0.2139  0.1818
16125W        W32386   2.630   5.056  11.652 -0.0128 -0.1264  0.1350
16126W        W32387   5.682   2.423   3.556 -0.2809 -0.1205 -0.1183
16127W        W32388   2.943  18.187   0.835  0.0647 -0.2084  0.2715
16128W        W32389   3.254  18.357  12.588 -0.1866  0.0946  0.0438
16129W        W32390   7.444  13.230   1.941 -0.2176  0.2857 -0.0012
16130W        W32391   7.864  17.036   2.373 -0.0324  0.0369  0.1222
16131W        W32392  17.212  17.477  11.985  0.0765 -0.1426  0.0590
16132W        W32393  16.555  13.643   1.307  0.0391 -0.0965 -0.0688
16133W        W32394   8.363   6.507  11.364  0.5473  0.1536 -0.0376
16134W        W32395  18.096   2.368  15.202 -0.0059 -0.2936  0.1104
16135W        W32396   8.596  13.819   9.502 -0.0826  0.3078  0.1031
16136W        W32397   5.991  16.993  14.130  0.0034  0.1699 -0.0536
16137W        W32398  18.430   3.730  14.810  0.1700  0.0685 -0.1696
16138W        W32399   7.650   4.023   0.274 -0.0733  0.0131  0.2184
16139W        W32400  10.209   9.085  15.312 -0.2381  0.0640  0.2212
16140W        W32401   8.318  12.154  13.847 -0.0941  0.0584 -0.0156
16141W        W32402  10.643  18.575  13.648 -0.0210 -0.0205 -0.0741
16142W        W32403  12.380  15.692   0.935 -0.1435 -0.0953 -0.4067
16143W        W32404  15.566  14.331  12.227 -0.2123 -0.1544 -0.1260
16144W        W32405   9.243   9.020   2.076  0.0312 -0.1462  0.3326
16145W        W32406   9.297  10.105   4.525 -0.0667 -0.0935  0.3734
16146W        W32407   2.899  10.361   0.653  0.0345  0.3458  0.2104
16147W        W32408   1.638   5.925  14.905  0.3014 -0.0661 -0.1392
16148W        W32409  17.863  10.826   2.056  0.1404 -0.1594  0.0523
16149W        W32410  16.231  12.118   0.550 -0.1095  0.3603 -0.0294
16150W        W32411  16.579  15.533   2.107  0.0200 -0.1249  0.1165
16151W        W32412   6.203  13.338  10.778  0.2444  0.0993  0.0574
16152W        W32413   2.445   7.835  10.872 -0.2194 -0.3001  0.1982
16153W        W32414   5.287   6.365  14.035  0.1341  0.0498  0.0103
16154W        W32415  10.072   4.010   1.778 -0.1230 -0.1685 -0.0761
16155W        W32416   1.133  18.745   1.599  0.2229  0.0547  0.2174
16156W        W32417   9.893  15.181   4.070 -0.2097 -0.2184  0.2929
16157W        W32418   2.450  14.991   2.704 -0.1205  0.4733  0.2336
16158W        W32419   6.933  14.475   2.916 -0.0471 -0.1237 -0.1974
16159W        W32420   4.860   4.157   5.222 -0.0713  0.0046  0.1517
16160W        W32421   1.529   0.789   1.942  0.1500 -0.2830  0.0362
16161W        W32422   7.162   5.433  12.108 -0.3209  0.0272  0.1111
16162W        W32423   3.540   8.868  12.522  0.2368  0.3483  0.3362
16163W        W32424   8.344   1.519   5.707 -0.2826 -0.0217 -0.0061
16164W        W32425   0.626  13.183   4.250 -0.2293  0.0270 -0.1188
16165W        W32426   4.321  11.147  12.114  0.0210  0.0555 -0.2449
16166W        W32427   1.051  12.548  13.269  0.0682 -0.1883 -0.0342
16167W        W32428  18.415   1.336   1.183  0.0397 -0.0275 -0.1443
16168W        W32429   6.201  13.456  12.989  0.0411  0.1053 -0.0873
16169W        W32430  18.811  10.876   5.414 -0.1054  0.2017 -0.1835
16170W        W32431  14.558   9.218   2.082 -0.4301  0.1099  0.3489
16171W        W32432   8.500  18.676  13.080  0.1646 -0.2634 -0.1018
16172W        W32433   8.165   1.603   4.334  0.2629 -0.0217 -0.2665
16173W        W32434   3.989   4.979  12.054  0.0509 -0.5513 -0.0961
16174W        W32435  17.865  10.329  14.901 -0.1168 -0.1505 -0.1737
16175W        W32436  11.640  10.756   0.300 -0.0722  0.2053  0.1809
16176W        W32437  15.625   0.613  14.864  0.2221 -0.1881 -0.1609
16177W        W32438  11.593  13.329   1.465  0.1952  0.3103 -0.1217
16178W        W32439   8.760   0.626   2.420  0.1817 -0.2042  0.2623
16179W        W32440   2.883  12.248  12.131  0.1239 -0.2058  0.0006
16180W        W32441   1.916  17.298  14.928 -0.2467 -0.0379  0.1750
16181W        W32442  14.062  16.463   3.789  0.0070 -0.2459 -0.0343
16182W        W32443   3.040   9.516   0.085 -0.1968 -0.2427 -0.2572
16183W        W32444  18.355   1.255  10.804  0.1180 -0.2218  0.3172
16184W        W32445   0.416  13.318  14.685  0.1864  0.0936 -0.2170
16185W        W32446  14.978  10.455   9.620  0.1265 -0.1570 -0.0000
16186W        W32447   3.264  11.511  13.146  0.4089 -0.2524 -0.0153
16187W        W32448  15.661   6.279   3.895 -0.0267 -0.0739 -0.2650
16188W        W32449  10.472   5.614  12.691  0.0755  0.0772  0.1527
16189W        W32450   7.163  11.891  11.163 -0.0123  0.1959 -0.3461
16190W        W32451   7.019   2.364   5.158 -0.1009  0.3000 -0.3140
16191W        W32452  10.649  15.062  11.086 -0.1879  0.4551 -0.1097
16192W        W32453  17.622   9.868  10.930 -0.0128 -0.1245 -0.2880
16193W        W32454  16.479  10.433  13.440  0.3688  0.1686  0.4000
16194W        W32455   3.563   6.971   3.120 -0.1881 -0.2422  0.1073
16195W        W32456   4.817   8.628   2.809 -0.0920  0.2242  0.2080
16196W        W32457   2.713  10.969  11.968  0.1204  0.3179  0.2735
16197W        W32458   4.537  14.720   0.586 -0.0080 -0.3237 -0.1433
16198W        W32459  16.199   4.595   1.605  0.0316 -0.1297 -0.0613
16199W        W32460   3.309   1.653   1.398 -0.0310  0.1579 -0.0773
16200W        W32461  17.910  18.240   9.597 -0.0547 -0.1397  0.1685
16201W        W32462   8.915   6.480  14.270 -0.1718 -0.0350 -0.0467
16202W        W32463   7.083  13.486  10.493 -0.0764 -0.1286 -0.1268
16203W        W32464   1.291   0.412  15.622  0.0665  0.0127  0.5050
16204W        W32465   9.066  10.094   3.920 -0.0775  0.0738 -0.1345
16205W        W32466   1.377  17.198   5.014  0.0326  0.0171  0.0916
16206W        W32467  17.230  18.806  10.335 -0.2327  0.0023  0.1719
16207W        W32468  12.985   2.245  11.686 -0.0183  0.3915 -0.1117
16208W        W32469   8.463  11.372  13.959 -0.0846 -0.1420 -0.1761
16209W        W32470  15.229  14.490   2.927  0.3400 -0.0430  0.0205
16210W        W32471   3.013   4.309   5.671 -0.0921 -0.2286 -0.2772
16211W        W32472  13.283   3.903   0.286 -0.0273 -0.1400 -0.2175
16212W        W32473   5.667   3.335   4.027 -0.0707 -0.0198  0.0162
16213W        W32474  18.036   3.130  10.642 -0.0183  0.1818  0.1528
16214W        W32475  10.703   0.880  11.284 -0.2180  0.0510 -0.3144
16215W        W32476   0.520  12.623   2.069 -0.1500  0.1140  0.0112
16216W        W32477   5.912  10.186   3.989  0.1954  0.3119 -0.0340
16217W        W32478   4.458  10.650   5.107 -0.2353  0.0199 -0.1224
16218W        W32479  14.915  15.143  10.941 -0.2185  0.0350  0.3762
16219W        W32480   2.889  11.679   4.460 -0.0695  0.0309  0.1659
16220W        W32481  15.319  17.259   3.379 -0.0328 -0.0447 -0.0282
16221W        W32482  16.225   2.666  12.449  0.0864 -0.0612  0.2684
16222W        W32483   4.206  17.173  13.345  0.0210  0.0481 -0.1885
16223W        W32484   6.038  11.034  13.817  0.0488  0.3503  0.1917
16224W        W32485  12.687  13.543  10.351 -0.1346  0.1590  0.1287
16225W        W32486  10.581   4.348   2.048  0.2682  0.1679 -0.2021
16226W        W32487   6.287  13.000   4.381  0.2985  0.0932  0.0250
16227W        W32488   9.612   5.839  12.285  0.2933  0.1562  0.1077
16228W        W32489  16.569  18.207   4.269  0.1003  0.1387  0.0562
16229W        W32490  17.879  12.451   1.975 -0.0799  0.5348 -0.0440
16230W        W32491  12.254   9.820   4.677  0.1419 -0.0247  0.1564
16231W        W32492   6.366  17.048  14.446 -0.1132  0.0648  0.0025
16232W        W32493  13.266   9.394   2.400 -0.3387 -0.3605  0.0416
16233W        W32494  15.303   3.244   4.755 -0.1377  0.2437  0.0851
16234W        W32495  14.900  12.252   2.423  0.0890  0.2408  0.0939
16235W        W32496  16.248  17.412   9.442  0.0863  0.0099 -0.0915
16236W        W32497  15.767  10.726   2.662 -0.1069 -0.1960 -0.1277
16237W        W32498  13.776   9.835   4.563  0.2610 -0.0543 -0.1717
16238W        W32499  16.518  12.078  14.871  0.3920 -0.0336 -0.1387
16239W        W32500   2.824   2.469  12.018 -0.2066  0.1252  0.1080
16240W        W32501   8.481   2.011  12.022  0.1006 -0.1978  0.0902
16241W        W32502  14.239   2.337  11.557  0.1469 -0.2033  0.0218
16242W        W32503  14.596   4.035  13.669 -0.2583  0.0604 -0.0192
16243W        W32504  13.155   4.836   0.577  0.2843  0.0712  0.0104
16244W        W32505   3.947   1.042   3.472  0.0389 -0.2723 -0.2250
16245W        W32506   3.895  17.019   1.143  0.1184  0.0611 -0.0427
16246W        W32507  15.348  12.383   3.149 -0.0307 -0.0854  0.0119
16247W        W32508  17.759   8.287  14.161 -0.0895  0.0382 -0.3122
16248W        W32509   9.760   3.326  13.458  0.0952 -0.3022 -0.0303
16249W        W32510   7.552   9.329   4.930  0.0712  0.0733 -0.0501
16250W        W32511  17.396  11.791   2.145  0.0656 -0.1846 -0.0372
16251W        W32512   5.009   2.957   4.414  0.1630  0.0486  0.1015
16252W        W32513  12.349   9.091  13.008 -0.2198  0.3788 -0.1520
16253W        W32514   1.846  17.164   2.020  0.1076  0.2745 -0.0216
16254W        W32515  10.507   6.367   0.664  0.1835  0.0262 -0.0721
16255W        W32516  15.692  13.039   3.717  0.1857  0.1827 -0.0448
16256W        W32517   4.123  11.695  11.617 -0.2891 -0.4765 -0.1482
16257W        W32518   7.406  14.340   4.064 -0.0665  0.1093 -0.1626
16258W        W32519  16.139  11.493   4.231  0.2434  0.0669  0.1043
16259W        W32520   9.476   2.165  11.981 -0.1048  0.0959  0.2620
16260W        W32521   7.463  18.372   1.368  0.0039  0.0621 -0.0305
16261W        W32522   6.445  18.426  15.590 -0.3029 -0.2378  0.1736
16262W        W32523   1.254  18.223  14.297 -0.1597  0.0192  0.0372
16263W        W32524   5.652   4.998   3.012 -0.1129 -0.0538  0.2854
16264W        W32525  13.128   8.193  11.279 -0.1184 -0.0949 -0.2813
16265W        W32526  12.280   6.006   4.359 -0.2720  0.0154 -0.4436
16266W        W32527  11.207   7.551  12.038 -0.1460 -0.1849  0.3234
16267W        W32528   5.710   8.477   2.757 -0.1328  0.0439  0.0142
16268W        W32529  12.412   4.191  11.742 -0.1944 -0.1540 -0.1225
16269W        W32530   0.991   1.631  14.564 -0.1481  0.0316 -0.0570
16270W        W32531   6.661   5.170   5.567  0.1722 -0.1229 -0.0737
16271W        W32532   7.615  17.055  15.239  0.0558  0.0445  0.1392
16272W        W32533   4.163   7.680   2.703 -0.1053 -0.0697  0.3495
16273W        W32534   2.979   5.393   4.764 -0.1022  0.0989  0.3990
16274W        W32535  18.758   2.720   4.722  0.0269  0.1024  0.1629
16275W        W32536   3.730  18.534  14.042 -0.2378  0.1725  0.1121
16276W        W32537   2.283  11.047   4.097 -0.0853 -0.0740 -0.1732
16277W        W32538   5.269  13.814   1.935 -0.0603 -0.1906 -0.1689
16278W        W32539   3.221   4.263  12.999  0.1644 -0.0419  0.1355
16279W        W32540   0.657   3.497  13.619  0.3084 -0.3266  0.0348
16280W        W32541   6.621   6.852   4.841 -0.0218 -0.0247  0.1033
16281W        W32542  10.768   4.481  15.028 -0.0647 -0.0537 -0.0167
16282W        W32543  13.587  15.171  10.509 -0.2054  0.0059  0.0462
16283W        W32544   3.519   3.518  13.435  0.0892 -0.3429 -0.3348
16284W        W32545   3.701  13.577   2.673 -0.0932  0.3030  0.0402
16285W        W32546   9.325   5.602   0.281 -0.2132  0.1737  0.2040
16286W        W32547  16.577   3.945   1.076  0.0297 -0.0265 -0.2648
16287W        W32548  16.779  18.567  14.680 -0.0730 -0.0235 -0.3533
16288W        W32549   7.547  17.301   1.349  0.2711  0.0180 -0.1160
16289W        W32550   7.562   9.420  15.142  0.1060  0.0469 -0.0854
16290W        W32551   6.296   4.461   4.119  0.0275  0.2681  0.1123
16291W        W32552   0.383  10.469   4.809 -0.1944 -0.0630  0.4883
16292W        W32553   7.030  14.779   2.527 -0.0002 -0.2805  0.1428
16293W        W32554   2.321  14.215  12.426 -0.0727  0.0436 -0.1467
16294W        W32555  10.107   7.982   0.817 -0.2236  0.1082  0.1361
16295W        W32556   7.420  16.662   4.287 -0.1959 -0.1011  0.1164
16296W        W32557   3.282  15.605   5.136 -0.3114 -0.0373  0.0335
16297W        W32558   5.974  13.588   2.254  0.0190  0.1061 -0.0672
16298W        W32559  12.141  14.410   0.051  0.3476  0.1060 -0.0120
16299W        W32560  14.513   1.280  11.250  0.0239  0.0462 -0.2501
16300W        W32561   0.740   8.380  12.868 -0.4469 -0.2477  0.3094
16301W        W32562   5.773   7.459  13.220  0.1836  0.1221 -0.2959
16302W        W32563  15.299  16.624   3.960 -0.1269  0.1498  0.1211
16303W        W32564  17.950  15.201  15.422 -0.0061 -0.2843  0.2764
16304W        W32565   3.534  10.530  11.084 -0.2328 -0.0981 -0.0863
16305W        W32566  16.702  11.884  11.132  0.0807  0.1770  0.2972
16306W        W32567  15.753  11.836   1.828  0.1864 -0.0620 -0.4391
16307W        W32568   5.102   8.512   3.266  0.4928  0.2113 -0.2348
16308W        W32569  18.106   4.012   3.788 -0.0850  0.2931  0.1355
16309W        W32570   5.156  12.944  15.396 -0.1428 -0.2869  0.0082
16310W        W32571  13.845  10.157  13.404 -0.0235  0.1675  0.0083
16311W        W32572   7.690   9.919   5.317  0.0447  0.2583 -0.0672
16312W        W32573  12.357   4.485   1.985  0.0174 -0.1355  0.3632
16313W        W32574   8.596   9.179   1.478  0.1909  0.6706 -0.2540
16314W        W32575   2.235  17.694   2.476  0.3709  0.2420 -0.0204
16315W        W32576   8.985  13.033   4.875 -0.1946 -0.2044 -0.2219
16316W        W32577  14.594   6.699  11.462  0.0538  0.1423 -0.1067
16317W        W32578  15.801   9.716  15.507  0.0678 -0.5398  0.1049
16318W        W32579   1.513  16.327  12.950 -0.0313  0.2989 -0.3648
16319W        W32580   6.318   4.825  14.458 -0.0128  0.1752 -0.1531
16320W        W32581   7.754   1.582  12.580 -0.0541 -0.1345  0.1824
16321W        W32582   8.323  10.583   0.013  0.0539  0.0764  0.3061
16322W        W32583   0.496  11.774   1.766  0.0316  0.1869  0.1090
16323W        W32584  12.119  16.173  10.319 -0.1208  0.1565  0.0227
16324W        W32585  16.602   0.432  14.939  0.0017  0.3430 -0.1801
16325W        W32586  17.678   2.051   0.333 -0.1624 -0.0657  0.0326
16326W        W32587  12.371  13.878   1.384 -0.1605 -0.3435 -0.2923
16327W        W32588   4.884  17.742   1.076 -0.2515  0.0050  0.0393
16328W        W32589  16.863  18.672   2.174 -0.1163  0.5608  0.1966
16329W        W32590  14.473   8.872  12.407  0.1818 -0.1184  0.0809
16330W        W32591   1.279  15.422  11.784  0.5074  0.1218  0.1042
16331W        W32592  14.469  13.239   4.508 -0.0189 -0.0822 -0.2329
16332W        W32593   3.991   2.500  13.832  0.1757 -0.0392 -0.0330
16333W        W32594   6.991   8.158  13.393 -0.0350 -0.0457 -0.0275
16334W        W32595   5.820   8.744   3.507 -0.0472  0.0445  0.0536
16335W        W32596   2.889  16.042   2.378 -0.2042  0.0251 -0.2859
16336W        W32597   4.198  14.430  13.621  0.2306  0.2517 -0.1804
16337W        W32598   7.209  16.488   2.896  0.2163  0.1431  0.1825
16338W        W32599   0.803  16.202  14.202  0.0083  0.0707 -0.1652
16339W        W32600   7.757   0.352  14.455 -0.2440 -0.2152  0.1393
16340W        W32601   2.644   4.847  15.549  0.1905 -0.0228 -0.0280
16341W        W32602   8.007  14.801   4.643 -0.0767  0.1930  0.3730
16342W        W32603  11.581   6.975  13.143  0.1325 -0.1684 -0.2027
16343W        W32604  10.797   5.013  14.971 -0.2603  0.1152 -0.3722
16344W        W32605   2.712  11.661  14.987  0.1838  0.2788  0.1329
16345W        W32606   5.272   4.068   0.747 -0.1486  0.0711  0.1507
16346W        W32607  17.413   2.983   0.785  0.1289  0.1373  0.0802
16347W        W32608  13.026   2.907   5.038 -0.0571 -0.1861  0.0210
16348W        W32609   5.829   7.735  14.702  0.0224  0.3486  0.1495
16349W        W32610  17.901   3.091  13.893  0.0579  0.1789  0.0947
16350W        W32611  16.255  13.183   1.932  0.2317 -0.0545 -0.1557
16351W        W32612   4.816   7.448  13.507 -0.0319 -0.0030  0.1540
16352W        W32613   0.281  18.377  14.730 -0.0750 -0.0660 -0.0188
16353W        W32614   7.436   6.886  13.217 -0.2264  0.2722 -0.0352
16354W        W32615  16.199   6.410  13.291 -0.2578  0.0270  0.0434
16355W        W32616   8.186  17.199   5.340 -0.0604 -0.1767 -0.5130
16356W        W32617   7.128  13.012   1.061  0.0266 -0.0563 -0.0837
16357W        W32618   5.159   1.640   5.410  0.2404  0.2309 -0.1052
16358W        W32619  11.725  16.123  11.779  0.2295  0.1533  0.2831
16359W        W32620  13.568   8.418   5.827 -0.0904  0.4728  0.1175
16360W        W32621   3.711   0.137  13.771  0.0249 -0.2033  0.1401
16361W        W32622  12.509  15.551  12.073 -0.0111  0.0437  0.3456
16362W        W32623  11.893   8.881   5.489  0.0142  0.0213  0.2521
16363W        W32624  17.584   1.909   4.042 -0.3037  0.0948  0.4346
16364W        W32625  15.690   7.272  12.797 -0.2762  0.0072  0.2985
16365W        W32626  16.252   3.740  12.227  0.1124 -0.0035 -0.1057
16366W        W32627  10.845   2.371   5.000 -0.3641 -0.0925 -0.0198
16367W        W32628   3.953   3.496   1.407 -0.0909 -0.0901  0.1214
16368W        W32629   9.082  10.941  14.158  0.0381 -0.0741 -0.0856
16369W        W32630   7.359   5.878  14.576 -0.0507 -0.3576 -0.1608
16370W        W32631  15.579  18.683  15.042 -0.1007  0.1431 -0.1455
16371W        W32632   5.087  16.029  14.120  0.0808  0.1259  0.1499
16372W        W32633   8.124   0.207   5.413  0.0252  0.1968 -0.0822
16373W        W32634   3.223  16.949  11.714 -0.1417 -0.2160 -0.0777
16374W        W32635  17.698   7.676   3.975  0.0367 -0.3078 -0.1772
16375W        W32636   2.971  13.962  14.461 -0.1296  0.4663  0.1647
16376W        W32637   4.952   8.756   3.706 -0.1451 -0.0068 -0.0473
16377W        W32638   5.907   7.849   0.327 -0.2768  0.3910 -0.0748
16378W        W32639   9.159   4.492   2.062  0.3880 -0.0656  0.0645
16379W        W32640   4.345   4.007  11.754 -0.1451  0.0642 -0.3881
16380W        W32641   3.466   6.880   3.877 -0.0574  0.0896  0.2237
16381W        W32642  10.072  16.188   1.527  0.0910  0.0574 -0.3583
16382W        W32643  18.064  13.105  14.468  0.0941  0.3355 -0.1387
16383W        W32644   1.205  14.474   2.156 -0.0790 -0.1067 -0.3775
16384W        W32645   3.561   5.273  15.633 -0.0191 -0.0625 -0.0327
16385W        W32646   3.669  10.892  11.405 -0.0993  0.2246 -0.2971
16386W        W32647  12.153   7.751   3.131 -0.0040 -0.2597 -0.2458
16387W        W32648  15.235   0.785   4.870  0.1910 -0.1015  0.1518
16388W        W32649  11.735  13.606  15.451  0.0840 -0.0934  0.0184
16389W        W32650  18.108   7.079   0.166  0.0012 -0.3857  0.0027
16390W        W32651   4.677   5.455  14.111  0.0764 -0.0330 -0.0701
16391W        W32652  13.168  15.721   0.531  0.1130 -0.1177 -0.1475
16392W        W32653   7.102   9.081   4.606  0.2198  0.1503  0.2902
16393W        W32654   7.547  15.620  14.120  0.2946  0.2815 -0.0598
16394W        W32655   5.164   4.391  15.460 -0.1567 -0.2533  0.0564
16395W        W32656  13.140  14.768  12.981  0.0376  0.2046  0.4630
16396W        W32657   0.875  13.147  13.390  0.2815  0.0656 -0.0686
16397W        W32658   7.976  12.711  15.220 -0.4601  0.4497 -0.1842
16398W        W32659   6.519   4.886  13.081 -0.1389  0.1618 -0.0457
16399W        W32660   6.523   4.006  12.741  0.0782 -0.0471  0.1531
16400W        W32661   2.827  17.261  11.707 -0.1754  0.1025 -0.0312
16401W        W32662  11.481  12.142   5.512 -0.3458  0.0111  0.3031
16402W        W32663   3.705  12.814   2.451 -0.0173  0.0296 -0.2592
16403W        W32664   2.784   9.017  14.089  0.0277  0.1516  0.2521
16404W        W32665  10.205  15.668   3.328 -0.0796  0.1606 -0.0779
16405W        W32666   1.016   1.338  15.448  0.0948 -0.0859 -0.0683
16406W        W32667   5.387  17.480   0.415  0.2247 -0.2066  0.1332
16407W        W32668   0.273  11.974  11.800  0.1281 -0.1458  0.1600
16408W        W32669  13.993  17.349   5.073  0.1360  0.4645 -0.2059
16409W        W32670   8.149   1.249  12.849  0.1125  0.0339  0.1075
16410W        W32671  15.004  13.792  10.923  0.1370 -0.2896 -0.0683
16411W        W32672   2.600  10.379   2.641  0.0444  0.1101  0.0663
16412W        W32673  17.389   0.684   1.513 -0.2080  0.0086 -0.0147
16413W        W32674  10.795   0.707   2.321  0.2078 -0.1038  0.1105
16414W        W32675  14.563  12.183  12.972 -0.1243  0.3400 -0.1709
16415W        W32676  12.638  10.464   1.348  0.3896  0.0894 -0.0784
16416W        W32677  14.085  17.115   9.441  0.2017 -0.0489  0.0757
16417W        W32678   7.819  13.704   2.054 -0.3606  0.1537  0.1402
16418W        W32679  11.448   9.386  13.935  0.2748 -0.0620  0.2127
16419W        W32680   4.920  18.561   2.882 -0.2394  0.1205  0.0463
16420W        W32681   0.432  17.900  11.248 -0.3172  0.0116 -0.0569
16421W        W32682   9.753   6.392  14.435 -0.1580  0.1517  0.0395
16422W        W32683  16.573   0.933   0.656  0.0332  0.3329  0.3032
16423W        W32684  10.025   8.739   4.983  0.4131 -0.1137  0.3007
16424W        W32685   4.318   8.527   2.008 -0.0353 -0.0604  0.0601
16425W        W32686   6.888  17.859  14.784 -0.2985 -0.1622  0.2593
16426W        W32687   2.848  17.726   1.276  0.1240 -0.1919 -0.1138
16427W        W32688   1.379  17.819  11.527  0.0507  0.0410  0.1412
16428W        W32689   7.389  12.914  14.480 -0.1388  0.1731  0.2448
16429W        W32690   4.059  10.197  11.906 -0.2006  0.0397  0.0083
16430W        W32691   2.181  15.901  13.353 -0.0143 -0.1277  0.0378
16431W        W32692   3.523   4.458   0.560 -0.2894  0.1181 -0.1232
16432W        W32693   7.713  14.354   2.569  0.2311  0.0422  0.2277
16433W        W32694  10.170  18.821  12.904 -0.0527  0.0155  0.2558
16434W        W32695   3.039   8.369   2.779  0.0117  0.0274 -0.5401
16435W        W32696   2.649  11.614   1.294  0.0662 -0.2503 -0.0008
16436W        W32697   3.408   1.613  14.026  0.3587 -0.2866  0.0328
16437W        W32698  12.070   2.055  15.512 -0.2699  0.0258  0.1750
16438W        W32699  14.421  11.706   4.144 -0.0880  0.0416 -0.1974
16439W        W32700  16.382   0.370  15.558  0.2071  0.1957  0.1329
16440W        W32701   8.191   5.400  15.578 -0.0497 -0.0936  0.3542
16441W        W32702   7.044  12.261   0.083 -0.1267 -0.1778  0.3314
16442W        W32703   9.590   8.328  15.348  0.0785 -0.2759  0.1032
16443W        W32704  12.609  11.435  15.266  0.0439 -0.0984 -0.1392
16444W        W32705   2.408  11.891  14.657  0.2271 -0.3060 -0.0502
16445W        W32706   5.430   8.995  12.738  0.1083 -0.2151  0.3661
16446W        W32707   3.507  12.392   3.530 -0.0604  0.1501  0.2025
16447W        W32708  10.905  12.359  13.353  0.1950 -0.0295  0.0181
16448W        W32709   6.817  12.611  11.576 -0.0829  0.1551 -0.1479
16449W        W32710  14.049   6.011   1.860  0.1408  0.0036  0.1859
16450W        W32711  16.255  10.514  13.985  0.2252 -0.1486  0.0217
16451W        W32712   1.185  16.235   2.526  0.1976  0.0521 -0.1738
16452W        W32713   8.755  18.479   2.811  0.3633 -0.1707 -0.1583
16453W        W32714   4.163   2.693   4.368  0.1321  0.1339 -0.1666
16454W        W32715  15.530   6.626   4.269 -0.1362  0.1895 -0.0721
16455W        W32716   4.381  16.196  12.720 -0.1075  0.2164 -0.2472
16456W        W32717   2.521  12.893  13.680  0.3382 -0.0539 -0.1784
16457W        W32718  16.706   2.814  10.553 -0.0501  0.3197 -0.1642
16458W        W32719  10.314  12.528  13.637 -0.1393  0.1952  0.0312
16459W        W32720  14.863  12.050   1.184 -0.0632  0.1753  0.3330
16460W        W32721   6.457   7.580  11.774  0.1578 -0.0611 -0.0690
16461W        W32722  14.692  16.329   0.592  0.0441 -0.3385  0.1046
16462W        W32723  10.102   1.169  13.748 -0.2724  0.3207  0.2772
16463W        W32724   9.542   0.288  15.470 -0.1720 -0.1752  0.1199
16464W        W32725   1.989   9.228   0.353  0.2203 -0.2866 -0.3471
16465W        W32726   2.872  11.424  11.772  0.1754  0.1683 -0.0237
16466W        W32727  14.352  16.205  14.907  0.2678  0.1023 -0.0781
16467W        W32728  13.626  13.201   1.858  0.2150 -0.0301  0.1311
16468W        W32729  14.549  12.840  10.735 -0.2339  0.0574  0.3206
16469W        W32730   3.549   1.523  15.125 -0.1724 -0.2424  0.2236
16470W        W32731   9.075  16.337   3.446 -0.2448 -0.2349 -0.0714
16471W        W32732   7.871  13.478  14.611  0.1610 -0.2565  0.1810
16472W        W32733  13.494  18.539  14.950  0.0542  0.3731 -0.1912
16473W        W32734  17.720  15.558  12.350 -0.1298  0.0653 -0.1652
16474W        W32735   8.884   7.081   2.900  0.1675 -0.0581  0.1390
16475W        W32736  16.430   7.012   1.350 -0.0882  0.0835  0.0858
16476W        W32737   8.197   4.074  13.577  0.1004  0.1145 -0.1884
16477W        W32738   5.571  11.225  13.793  0.1365  0.1158  0.1612
16478W        W32739  14.250   1.158   4.636 -0.1183 -0.1276  0.2107
16479W        W32740   8.056   5.454  12.591  0.4868  0.1894  0.0590
16480W        W32741  13.983  13.812   4.903  0.2313  0.2773  0.1309
16481W        W32742  13.374  10.985   1.244  0.0048  0.0489 -0.0296
16482W        W32743   3.675  11.568  10.695  0.0513 -0.2196 -0.0575
16483W        W32744   4.421  16.372  15.642  0.0087  0.0012  0.0260
16484W        W32745   2.929   5.054  13.190  0.1969 -0.0620 -0.2592
16485W        W32746  11.955  18.210  13.115  0.0806  0.2275 -0.1815
16486W        W32747   4.709  18.595   4.081  0.0611  0.0630 -0.0264
16487W        W32748  10.520   9.958   3.865 -0.1344 -0.2931 -0.3346
16488W        W32749   6.345   9.864  10.837  0.2020  0.1625 -0.0925
16489W        W32750   1.793  18.402   0.920 -0.0246 -0.1401 -0.2867
16490W        W32751  11.541  10.087   2.956 -0.1306  0.0331  0.2623
16491W        W32752   8.109  10.808  14.029 -0.1372 -0.1762  0.3892
16492W        W32753  14.131  16.912   9.989  0.0060 -0.2296 -0.3000
16493W        W32754   8.284  11.367  11.881  0.0884  0.2307 -0.0794
16494W        W32755  18.019  10.632   0.868  0.0966 -0.1449  0.2496
16495W        W32756   9.129  17.010   0.151 -0.0009  0.1318  0.0434
16496W        W32757  16.182  12.491   1.458 -0.1077 -0.0909  0.4143
16497W        W32758   1.641  10.806  12.943 -0.0233 -0.0443 -0.0195
16498W        W32759   2.674   5.164   2.020  0.0579 -0.1715 -0.0435
16499W        W32760   3.988  15.068   3.560  0.0252  0.1741 -0.0727
16500W        W32761   4.122  11.111  10.780  0.1057  0.0034  0.3178
16501W        W32762  15.952   5.220  10.535 -0.3065  0.1771 -0.1456
16502W        W32763  13.458   9.184  15.474 -0.3572  0.0652 -0.0032
16503W        W32764  12.338  11.669   1.219  0.2580  0.0098 -0.0174
16504W        W32765  11.914  10.095  15.397 -0.2982 -0.0386 -0.0988
16505W        W32766  16.564   4.421   1.996  0.1173  0.0206 -0.2059
16506W        W32767   0.960  18.105   2.728  0.0240  0.1735 -0.1703
16507W        W32768  11.092   4.950   0.252 -0.0551  0.2138 -0.0199
16508W        W32769  15.839  16.971  15.434  0.2404 -0.0563  0.0645
16509W        W32770  15.738   3.110  11.246 -0.1725  0.0352 -0.1458
16510W        W32771  15.911   8.924   0.798 -0.1288 -0.0700  0.0865
16511W        W32772  14.490   2.197   2.300  0.1697  0.1120 -0.1958
16512W        W32773   2.747   0.761  13.939  0.1086 -0.1542 -0.2020
16513W        W32774  17.047   1.477  15.390 -0.1049  0.0015 -0.0614
16514W        W32775   7.381   8.320  12.651  0.1363 -0.0507 -0.0675
16515W        W32776  18.501   5.021   4.893 -0.0464  0.1649 -0.1113
16516W        W32777  10.049   3.332   3.778  0.1284  0.0167 -0.2073
16517W        W32778   2.438   1.575   3.422  0.0172 -0.2559  0.1633
16518W        W32779  13.966   3.829   1.417 -0.1388 -0.2517 -0.0724
16519W        W32780   5.843  11.324   3.251  0.0508 -0.0499 -0.2410
16520W        W32781  13.196  11.265   5.253  0.2817 -0.0171  0.1074
16521W        W32782   0.729  11.009   1.298 -0.1397  0.0793  0.2174
16522W        W32783  15.311   9.208  11.362 -0.1495 -0.2130  0.1571
16523W        W32784   4.369   5.791   3.282 -0.0524 -0.1887 -0.4548
16524W        W32785   1.925   1.839   5.170 -0.3358  0.0995  0.0860
16525W        W32786   3.469   6.628   2.646 -0.2767 -0.2451  0.0523
16526W        W32787  17.282   0.948   4.801  0.1078  0.1673 -0.0007
16527W        W32788   8.359   2.570   0.976  0.1216  0.4432  0.2456
16528W        W32789   1.338  10.683   4.832 -0.2530 -0.0546 -0.2069
16529W        W32790  10.922   8.000   1.970  0.0521 -0.2836 -0.0045
16530W        W32791   7.200   3.554   3.164 -0.1127 -0.0951  0.1839
16531W        W32792  10.815  10.953   3.431 -0.3874  0.1520  0.2973
16532W        W32793   2.437   7.847   4.038 -0.1742 -0.1098  0.1280
16533W        W32794  10.382   8.078   2.601 -0.3196 -0.0092  0.0597
16534W        W32795   4.926  14.050   3.032 -0.0518  0.1960  0.1308
16535W        W32796   6.419  17.358   3.491  0.3393  0.2121 -0.1912
16536W        W32797   1.352   8.322   4.326 -0.0549 -0.1123  0.0515
16537W        W32798   7.895  18.243  11.951 -0.1792  0.2549 -0.0992
16538W        W32799   1.906  15.775  12.883  0.1606 -0.3885 -0.0507
16539W        W32800   0.670   9.232  14.299 -0.1476  0.2741 -0.4090
16540W        W32801  10.904   2.236  13.905  0.1416 -0.1152 -0.0654
16541W        W32802  13.810  10.282   3.105  0.5077 -0.2323 -0.0704
16542W        W32803   6.875  10.207  14.421  0.0707  0.0192 -0.1657
16543W        W32804  18.562   8.544   0.571  0.0118  0.1168  0.1345
16544W        W32805  13.519   3.703  12.176  0.0720 -0.1222  0.0209
16545W        W32806   6.833   4.614  14.592 -0.2168  0.0689  0.1910
16546W        W32807  15.486   0.165   1.935  0.2494 -0.0654  0.1450
16547W        W32808  11.754   1.073   3.150 -0.1540  0.0655 -0.0231
16548W        W32809  10.024   9.174   1.267  0.0179  0.2522 -0.0310
16549W        W32810  13.645  16.311  14.845 -0.1339 -0.2820  0.0531
16550W        W32811   6.603   9.126  10.138 -0.3527  0.0234 -0.2182
16551W        W32812   4.534   0.270   1.182  0.2622  0.0099  0.2494
16552W        W32813  18.335   0.115  13.604 -0.3434 -0.1836  0.5550
16553W        W32814  17.984   8.765   1.197 -0.2041 -0.0744  0.1578
16554W        W32815  17.513   4.290   0.653 -0.1583 -0.1507  0.1277
16555W        W32816   8.048   5.170   2.075  0.3489  0.0034  0.1564
16556W        W32817   6.704   0.721   3.915 -0.0591  0.3427 -0.0905
16557W        W32818  11.719   1.070  11.447  0.0742  0.0864 -0.3043
16558W        W32819  13.410  15.337  13.494 -0.1358 -0.2633  0.0696
16559W        W32820  18.691   1.045   3.784  0.0457  0.2003 -0.1020
16560W        W32821  10.529  11.108  13.577 -0.0540 -0.0694  0.3114
16561W        W32822   1.652   6.133   1.973  0.1072  0.1101 -0.0312
16562W        W32823   6.945   7.553   2.345 -0.2834  0.1452  0.0294
16563W        W32824   6.715   1.979   5.313 -0.1421  0.0833  0.0885
16564W        W32825  10.549   3.802   0.750 -0.1973  0.1086 -0.1653
16565W        W32826  16.588  16.391  11.957  0.2538 -0.3946  0.0233
16566W        W32827  13.677  13.610   3.191 -0.5001 -0.0133  0.0230
16567W        W32828   9.591   8.560   2.865 -0.1444  0.1861  0.3061
16568W        W32829  12.396  16.188   0.697  0.3852  0.2256  0.0205
16569W        W32830  17.324  17.504   2.844  0.1267  0.0818  0.1211
16570W        W32831  10.722  15.545   0.225 -0.1603 -0.0087 -0.0766
16571W        W32832  17.038   9.887  15.098 -0.1269  0.0426  0.0779
16572W        W32833  18.593   6.238   4.497 -0.0662 -0.1271  0.1473
16573W        W32834  15.972  16.995  13.054  0.2128 -0.0249 -0.2465
16574W        W32835  12.806   2.026   1.523 -0.1255 -0.2638  0.0256
16575W        W32836  14.313   4.842   2.763  0.0158 -0.1392  0.0654
16576W        W32837  16.544  11.473   1.380  0.0861  0.0105  0.4288
16577W        W32838  16.687  11.348  12.831  0.0646  0.2658 -0.0741
16578W        W32839  10.126  15.793  12.266 -0.1896 -0.2080  0.2792
16579W        W32840  11.720  14.517   0.947  0.3812  0.0995 -0.0028
16580W        W32841   1.534   1.834   1.973  0.1272  0.0266 -0.0039
16581W        W32842   2.368  11.944   1.607 -0.1127  0.0200  0.2538
16582W        W32843   4.388   6.728  13.200  0.3040  0.0457  0.0697
16583W        W32844   5.441  13.240   3.011 -0.0050 -0.3548 -0.1780
16584W        W32845  17.638  11.683  14.986 -0.0980 -0.1439 -0.1107
16585W        W32846   9.713  18.447   5.735 -0.2187 -0.4428 -0.1571
16586W        W32847   1.800  11.953  13.138 -0.3218 -0.0722  0.1879
16587W        W32848   2.709  17.756  10.972  0.0580 -0.1266  0.1175
16588W        W32849  12.903   8.230  12.211  0.3787 -0.3066  0.0539
16589W        W32850   6.596   1.095   4.760 -0.1350 -0.3261  0.0599
16590W        W32851  10.439   5.848  14.436  0.3496  0.1582  0.1454
16591W        W32852  12.011   8.805  15.329 -0.1004 -0.0086  0.3668
16592W        W32853  14.796   2.033   3.125 -0.2011 -0.1492 -0.0089
16593W        W32854  13.962  17.724  12.108  0.1128  0.0543  0.1026
16594W        W32855  13.865  16.646   0.621 -0.0928  0.2071 -0.1263
16595W        W32856   6.123   7.624   2.585 -0.0232 -0.0984 -0.0199
16596W        W32857  14.589   9.560  15.254  0.1210  0.1994  0.0115
16597W        W32858   5.751   7.287   2.781 -0.2524  0.2391  0.2484
16598W        W32859   1.303  10.015   4.033 -0.0352 -0.1461 -0.3286
16599W        W32860   9.872  15.756   4.087  0.0247  0.1673 -0.1356
16600W        W32861  13.470   4.210  11.057  0.4518  0.0313 -0.4181
16601W        W32862  14.348  13.858   1.871 -0.0231 -0.0374  0.1838
16602W        W32863   9.313   4.841   0.889 -0.1661  0.0443 -0.1562
16603W        W32864   5.915  15.324  11.802 -0.1413  0.0339  0.0746
16604W        W32865   5.614   1.408   5.284  0.2196 -0.1824  0.1155
16605W        W32866  15.931   9.266  13.215  0.0370  0.0619  0.0085
16606W        W32867   8.692  13.383  12.736  0.1014  0.3290  0.0267
16607W        W32868  11.337  10.690   0.849  0.0850  0.2908  0.1454
16608W        W32869   1.166   8.395  13.138 -0.1071  0.1631  0.0034
16609W        W32870  12.191   3.853   0.232 -0.2020 -0.0719  0.4697
16610W        W32871  16.951   7.667  10.844 -0.2193  0.1516 -0.0921
16611W        W32872   8.093  15.447  13.018 -0.0136  0.0021  0.1670
16612W        W32873   3.616  10.879   5.013 -0.0366  0.2928  0.1747
16613W        W32874   7.996   2.024   2.178 -0.0512  0.0208  0.0726
16614W        W32875  14.148   4.875   0.252  0.0549 -0.0443  0.0776
16615W        W32876   7.765   9.395  11.794 -0.0533 -0.0001 -0.2095
16616W        W32877   8.585   1.259  12.563 -0.2790 -0.0031  0.0168
16617W        W32878   7.117  11.690   2.914  0.0408 -0.0507 -0.0490
16618W        W32879   6.135   3.244   1.866 -0.1959  0.2152  0.1240
16619W        W32880  11.336  15.931   3.453  0.0511 -0.1207  0.2172
16620W        W32881  14.461  10.872  10.725  0.0466 -0.2957  0.0929
16621W        W32882   6.836   1.394  12.589 -0.0386 -0.1183  0.0267
16622W        W32883   6.251  15.579   3.310 -0.2984 -0.0014  0.0616
16623W        W32884  10.642  14.589  10.883  0.0011 -0.0060  0.1106
16624W        W32885  18.095  10.399   2.004 -0.1213  0.1282 -0.2258
16625W        W32886   4.320  14.750   4.376  0.1198 -0.1716 -0.4012
16626W        W32887  10.282  18.294  11.213  0.2483 -0.0316  0.0926
16627W        W32888  12.114  11.085  10.585  0.0458 -0.1093  0.2810
16628W        W32889   7.690   2.780  13.404 -0.1423  0.5738  0.0822
16629W        W32890  18.683   0.902   1.735 -0.0165  0.2813  0.3210
16630W        W32891   9.973   9.341   0.157  0.0456  0.0557  0.2110
16631W        W32892   8.061   0.370  12.425  0.1420 -0.1900 -0.1554
16632W        W32893   3.124   2.615  14.026  0.0750 -0.1071 -0.1806
16633W        W32894  12.098  15.513  11.748  0.1164 -0.0907 -0.3108
16634W        W32895  14.143   1.443   4.036 -0.2856  0.1728  0.0677
16635W        W32896  14.089   7.754   1.229 -0.0614 -0.1653 -0.2379
16636W        W32897   7.570  17.717   1.025 -0.1077  0.3933  0.2551
16637W        W32898   8.037   6.762   5.565  0.0987 -0.2834 -0.1114
16638W        W32899   0.987   6.959   2.351 -0.2500 -0.1214 -0.0298
16639W        W32900  14.832  10.532  15.126  0.4296  0.2481 -0.1313
16640W        W32901   4.325   5.011   4.718 -0.1614  0.3782 -0.1429
16641W        W32902   5.689  15.191   0.771 -0.0140  0.2635  0.0465
16642W        W32903  17.642  14.202  13.403 -0.0227 -0.0302  0.0356
16643W        W32904   7.961  12.743  12.596 -0.2330 -0.3528 -0.0952
16644W        W32905  15.188  13.699  15.629  0.0408 -0.2145  0.0432
16645W        W32906  17.459   0.930   0.248 -0.2093 -0.2117 -0.1814
16646W        W32907  14.432  11.068  15.046 -0.2771  0.0452 -0.2170
16647W        W32908  13.162   3.112   1.019  0.0079 -0.1754  0.1848
16648W        W32909  13.077  17.181  12.349  0.2226 -0.0391 -0.1770
16649W        W32910   5.820   1.610   0.763 -0.1315  0.1680  0.0326
16650W        W32911  17.376  18.051   2.496 -0.0483  0.1276  0.2102
16651W        W32912  13.273  14.032  14.695  0.1049 -0.1796 -0.2016
16652W        W32913   6.485   0.822   0.973  0.0508 -0.2968  0.2463
16653W        W32914  10.799  16.163  12.874 -0.1346  0.0553 -0.3093
16654W        W32915  15.384   0.717   0.153  0.1499  0.0584  0.0895
16655W        W32916   5.531   3.063  11.510  0.3130 -0.3619 -0.2078
16656W        W32917   6.653   9.399   4.443  0.0279 -0.0649 -0.0272
16657W        W32918   7.806   4.433   1.555 -0.1695 -0.1012 -0.0758
16658W        W32919  14.751   0.216  13.515 -0.1716  0.2300 -0.2668
16659W        W32920   0.343  13.335  11.453  0.0939 -0.3744  0.1037
16660W        W32921   7.117  17.474   2.373 -0.0381  0.2799 -0.0425
16661W        W32922   2.094   0.920  12.292  0.1171  0.1829 -0.0277
16662W        W32923   4.752   1.255   2.247  0.0983 -0.1744 -0.1684
16663W        W32924   7.305   6.485   3.031  0.3372  0.2060  0.0118
16664W        W32925   4.649   8.852  11.330 -0.0974  0.0250  0.0723
16665W        W32926   9.694   1.568  13.203  0.2462  0.0545  0.2953
16666W        W32927   3.458   0.524  13.344 -0.0852 -0.0302 -0.0980
16667W        W32928   7.502  16.596   2.483 -0.1215  0.1930 -0.1682
16668W        W32929   7.970  10.442  13.648  0.0913  0.1674  0.0159
16669W        W32930  14.163   1.667   1.090 -0.1142 -0.1395  0.0037
16670W        W32931   5.900  13.347   4.562  0.1828  0.1932 -0.1248
16671W        W32932  13.335   6.944  13.274 -0.3085 -0.0808 -0.0473
16672W        W32933  17.683  18.491  14.103 -0.0505  0.1173 -0.1300
16673W        W32934  11.095  11.199  12.236 -0.0208  0.3129  0.0324
16674W        W32935  10.310  11.151   2.658 -0.2222 -0.3508 -0.1415
16675W        W32936  16.887   5.983  11.459 -0.2115  0.1146 -0.1702
16676W        W32937   3.593   1.085   1.426  0.1705 -0.0789 -0.1415
16677W        W32938  12.992  16.889   3.342  0.1155 -0.1684 -0.2966
16678W        W32939  12.463   9.777   2.558 -0.0362 -0.0815  0.5196
16679W        W32940   9.519   7.534  11.749  0.2304 -0.2646 -0.2316
16680W        W32941   1.930  12.230  14.181 -0.0961  0.0496 -0.1986
16681W        W32942  13.043   5.701  11.984 -0.0921  0.0773  0.0741
16682W        W32943  10.909   8.060  12.463 -0.2980 -0.3430 -0.3429
16683W        W32944   7.904   5.577   5.510 -0.0657  0.1544  0.2998
16684W        W32945   5.029  14.190  13.622 -0.0420 -0.1593  0.0744
16685W        W32946  11.670   7.585   2.247 -0.0423  0.1064 -0.1741
16686W        W32947  14.782   4.808   2.961 -0.0232 -0.2867  0.0366
16687W        W32948   1.270   5.061  15.397  0.0721  0.0055 -0.0004
16688W        W32949   0.914  11.293  10.934  0.0728  0.1107  0.1563
16689W        W32950   9.304  13.074   1.802  0.3090 -0.1077 -0.4109
16690W        W32951   7.388  14.522  13.609  0.2095 -0.2260  0.1758
16691W        W32952  15.593  11.979  12.859  0.1019  0.2071 -0.0646
16692W        W32953  18.225   3.891  15.279 -0.1736  0.1453  0.0952
16693W        W32954   6.219   8.883  14.660 -0.1441 -0.0100 -0.1386
16694W        W32955  11.424   3.927   3.094 -0.1582 -0.1603  0.0177
16695W        W32956  14.207   9.156  13.253  0.1696  0.0600  0.0347
16696W        W32957   4.183  10.419   2.092  0.2255  0.2743 -0.2175
16697W        W32958   6.989  14.868  13.282 -0.1806  0.2250  0.1659
16698W        W32959  15.950  15.647   0.830  0.4849  0.0018 -0.0143
16699W        W32960  11.195  13.999   3.808  0.3036 -0.0879 -0.1768
16700W        W32961   4.540  13.654  14.447 -0.0323 -0.0557 -0.2313
16701W        W32962  18.571   4.538   3.677  0.0055  0.0022 -0.0719
16702W        W32963   9.347   9.806  12.114 -0.1584 -0.1676 -0.0312
16703W        W32964  15.712  15.782   1.572  0.5041 -0.2825 -0.1902
16704W        W32965   6.402  12.225  11.487  0.0323  0.1427  0.1307
16705W        W32966  12.777   5.922  11.671 -0.1180  0.2067  0.2531
16706W        W32967   4.732  13.026  15.176 -0.1156 -0.4403 -0.0993
16707W        W32968  11.406   2.722   1.823  0.0174  0.5380  0.1476
16708W        W32969  15.482  17.823   1.006 -0.0704  0.4104 -0.5384
16709W        W32970   4.060  16.146  13.758 -0.0450 -0.2648 -0.1186
16710W        W32971   7.648  17.298  12.030  0.2865 -0.1155  0.1551
16711W        W32972  13.010  11.442   4.766 -0.0893  0.0512  0.0515
16712W        W32973   8.995  13.933   0.507  0.1530 -0.2663  0.0695
16713W        W32974   7.694   3.438  14.679  0.2589  0.2380  0.3173
16714W        W32975   7.330  10.468  14.612 -0.2172 -0.2271 -0.1209
16715W        W32976   5.679  16.098  13.150 -0.1336 -0.1731 -0.1040
16716W        W32977  17.511  14.977   0.928  0.1773 -0.4206  0.0663
16717W        W32978   5.138  16.253   2.102 -0.0500  0.2092 -0.3308
16718W        W32979  11.240  10.229   5.858 -0.0795  0.2493 -0.0217
16719W        W32980   5.354   0.545   0.256 -0.0646 -0.2619  0.0033
16720W        W32981  16.725   8.931   2.627  0.1169  0.0380  0.2156
16721W        W32982  13.770   7.821  12.781  0.1417  0.1303  0.0046
16722W        W32983   8.564  15.385   4.189  0.5006  0.0029 -0.0459
16723W        W32984   4.009   8.331  11.417  0.0467  0.3913  0.2057
16724W        W32985  16.643  12.332  13.419  0.1242  0.0774  0.0403
16725W        W32986   5.869  15.787  15.581 -0.2141  0.1092 -0.1354
16726W        W32987   5.223  16.775  11.195 -0.2293  0.2174  0.0905
16727W        W32988   4.495  17.037   0.114  0.2858  0.1355  0.1609
16728W        W32989  14.784  14.646   4.301  0.1025 -0.2693  0.1582
16729W        W32990   8.378  17.869   0.487  0.1789  0.1884  0.1024
16730W        W32991   7.724  14.081  13.580 -0.1762 -0.0200 -0.0865
16731W        W32992   4.745  15.942  13.698 -0.3211 -0.1468  0.1819
16732W        W32993   3.273  16.620  13.245 -0.2299 -0.2269  0.0274
16733W        W32994  14.918   8.666  12.533 -0.0616 -0.2110  0.3085
16734W        W32995   7.964   5.483   0.419  0.2095  0.1474 -0.4857
16735W        W32996  11.155   1.930   0.019 -0.0668  0.0004  0.0600
16736W        W32997   7.559   0.075  11.487  0.2835 -0.0365 -0.1298
16737W        W32998   1.230  14.982   0.889  0.2998  0.1241  0.1127
16738W        W32999  14.444  13.541  13.603 -0.1522 -0.2016 -0.0948
16739W        W33000   3.827  14.192   1.543  0.0943 -0.0363  0.0090
16740W        W33001  18.054   5.666   0.356 -0.2599  0.1300  0.1859
16741W        W33002   6.901   6.914   5.994 -0.0479  0.1530 -0.4122
16742W        W33003  10.229  16.389  14.549  0.1232  0.1675  0.0091
16743W        W33004   0.015   6.553  13.742 -0.0396 -0.2124 -0.3154
16744W        W33005   4.890   9.431   1.649 -0.1268  0.1288 -0.0537
16745W        W33006   7.399  18.331   3.473 -0.0516 -0.0259 -0.1507
16746W        W33007  16.961   6.107   0.542 -0.1768  0.1034 -0.2032
16747W        W33008   2.461  16.736  14.072  0.0491  0.1000 -0.1178
16748W        W33009   7.801   9.647   3.015  0.1402 -0.0496  0.1222
16749W        W33010   4.095   7.525  12.762  0.3132 -0.2686 -0.1317
16750W        W33011  10.818  11.659   0.807 -0.1959  0.0787 -0.4807
16751W        W33012   1.410   4.516   4.270 -0.1116  0.0094 -0.0360
16752W        W33013   7.814   0.534   2.536  0.0761 -0.0076 -0.0615
16753W        W33014  12.212  10.257   4.952  0.1051 -0.1041 -0.0169
16754W        W33015  10.020   5.273   3.495 -0.0291  0.1790  0.2008
16755W        W33016   1.264   9.811  12.718  0.2163  0.4144 -0.2718
16756W        W33017  16.967   0.070   0.795 -0.1641 -0.1518 -0.0742
16757W        W33018  13.304  17.715  14.412 -0.4026 -0.2828  0.1436
16758W        W33019   6.060   5.171   0.889 -0.0169 -0.1784  0.1881
16759W        W33020  10.453   8.055   5.525 -0.3685  0.0418 -0.3677
16760W        W33021   6.993   8.267   3.657  0.0020  0.1091  0.0762
16761W        W33022   1.714   2.285  14.916 -0.1081 -0.0545  0.3454
16762W        W33023  13.524  12.236   2.332 -0.0816 -0.1599  0.0089
16763W        W33024   9.837  11.092   2.712  0.2128 -0.0722  0.2843
16764W        W33025  18.701   9.195   3.400 -0.2699  0.3314 -0.0253
16765W        W33026  17.715  14.751   2.688 -0.1330 -0.1898  0.0576
16766W        W33027   8.960   1.480  12.757 -0.1194 -0.0245  0.0038
16767W        W33028   2.728   6.972  11.327 -0.1315  0.0453  0.2762
16768W        W33029  14.956   2.527  12.065  0.1262 -0.1888 -0.0431
16769W        W33030  14.814   7.939  12.478  0.0756  0.1156 -0.0914
16770W        W33031  14.414   1.376  13.844 -0.2054 -0.0837 -0.2604
16771W        W33032   7.242  12.140   2.698 -0.2113  0.0966 -0.1452
16772W        W33033   0.816  13.451  11.609 -0.0180 -0.0349  0.0474
16773W        W33034   1.615   0.986   4.176  0.1236 -0.0331  0.1419
16774W        W33035   8.116  18.189   5.777 -0.2377  0.0388 -0.0100
16775W        W33036  10.874   2.610   0.364  0.0713 -0.2849 -0.1965
16776W        W33037  13.406   7.100   2.724 -0.0351 -0.2846  0.1721
16777W        W33038   4.587   7.894   2.737  0.0053 -0.0900  0.0388
16778W        W33039   1.880   7.920   4.340  0.0836 -0.3311  0.2758
16779W        W33040  16.091   8.482   0.353 -0.0589  0.3627 -0.1541
16780W        W33041   8.869  14.461   4.881  0.1027 -0.1232  0.0414
16781W        W33042   5.657   2.914  14.462 -0.3808  0.1233  0.0546
16782W        W33043  16.507  17.836  10.485  0.0037 -0.1462 -0.0370
16783W        W33044   3.353  15.907   0.663  0.1471  0.0893 -0.0015
16784W        W33045  11.724   4.236   0.875  0.2265 -0.1511 -0.1822
16785W        W33046   7.045   6.015  14.247 -0.2250 -0.1564  0.1385
16786W        W33047   3.430   3.802   3.896  0.2745  0.1086  0.0258
16787W        W33048  18.529  15.345   2.934 -0.0391 -0.2207 -0.0950
16788W        W33049   7.830  13.089  13.131 -0.0879 -0.0273 -0.0190
16789W        W33050   3.952   1.810  11.026 -0.1459  0.0637  0.0488
16790W        W33051  14.172   4.172  13.418 -0.0453  0.1655  0.2942
16791W        W33052   3.829   5.884   3.270  0.0544 -0.1156  0.1066
16792W        W33053   3.166  14.190   1.002 -0.1495  0.1643  0.1228
16793W        W33054   8.695   4.301   1.692  0.2474 -0.0691  0.1421
16794W        W33055  17.092  11.911   1.753 -0.0572  0.1440  0.1738
16795W        W33056  15.239  11.049   1.001  0.2134  0.0461 -0.1144
16796W        W33057  10.056   1.972   1.027  0.0734 -0.0943 -0.0820
16797W        W33058   0.121  18.136   0.049 -0.2431 -0.2620  0.3155
16798W        W33059  10.178  11.249   3.099  0.0073  0.3230  0.0624
16799W        W33060  12.092  12.924  14.019 -0.0278 -0.0706  0.2338
16800W        W33061   5.197   7.619  15.287  0.2206  0.1982  0.1780
16801W        W33062   2.561   0.367  12.988 -0.0448 -0.1887  0.0190
16802W        W33063   2.755  17.100  15.446 -0.0400  0.3875 -0.1409
16803W        W33064  18.756  12.106   0.376  0.1172  0.0859 -0.1985
16804W        W33065  13.035  11.908   3.009 -0.1094 -0.1068  0.3460
16805W        W33066   8.235  10.138  11.301 -0.0975 -0.0860  0.1155
16806W        W33067   6.210   4.014   1.248  0.1705  0.3515  0.0921
16807W        W33068  13.016   3.353   4.774  0.0989  0.1735 -0.0898
16808W        W33069   6.057   3.946  12.442  0.0254  0.0554  0.0618
16809W        W33070   6.628   3.092  14.473 -0.0320 -0.2040  0.3431
16810W        W33071   4.464   3.099   4.398 -0.1095  0.0649 -0.2241
16811W        W33072  11.219  18.211  11.552  0.1748 -0.1086  0.0331
16812W        W33073   8.378   3.556  12.517 -0.4102 -0.1515  0.1692
16813W        W33074   7.537   1.035   2.721 -0.1045 -0.1299  0.1927
16814W        W33075   9.075  16.686  13.713 -0.1513  0.2973  0.0431
16815W        W33076  13.453   5.888  14.730  0.2053  0.0762  0.0340
16816W        W33077  17.682  10.424   1.679  0.2554 -0.1709 -0.0537
16817W        W33078  12.962  10.361   5.445  0.0537  0.1819  0.2423
16818W        W33079  14.906   6.897  13.825  0.2330  0.2156  0.1846
16819W        W33080   7.319  14.724  14.542 -0.3000  0.2756 -0.0494
16820W        W33081  17.108  14.140   3.138  0.0012 -0.0078  0.0794
16821W        W33082  16.710  10.750   0.234  0.0297 -0.4321 -0.0489
16822W        W33083  11.272  14.621  10.637  0.0849  0.0046 -0.0689
16823W        W33084  15.735   9.842   0.386  0.2031 -0.0045  0.1308
16824W        W33085  13.248  18.089   3.732 -0.0369  0.3192  0.2442
16825W        W33086   8.844  16.898  13.274  0.3942 -0.0615  0.0856
16826W        W33087  13.084  11.503   3.503  0.0831 -0.3834 -0.2811
16827W        W33088   5.856  15.544  15.122 -0.1976  0.0412  0.1485
16828W        W33089   4.587  12.880  13.180 -0.3763  0.2250 -0.0899
16829W        W33090   9.187   0.252  13.189  0.0082 -0.0861 -0.2042
16830W        W33091   5.336  15.310  11.425 -0.0682  0.1493 -0.2262
16831W        W33092  15.188  15.746  15.073 -0.0453 -0.2072  0.1532
16832W        W33093  14.768   0.906   2.149 -0.2148 -0.2128 -0.0473
16833W        W33094  15.102   4.968  10.483  0.3617 -0.0745  0.2451
16834W        W33095  17.361   7.821   3.672 -0.0084 -0.1001  0.1722
16835W        W33096   1.136   3.692   0.911 -0.2662 -0.0307  0.0911
16836W        W33097   1.057  10.763  10.477 -0.3630  0.1079 -0.1310
16837W        W33098   2.200  10.776   4.570  0.2284  0.2709 -0.1893
16838W        W33099   8.121  14.912  15.055 -0.0106 -0.3198  0.1302
16839W        W33100  10.288   0.962   2.322 -0.1352  0.1273  0.2380
16840W        W33101   5.163   3.113  13.579 -0.1380  0.2320 -0.3901
16841W        W33102   4.612   8.462   2.391  0.0624 -0.1518 -0.0558
16842W        W33103   4.241   4.799  14.908  0.1312  0.0832 -0.1274
16843W        W33104   3.811   2.352   1.739  0.1976 -0.3025  0.0045
16844W        W33105   1.506  13.788   3.398 -0.0900 -0.2586 -0.0587
16845W        W33106   5.922   9.160  11.474  0.1949 -0.0359 -0.0407
16846W        W33107  14.383   2.944   0.264 -0.4609 -0.2092 -0.1150
16847W        W33108   9.408   3.765  12.706  0.0413  0.1543  0.1101
16848W        W33109  15.230  14.566   1.346 -0.1176  0.0706 -0.2386
16849W        W33110  11.715  18.066   5.953  0.2326  0.1998 -0.0939
16850W        W33111   7.401  11.856  11.866 -0.0035 -0.1558  0.3576
16851W        W33112  15.473   7.374  12.355 -0.0651  0.0538  0.0297
16852W        W33113  17.287   4.047   3.101  0.0969 -0.0377  0.0784
16853W        W33114  14.305  17.961   2.671  0.0542  0.2229  0.2231
16854W        W33115  11.860   8.838  14.781 -0.3388  0.0662  0.0096
16855W        W33116   4.704   0.559  11.096 -0.4537 -0.2677 -0.0048
16856W        W33117  14.726  18.330   1.946  0.0474 -0.1587 -0.0950
16857W        W33118  11.512  15.916   1.102 -0.5176 -0.1523  0.0046
16858W        W33119  15.514  12.318  11.229  0.0237 -0.0104  0.3182
16859W        W33120  17.241  10.297   4.251  0.2207 -0.0625  0.0228
16860W        W33121   3.397  13.023  14.347 -0.0959 -0.1861  0.0551
16861W        W33122  17.067  10.755   3.970 -0.0109 -0.0185  0.0457
16862W        W33123   3.333   5.896  12.157 -0.0320 -0.0655  0.0947
16863W        W33124  11.416   9.650   4.672  0.1955 -0.1622 -0.0870
16864W        W33125  18.647   1.111  12.226 -0.0673 -0.0375 -0.0097
16865W        W33126  12.618  15.170  10.768  0.0460  0.0332  0.1670
16866W        W33127  16.413   7.137   5.711 -0.1957  0.1893 -0.0165
16867W        W33128  12.255   5.363  14.694 -0.0913  0.0402  0.1487
16868W        W33129   4.646  10.310   3.362 -0.0481  0.1419 -0.3807
16869W        W33130   7.064   7.811  14.313 -0.0700 -0.1464  0.0762
16870W        W33131   1.259   9.425   1.984 -0.0845  0.2099 -0.0294
16871W        W33132  14.294   7.366  13.811 -0.1064 -0.0654 -0.1605
16872W        W33133   9.997  10.461   4.920 -0.0406  0.0464 -0.1756
16873W        W33134  18.813  16.097   3.656 -0.2109 -0.1772  0.1242
16874W        W33135   1.727  18.478  11.011 -0.0872 -0.0665 -0.1661
16875W        W33136  14.347   5.541   5.536  0.1616  0.2562 -0.0380
16876W        W33137  17.760  18.088   4.867  0.4795  0.0033  0.1869
16877W        W33138  14.055   3.759  14.894  0.0560  0.1154 -0.1858
16878W        W33139  11.863  12.172   5.809  0.0154 -0.0514 -0.1264
16879W        W33140   7.064  12.912  13.517 -0.1937  0.1843 -0.4145
16880W        W33141   0.647   5.011  15.316  0.0471  0.0385 -0.0924
16881W        W33142   3.090   6.076  14.810  0.0447  0.0839  0.1282
16882W        W33143  16.842   8.453   0.423  0.0002 -0.0496 -0.0035
16883W        W33144   6.190   2.366   0.305  0.1388 -0.1208 -0.1198
16884W        W33145  10.561  17.243  12.507  0.0182  0.0862 -0.1151
16885W        W33146  11.792   6.583   0.140 -0.1236  0.1666 -0.1190
16886W        W33147   0.315   0.103   3.378 -0.1249 -0.0213 -0.0486
16887W        W33148  10.795   7.323   1.022  0.1511  0.1845 -0.0623
16888W        W33149   6.807  16.692  15.229 -0.1894 -0.1852 -0.0440
16889W        W33150  15.893   3.711  13.265 -0.1961 -0.2237 -0.2325
16890W        W33151  16.713   8.303   0.979  0.2005 -0.1901  0.3327
16891W        W33152   9.753   0.248   1.411  0.2831 -0.1941 -0.2985
16892W        W33153  15.637  10.283  11.410  0.2396  0.0246  0.0736
16893W        W33154  17.163  14.252  14.850 -0.0831  0.1342 -0.3762
16894W        W33155  13.838   2.095  11.121 -0.1512  0.0220  0.1680
16895W        W33156   1.574   2.739   2.775 -0.0613  0.1844 -0.1671
16896W        W33157  11.722  14.161  11.262 -0.1701 -0.0451  0.2913
16897W        W33158  14.708  16.736   4.079 -0.1640  0.2653  0.2863
16898W        W33159   6.423  18.008  11.943 -0.1898  0.1531  0.1331
16899W        W33160   9.418  15.964   3.622 -0.2512  0.3976 -0.0997
16900W        W33161  17.731  13.927   4.557 -0.0577 -0.1384  0.0420
16901W        W33162  13.416  15.347   0.235  0.0793 -0.1797  0.0891
16902W        W33163   8.750   3.069   2.138  0.1158  0.0772 -0.2769
16903W        W33164  18.372  17.933  10.826 -0.0461 -0.0664  0.0314
16904W        W33165   5.975  14.105  15.103 -0.2528  0.1828  0.1669
16905W        W33166  17.711   8.952   3.088 -0.2275 -0.1746 -0.0018
16906W        W33167  16.759   7.458  11.233  0.4040  0.3324 -0.0413
16907W        W33168   1.374   2.032   2.496  0.0483 -0.3024  0.0050
16908W        W33169   2.871  13.964   2.787  0.2809 -0.0660  0.0462
16909W        W33170   5.820   6.008  12.356  0.0656 -0.2503 -0.1321
16910W        W33171  11.817  16.812   1.025  0.2919 -0.0846  0.2786
16911W        W33172   8.912  16.456  11.633  0.3019  0.4351  0.2235
16912W        W33173   4.910  15.934  12.387 -0.1408  0.1561 -0.2012
16913W        W33174   8.080  16.007   4.052  0.0170  0.1578  0.2657
16914W        W33175   2.476   5.853   3.774  0.0820 -0.1269 -0.2016
16915W        W33176  13.296   8.045   1.429 -0.0239 -0.2642  0.2443
16916W        W33177   9.044   9.276   2.902  0.0501  0.1230  0.1897
16917W        W33178   5.908  11.248  11.017 -0.0882  0.0687  0.0375
16918W        W33179  14.432   6.087  15.074  0.3498  0.0602 -0.5593
16919W        W33180   8.877   1.591   3.247  0.1555 -0.1023  0.2444
16920W        W33181  15.941   5.218  13.831 -0.3113 -0.1818  0.2188
16921W        W33182   0.641   0.670   4.089  0.0695  0.2029  0.1765
16922W        W33183  15.013   1.525  14.675 -0.3336 -0.0446 -0.0371
16923W        W33184   7.311  12.652  11.567 -0.0554  0.4081  0.2444
16924W        W33185   3.911  10.711   3.085  0.0862 -0.1410  0.1391
16925W        W33186  14.468  15.305  11.137 -0.0184 -0.1396 -0.1241
16926W        W33187   9.267  13.906  13.414 -0.1384  0.1469 -0.1519
16927W        W33188  17.377   5.162  13.943  0.3630 -0.0663 -0.0817
16928W        W33189  12.987  14.354   0.505  0.2252 -0.1615 -0.1646
16929W        W33190  16.219   4.065  13.198 -0.1102  0.0397  0.1929
16930W        W33191   4.843   8.812   5.068  0.2720 -0.2154 -0.2597
16931W        W33192   6.829   4.317   3.241 -0.3131  0.1894 -0.2268
16932W        W33193   5.949  16.013   2.008  0.0598 -0.2154 -0.3192
16933W        W33194   1.357  13.378   3.722  0.1269 -0.1853  0.1093
16934W        W33195  15.995  13.615   4.936  0.2790 -0.1582 -0.0066
16935W        W33196   3.409   2.066   5.311  0.1280 -0.2161 -0.2406
16936W        W33197   6.716  15.387  12.379  0.0130 -0.4294  0.1513
16937W        W33198   2.399  13.920   2.977  0.1998  0.0137 -0.0448
16938W        W33199  18.071   6.333  14.074 -0.0079 -0.3393  0.1439
16939W        W33200   2.538   1.543  13.399 -0.0593 -0.0003 -0.2086
16940W        W33201   6.838   3.780   0.119  0.0754  0.1196 -0.1958
16941W        W33202  15.636  12.235  14.600  0.1609  0.0170  0.2147
16942W        W33203   6.738  17.371  11.496  0.1740 -0.3527  0.0996
16943W        W33204  16.951   6.361  12.697 -0.3373  0.1004 -0.3316
16944W        W33205   5.834  13.616   2.710 -0.0908 -0.0597  0.3277
16945W        W33206   4.073  15.606   1.296  0.0658  0.2088  0.0024
16946W        W33207   6.477   3.999   6.340  0.1393 -0.0525  0.2037
16947W        W33208   6.952   6.282   0.962 -0.3526  0.0715 -0.2880
16948W        W33209   0.947   8.522   1.801 -0.1726  0.1250  0.1583
16949W        W33210  16.044   7.087   0.502 -0.1749  0.0131 -0.2717
16950W        W33211   8.483  16.136   0.740 -0.1986  0.0092 -0.3138
16951W        W33212   1.532  15.359  11.323 -0.2372 -0.1995 -0.2339
16952W        W33213  11.376   8.289  14.960 -0.0075  0.0191 -0.2367
16953W        W33214   1.455  17.518  10.814 -0.3431  0.2504  0.2771
16954W        W33215  16.889  14.551  13.018 -0.0416  0.3729  0.2049
16955W        W33216   2.058  14.794   4.666 -0.0409 -0.1264 -0.1990
16956W        W33217   3.455   1.789   0.011 -0.1634  0.3844 -0.2604
16957W        W33218   7.954   1.476   0.951  0.0040 -0.2916  0.1850
16958W        W33219  13.438  15.959  14.545 -0.3935  0.1671  0.0074
16959W        W33220   5.978   7.690   0.806  0.0405  0.1323  0.2435
16960W        W33221  10.253  12.700   1.849 -0.1008 -0.2172  0.0706
16961W        W33222  16.806   4.337  12.854  0.0007 -0.0201  0.2128
16962W        W33223  10.074  16.534  11.319  0.4610  0.2399 -0.1334
16963W        W33224  12.839  17.913  12.997  0.3399  0.0137  0.0387
16964W        W33225  16.966   7.676  15.418 -0.0928 -0.3845 -0.1603
16965W        W33226  14.595  14.580  14.677  0.1921 -0.1775  0.0502
16966W        W33227   4.157  18.217   2.171  0.2692 -0.1742 -0.2378
16967W        W33228   7.603   4.227   3.592  0.0769 -0.2600 -0.1533
16968W        W33229   4.750  17.121   2.790 -0.2337  0.1346 -0.2355
16969W        W33230  18.121  15.573   2.065 -0.0579  0.0434 -0.0526
16970W        W33231  16.073   6.158   0.270 -0.2154  0.0711  0.1641
16971W        W33232  11.395  10.169   4.011 -0.0901 -0.0588 -0.1380
16972W        W33233   7.124  17.232  12.072  0.1188 -0.3146 -0.1135
16973W        W33234   6.528   6.685   4.309  0.0425 -0.0032 -0.3046
16974W        W33235   4.789  16.542   0.585 -0.1859  0.1490  0.0639
16975W        W33236   0.932   0.127   3.966 -0.1157 -0.4023  0.0206
16976W        W33237   7.210  10.859   3.529 -0.0259 -0.1834  0.3810
16977W        W33238   3.619  17.916   2.875 -0.1468 -0.0746 -0.1186
16978W        W33239  11.795  16.480  14.432 -0.1557 -0.1292  0.1902
16979W        W33240   5.416  15.504  10.894 -0.0286 -0.0596  0.0159
16980W        W33241  12.335   4.167  15.348 -0.4234  0.1387 -0.4709
16981W        W33242  12.822  10.033  10.760 -0.0154  0.0402 -0.2873
16982W        W33243   3.868   8.516  12.806 -0.2477 -0.4283  0.4417
16983W        W33244   7.100  13.622  14.145  0.1202  0.1983  0.3111
16984W        W33245   1.092   0.163   2.705 -0.1623  0.0355  0.3573
16985W        W33246   0.484   2.896   0.210  0.3103 -0.1698  0.0764
16986W        W33247   2.745   9.785   5.826  0.0320  0.2532  0.0951
16987W        W33248   4.261  12.837   5.476 -0.0078 -0.1340 -0.0112
16988W        W33249  18.311  13.992   4.605  0.1277  0.1355 -0.1824
16989W        W33250   1.980  17.027   3.207  0.1188  0.2629 -0.2467
16990W        W33251   7.232  17.140  14.000 -0.1370 -0.1245 -0.1637
16991W        W33252   9.855  16.558   4.737 -0.1178  0.0404 -0.0874
16992W        W33253   2.728  14.632  13.889  0.0332 -0.0185  0.2271
16993W        W33254   8.758   3.425   6.280  0.0870  0.0831 -0.0995
16994W        W33255  10.752   0.647  15.571  0.3573 -0.0238  0.3428
16995W        W33256   8.263  14.522   5.576 -0.0498 -0.0141 -0.0080
16996W        W33257   8.367   0.849   2.633  0.0767 -0.0392  0.1965
16997W        W33258  12.553  17.378  13.096  0.0530 -0.0610 -0.2833
16998W        W33259  15.390   7.360  15.590  0.0989  0.2888  0.1423
16999W        W33260  10.052  11.746  14.459 -0.2965  0.0887 -0.1022
17000W        W33261  10.793   6.161   2.234  0.2083 -0.1781  0.0419
17001W        W33262   2.890   4.979  14.800 -0.1122 -0.0271  0.0033
17002W        W33263   2.778   7.101   0.179  0.3316 -0.3067 -0.2490
17003W        W33264  18.311   7.289   2.418 -0.0723  0.3206 -0.0348
17004W        W33265  17.359   5.042  13.135  0.1202  0.3573 -0.2171
17005W        W33266   4.252  14.534   2.755  0.3666 -0.0403 -0.2066
17006W        W33267   2.511   8.587   0.611 -0.1119 -0.0503  0.1867
17007W        W33268  11.953  10.493   5.406  0.0542  0.1866 -0.3741
17008W        W33269   4.781   1.226  15.621  0.1113 -0.3591  0.3989
17009W        W33270   9.678   4.120   3.516 -0.0887 -0.0139  0.0204
17010W        W33271   9.325  13.006   4.543  0.0493  0.1531 -0.1929
17011W        W33272   5.529  18.133  13.345  0.2332  0.0227 -0.1199
17012W        W33273  10.192   6.101  11.601 -0.1041 -0.2062  0.0852
17013W        W33274   9.032  15.126   4.169  0.0014  0.1750  0.0682
17014W        W33275  16.417   6.258   1.075 -0.2365  0.0160  0.0911
17015W        W33276   0.068   5.402   3.577  0.1440  0.3721 -0.0232
17016W        W33277   1.669  16.070  10.607 -0.2534 -0.0064 -0.0501
17017W        W33278   1.828   5.228  14.676  0.1829 -0.2765  0.0173
17018W        W33279  12.488   0.524  15.176 -0.0936 -0.0978 -0.4096
17019W        W33280   7.841   4.774   2.278 -0.0997 -0.1369  0.2374
17020W        W33281   1.150   4.079  14.673 -0.0200 -0.0007  0.0662
17021W        W33282   2.024   8.004  11.387 -0.0659 -0.2829  0.0941
17022W        W33283   9.458   0.339  14.448 -0.1605  0.1884  0.0475
17023W        W33284   9.377  14.353  14.325 -0.0267  0.3015  0.1481
17024W        W33285   4.841  13.314  13.073 -0.0403 -0.0702  0.1898
17025W        W33286  13.828   5.531   2.498  0.0669  0.2551 -0.3267
17026W        W33287  18.682   4.330   4.552  0.0165  0.2965 -0.1632
17027W        W33288  17.863   0.589   1.628  0.1868 -0.0806 -0.1758
17028W        W33289  14.978   2.268  13.005  0.1796 -0.2070 -0.1649
17029W        W33290  12.808   7.026  12.606 -0.1812 -0.0906 -0.2007
17030W        W33291  18.121  16.176   5.356 -0.2549  0.0104 -0.1479
17031W        W33292  12.112   5.535  11.503 -0.0407 -0.1390 -0.2203
17032W        W33293  17.078  15.525   0.020  0.1240 -0.0446 -0.0401
17033W        W33294   0.908  16.660  13.960 -0.3527  0.2871 -0.1966
17034W        W33295   7.746  16.559   3.861 -0.2406 -0.2607  0.0016
17035W        W33296   5.039   4.152   1.592  0.2320  0.2389  0.1104
17036W        W33297  16.930   2.547  15.542  0.2140  0.1123  0.0132
17037W        W33298   4.837   6.973  13.347  0.3024 -0.2015 -0.1885
17038W        W33299  15.613   0.355  13.319  0.1602  0.0729  0.0022
17039W        W33300   8.994   1.806  13.644 -0.0549 -0.0409  0.0904
17040W        W33301  10.463  14.364  15.518 -0.3546 -0.0466 -0.2745
17041W        W33302   5.617  13.434   0.303 -0.0512  0.1621 -0.2362
17042W        W33303   9.741   2.967   0.739  0.0042 -0.2369  0.1403
17043W        W33304   5.875   2.823  13.221 -0.2603 -0.1833 -0.2637
17044W        W33305   7.492   9.075   0.365 -0.1276 -0.0588 -0.2872
17045W        W33306  17.395   3.117   1.285  0.2449 -0.2987  0.2311
17046W        W33307  13.936  15.497   2.752 -0.0444 -0.1339 -0.3517
17047W        W33308  12.234   8.551  13.953  0.1191  0.1931  0.3540
17048W        W33309  15.415  17.909  14.934 -0.3007  0.1020 -0.0996
17049W        W33310   5.945  15.773   2.552  0.0394 -0.0131  0.2843
17050W        W33311  10.938  17.356   1.522  0.0699  0.2136  0.1860
17051W        W33312   9.979   3.034   4.165 -0.1558  0.0650  0.0290
17052W        W33313  12.324   7.275  14.736  0.1516  0.0424  0.2926
17053W        W33314   0.313  11.286   0.295  0.0327 -0.1362 -0.1097
17054W        W33315  17.719  11.989  14.448  0.2796 -0.0689  0.2322
17055W        W33316   6.193   9.341  14.325  0.3720  0.0583  0.2408
17056W        W33317   1.235   5.717  15.083  0.1871 -0.0414 -0.2443
17057W        W33318   5.028  17.836  14.572 -0.3651  0.0912 -0.4014
17058W        W33319   2.242  13.331   1.783 -0.0974  0.1819  0.1992
17059W        W33320   3.784   5.502  11.433 -0.0481 -0.1020  0.0680
17060W        W33321   0.292   7.805  14.024  0.1415 -0.0237  0.1668
17061W        W33322   8.656   1.761   4.165 -0.1455 -0.0077 -0.0176
17062W        W33323   0.986   8.021   1.664  0.0536  0.3499 -0.0996
17063W        W33324   7.747  16.292   4.291  0.1185  0.0711 -0.0317
17064W        W33325  11.302  12.777   3.165 -0.0834 -0.1770  0.0417
17065W        W33326   9.563   4.965   2.957 -0.1153  0.2274 -0.0092
17066W        W33327   1.696   5.693   2.284  0.2166 -0.4440  0.1023
17067W        W33328  10.817  10.984  15.426 -0.1506 -0.2153  0.0358
17068W        W33329  13.987  15.071   3.737 -0.0508  0.2221 -0.3357
17069W        W33330   1.490  16.145   5.783 -0.0024  0.1966 -0.0363
17070W        W33331   6.591  10.105  14.856  0.1464  0.2924  0.1779
17071W        W33332   8.897   3.540   2.111 -0.2465 -0.0067 -0.0188
17072W        W33333   0.236   1.692  15.247  0.2267 -0.2155 -0.0564
17073W        W33334   6.151   6.426   2.250  0.1251 -0.1242  0.1164
17074W        W33335   7.881   0.984   6.078  0.1313 -0.1656 -0.0874
17075W        W33336  18.298  10.549  13.846  0.1854  0.1267  0.0451
17076W        W33337  13.669  12.856  10.835  0.0940 -0.2698 -0.0169
17077W        W33338   9.679   8.976  14.589  0.1443  0.0531  0.1260
17078W        W33339   0.833  17.612   3.944 -0.0631 -0.4083  0.1230
17079W        W33340  16.003   4.373   5.116 -0.0158  0.0845  0.2142
17080W        W33341  12.168   9.700   0.988 -0.2480 -0.0339 -0.2532
17081W        W33342   3.534   9.037   1.792 -0.0632 -0.2819 -0.2410
17082W        W33343  17.771   6.958  11.439  0.0154 -0.3655  0.6019
17083W        W33344   2.917   2.343   0.969  0.0766  0.1604 -0.2600
17084W        W33345  14.722  13.229  14.023  0.0170  0.1041 -0.0768
17085W        W33346   2.655   6.480   1.006  0.0412  0.1412  0.3182
17086W        W33347  15.335   3.977  12.556 -0.1554  0.2158  0.0896
17087W        W33348   8.888  13.046  12.387  0.0595 -0.0658  0.1474
17088W        W33349   8.490   8.045   5.323  0.0198 -0.0080 -0.1583
17089W        W33350  11.348   6.640  12.344 -0.2113 -0.1156 -0.1601
17090W        W33351  16.282  16.965  15.609 -0.0531  0.0793  0.3736
17091W        W33352  18.289  10.791  11.851 -0.1373 -0.1843  0.2065
17092W        W33353   2.908  15.454   1.985 -0.1617  0.0669  0.0024
17093W        W33354  10.028  11.707   1.853  0.1289 -0.1075 -0.2001
17094W        W33355  11.475  11.951  14.425 -0.0835 -0.2459 -0.1473
17095W        W33356   0.413  15.570  12.983 -0.2005  0.0127 -0.4485
17096W        W33357  14.291   2.295   1.582 -0.2684  0.1274 -0.2032
17097W        W33358  15.563   4.607   5.166  0.3630 -0.1888 -0.1937
17098W        W33359  13.934   2.873   3.840  0.1519 -0.1241  0.1477
17099W        W33360  18.498   3.721   5.776 -0.0986 -0.2042  0.4206
17100W        W33361  12.610  10.313  13.780  0.0539  0.1484 -0.0840
17101W        W33362   6.960  17.540   0.093 -0.3228 -0.3047  0.1751
17102W        W33363   1.240   2.374   2.907 -0.0007 -0.0801 -0.0149
17103W        W33364   1.584   1.832   5.500 -0.2131  0.0392  0.2918
17104W        W33365   9.188  13.316   2.752 -0.0699 -0.1325 -0.1407
17105W        W33366   7.274  13.591   1.254  0.0460  0.1588 -0.0293
17106W        W33367  17.434   0.706   3.023 -0.0348  0.0571  0.0714
17107W        W33368   1.413   5.556   3.393  0.2316 -0.0604  0.2271
17108W        W33369  16.637   7.654   4.778  0.0612  0.0833 -0.0401
17109W        W33370  14.707  13.285   1.807 -0.1518 -0.2441 -0.2405
17110W        W33371  10.173   6.565  11.745  0.0411 -0.1235 -0.2539
17111W        W33372  16.632   1.806  13.789  0.0900  0.1737 -0.0217
17112W        W33373  13.949  18.171  14.039 -0.1778  0.0871 -0.0399
17113W        W33374   8.946   9.023  12.702  0.1900  0.2778  0.0222
17114W        W33375   7.273   9.417   4.256 -0.0018 -0.1910 -0.0399
17115W        W33376  17.867   8.499  11.506 -0.5281  0.0285  0.0246
17116W        W33377   9.224   4.965   1.949 -0.1150  0.0949 -0.0620
17117W        W33378  14.452   1.563  12.572 -0.2411 -0.2927  0.2266
17118W        W33379  13.267  12.608  12.635  0.3920 -0.1656 -0.4405
17119W        W33380   3.296   7.887  12.827  0.3089  0.0431 -0.2081
17120W        W33381   0.718  17.246  11.864 -0.2005  0.1545 -0.1249
17121W        W33382   2.547   0.886  14.332  0.1294 -0.1231 -0.0464
17122W        W33383   8.509  13.077  15.342 -0.3085  0.2396  0.3447
17123W        W33384  13.294  13.738   1.016  0.7461 -0.1429 -0.1767
17124W        W33385   8.971   7.866   0.370  0.1640  0.0085  0.2791
17125W        W33386  12.244  13.777  11.609  0.2645 -0.1938  0.1086
17126W        W33387   8.664   1.667  14.209 -0.0712 -0.1849 -0.3462
17127W        W33388   2.244  14.742   1.936 -0.0860 -0.0238  0.1655
17128W        W33389  13.492  17.625  13.621 -0.2831  0.0939  0.1328
17129W        W33390  18.273   7.538   0.324  0.0822  0.3726  0.1786
17130W        W33391   8.815   4.103   1.235  0.1411 -0.1469  0.1729
17131W        W33392   7.178   4.150   0.054 -0.2672  0.0468 -0.2919
17132W        W33393   0.202   3.688  11.238 -0.0647  0.0371 -0.0933
17133W        W33394  10.647  18.721   1.089 -0.0748 -0.0368 -0.2966
17134W        W33395   6.990  16.926   1.192  0.1410  0.0282 -0.1147
17135W        W33396   4.807  18.391   5.442  0.2887 -0.4091  0.0309
17136W        W33397   2.215   6.143   5.422  0.1238 -0.0322  0.0115
17137W        W33398   6.507   9.271   2.426 -0.0655 -0.3981 -0.2215
17138W        W33399  10.441   5.989  15.361  0.1247 -0.2283  0.0960
17139W        W33400   8.586  11.453   3.541  0.2772 -0.2956 -0.0006
17140W        W33401  11.020   9.813   1.717 -0.1385 -0.2468 -0.1179
17141W        W33402  14.041   4.070   0.442 -0.2962 -0.0524  0.1329
17142W        W33403  10.722   3.836   0.294  0.0945  0.0137  0.0965
17143W        W33404  17.290   9.136  12.603  0.0470 -0.0180  0.0719
17144W        W33405  14.844   7.130   4.549 -0.0165 -0.1427 -0.1106
17145W        W33406   1.612   5.366  15.186 -0.2287  0.0438  0.1412
17146W        W33407  10.002  12.448   2.732 -0.0381 -0.0306  0.0644
17147W        W33408   3.830   1.043   2.800  0.0891 -0.0340  0.2520
17148W        W33409   8.065   7.303  15.220  0.4856  0.1015 -0.1388
17149W        W33410   1.607   9.112   0.624 -0.0703  0.0656 -0.1613
17150W        W33411  16.879  13.645   2.349 -0.0277 -0.1692 -0.0790
17151W        W33412   2.381  11.431  12.832 -0.0626  0.2922 -0.0664
17152W        W33413   7.086   1.049  14.858  0.5510  0.0043 -0.2294
17153W        W33414   8.302   8.873  14.068 -0.3386  0.1639 -0.3105
17154W        W33415   6.015   8.236  14.982 -0.2870 -0.0553  0.1139
17155W        W33416  18.755   4.465  13.022 -0.1509 -0.1877  0.0088
17156W        W33417  11.877   3.169   1.077 -0.0920  0.0583 -0.3075
17157W        W33418   4.816   2.744  13.603  0.0309  0.2783  0.0304
17158W        W33419  14.515  16.137   4.849  0.2962 -0.0404 -0.0193
17159W        W33420   2.108  14.447  14.642 -0.3932  0.2999 -0.1098
17160W        W33421   2.359  10.720  11.164 -0.1297  0.0791 -0.3474
17161W        W33422  12.157   4.429   2.521  0.0453  0.0529 -0.2304
17162W        W33423   5.783   9.083  14.493  0.0565  0.1536  0.1350
17163W        W33424   6.187   3.519   6.236  0.0862  0.0080 -0.1622
17164W        W33425   0.392   2.921   3.823  0.0742 -0.1216  0.0812
17165W        W33426   1.600  15.032  10.152 -0.0062  0.0103  0.0852
17166W        W33427  14.715   2.129   1.140  0.3107 -0.1183 -0.0224
17167W        W33428   0.411   6.316   2.092  0.1314 -0.1267 -0.3110
17168W        W33429   1.090  12.205  15.247  0.1221  0.2503 -0.0186
17169W        W33430  10.749   2.174  12.488  0.0068  0.0872 -0.3151
17170W        W33431   4.534   9.204  12.215 -0.0003  0.1349 -0.0069
17171W        W33432   3.779   9.068  13.403 -0.0581  0.2173  0.1370
17172W        W33433  14.133   2.414   2.063 -0.0460  0.1728  0.1350
17173W        W33434   0.329  10.191  10.903 -0.1012 -0.0163  0.0474
17174W        W33435   2.212   7.118   1.382 -0.5701 -0.1801 -0.1199
17175W        W33436   0.129   7.953   1.697 -0.0522 -0.1532  0.0880
17176W        W33437   1.416  11.285  12.804 -0.1954 -0.2938  0.1803
17177W        W33438  11.556  13.904   3.487 -0.3372  0.1870 -0.0413
17178W        W33439  15.325   6.707  15.469  0.3202 -0.5026  0.3082
17179W        W33440   0.927   8.069   2.238 -0.0186 -0.0054 -0.2193
17180W        W33441   9.347   3.208   3.421  0.1620  0.2879  0.1582
17181W        W33442  17.084   9.855  10.962 -0.0235  0.0418  0.1100
17182W        W33443  13.380  12.165   1.476 -0.3525  0.0843  0.2386
17183W        W33444  11.796   8.398  10.432  0.0440 -0.0976 -0.4323
17184W        W33445  10.184   8.657   3.909 -0.2682  0.2944  0.0051
17185W        W33446  17.281  15.737   0.436  0.2322  0.0099  0.1720
17186W        W33447   6.013  18.374  12.648 -0.3840 -0.0913  0.1393
17187W        W33448   6.943  17.629   3.537 -0.0669  0.0259  0.0675
17188W        W33449  16.093  14.139  14.403  0.1535  0.0863 -0.4807
17189W        W33450   4.187  14.573   4.849 -0.1434 -0.1158 -0.0345
17190W        W33451   9.003  15.383   0.678  0.0196  0.0456 -0.1017
17191W        W33452  18.079   3.452  13.257  0.2099  0.1525 -0.0030
17192W        W33453   9.880   4.748   2.634 -0.3777 -0.2122  0.0494
17193W        W33454   3.497  10.799  14.301  0.1488  0.1294  0.5335
17194W        W33455   9.166   4.457   1.541  0.0982 -0.1455  0.1657
17195W        W33456   9.272  17.315  14.768 -0.2276  0.1557  0.1469
17196W        W33457  12.120   3.880  14.098  0.0304 -0.0437 -0.0263
17197W        W33458  16.316   1.197   2.445  0.0230 -0.0351 -0.1216
17198W        W33459   4.374  11.306   0.484 -0.3194 -0.0611  0.0532
17199W        W33460  12.027  18.001   5.408 -0.1041 -0.1987 -0.2123
17200W        W33461   4.355   0.551  14.882 -0.0220  0.1907  0.4412
17201W        W33462  17.123   1.652  12.053  0.2692  0.2982  0.0408
17202W        W33463   2.371   6.955   3.941  0.1544 -0.0424  0.1762
17203W        W33464   8.194  11.732  13.544  0.0199 -0.1030 -0.0384
17204W        W33465   1.721  11.281   3.118 -0.0641  0.0175  0.0502
17205W        W33466  12.471  11.951   9.466 -0.2010 -0.0390 -0.5206
17206W        W33467  18.379  15.172  14.426  0.0997 -0.2750 -0.0695
17207W        W33468  11.915   3.305   2.433 -0.0752 -0.1164  0.0094
17208W        W33469   5.615  17.596  12.029 -0.0494  0.0942  0.1881
17209W        W33470   4.215   7.305  15.597  0.0485 -0.2562 -0.1524
17210W        W33471   0.296   7.457   4.672 -0.0502 -0.1656 -0.0659
17211W        W33472  12.359   3.418  14.236  0.2848 -0.1161 -0.0934
17212W        W33473   5.594   4.766   1.618 -0.1568 -0.0185  0.2651
17213W        W33474  14.048   0.780   3.481 -0.2466 -0.1300 -0.2210
17214W        W33475   5.331   6.657   0.775 -0.1767 -0.3118  0.2204
17215W        W33476   9.676  15.376   2.670  0.0896  0.1757  0.0351
17216W        W33477  18.543  15.412  11.092 -0.2824  0.1806 -0.3547
17217W        W33478   1.230   6.860  14.597  0.1466  0.4885  0.2683
17218W        W33479  10.041   1.916  14.935  0.1141 -0.2705  0.2677
17219W        W33480   0.656   3.467  15.590  0.1653  0.0716 -0.0714
17220W        W33481  17.825   8.979  13.360 -0.0063  0.0799 -0.0274
17221W        W33482   5.308   8.455  11.972 -0.1758  0.0104  0.3244
17222W        W33483  18.571   0.110  12.801 -0.0803  0.2231  0.2489
17223W        W33484  16.437   8.070   0.344  0.2971  0.1955  0.0071
17224W        W33485  14.919  10.813   4.789 -0.2275  0.0530  0.2913
17225W        W33486   1.786  10.989  11.694  0.1444 -0.3750  0.1119
17226W        W33487  10.068  14.474   2.176  0.2538 -0.2376  0.4237
17227W        W33488   6.523   2.281   4.961  0.2083  0.0427  0.3050
17228W        W33489  11.320  18.708  14.148 -0.1106 -0.0064  0.2622
17229W        W33490   7.156  17.562  10.472  0.1301 -0.1069  0.1736
17230W        W33491   4.463   6.618  11.500  0.2991 -0.1529 -0.0162
17231W        W33492   0.955  17.966  11.257 -0.0781 -0.4774  0.1582
17232W        W33493   3.091   4.073   5.224  0.0878  0.1021 -0.0827
17233W        W33494  15.627   8.473   0.637  0.0482 -0.0157  0.0352
17234W        W33495   4.543   7.981   0.545  0.0931  0.0821  0.1953
17235W        W33496  16.047   8.844   4.934  0.2322 -0.3750  0.1785
17236W        W33497   4.613  17.525  15.600  0.0019  0.0839  0.0498
17237W        W33498  13.823   1.354   4.480 -0.2412 -0.0710  0.0111
17238W        W33499  15.140   7.035   0.871 -0.2266 -0.0854 -0.2918
17239W        W33500  14.606   8.302  13.914 -0.0015  0.0327  0.1460
17240W        W33501   3.395  16.980   1.086 -0.2702 -0.0936  0.3590
17241W        W33502  11.778   9.902  13.933  0.2750  0.2068  0.0320
17242W        W33503   4.963   5.232   3.752  0.1008  0.0928  0.1451
17243W        W33504  14.421   0.612   1.818 -0.0934  0.0149  0.1457
17244W        W33505  15.562   2.444   2.230  0.1190  0.2715 -0.2116
17245W        W33506  13.890  18.784   2.487 -0.0973 -0.1533 -0.0055
17246W        W33507  16.671  15.962   0.707 -0.1247  0.1021 -0.0842
17247W        W33508  12.203   9.758  13.721  0.0592  0.1028 -0.0999
17248W        W33509  14.608  12.182  12.412 -0.2580  0.0722 -0.0297
17249W        W33510  12.608  16.513   1.561  0.0472  0.1077  0.0885
17250W        W33511   0.019   3.180  14.468 -0.1329 -0.0106 -0.1293
17251W        W33512  10.792  11.478  13.400  0.1613  0.2009  0.2669
17252W        W33513  14.454  12.816   0.648 -0.2213 -0.4368  0.1953
17253W        W33514   8.761  17.517  14.111  0.0542 -0.0248 -0.2796
17254W        W33515   7.093  15.961  14.802 -0.3316 -0.1772  0.2251
17255W        W33516   7.330   4.768  12.950  0.1642 -0.1076  0.1584
17256W        W33517  13.984   6.216   3.162  0.2327  0.0234 -0.0222
17257W        W33518   8.078   8.682   2.603  0.1644  0.1150  0.1456
17258W        W33519  15.875   2.090   9.742 -0.0217 -0.2052 -0.0802
17259W        W33520  13.489  14.563  14.362  0.1628  0.0048 -0.0863
17260W        W33521  15.680  10.063  13.329 -0.0517 -0.1407 -0.0567
17261W        W33522  17.527  10.741   4.323 -0.1010  0.2466  0.3340
17262W        W33523  13.726  18.206  12.921 -0.0197  0.1131 -0.0505
17263W        W33524   1.026   2.181  11.821 -0.1707 -0.1320 -0.1622
17264W        W33525   7.706  13.016  15.522 -0.0586  0.1763 -0.1144
17265W        W33526  18.150  10.242   3.905 -0.0444  0.0226  0.3076
17266W        W33527   4.808   3.423  12.446 -0.4368  0.1110 -0.1167
17267W        W33528   7.817  17.315   4.532 -0.0797 -0.1189 -0.3158
17268W        W33529  17.929  10.513  14.438  0.0886  0.1439 -0.0570
17269W        W33530  13.862   1.315  13.124 -0.1514 -0.2190 -0.0401
17270W        W33531   2.074  13.546  13.164 -0.1074 -0.0165 -0.1788
17271W        W33532   1.722   3.278   1.521 -0.0828 -0.1748  0.1805
17272W        W33533  16.055  11.431   3.746  0.0446  0.1569  0.3466
17273W        W33534  12.733   4.357  15.032  0.3663 -0.3268  0.1544
17274W        W33535  14.150   9.926  13.787 -0.1408 -0.4294 -0.0596
17275W        W33536  16.222  10.240   2.028  0.1027  0.1648  0.1901
17276W        W33537   3.617   1.905  12.175  0.1515 -0.6590  0.3467
17277W        W33538  12.265   1.966  13.655  0.0492  0.1413  0.0368
17278W        W33539   5.314   3.360   2.370  0.2485  0.0642  0.0060
17279W        W33540   9.928   7.385  14.517 -0.2176 -0.2247  0.1979
17280W        W33541  17.062   1.709  10.175 -0.1100 -0.0856  0.2044
17281W        W33542  14.093   3.639   3.435  0.2189  0.4195  0.2944
17282W        W33543   9.776   2.458   3.497  0.0391  0.0028  0.0353
17283W        W33544   8.285   2.785   2.731 -0.2623 -0.0781  0.1130
17284W        W33545  15.310   7.465   1.606 -0.0839 -0.2259 -0.1950
17285W        W33546  18.496  11.543  14.587 -0.3528  0.0049  0.1266
17286W        W33547  17.983  11.324  14.885 -0.0962 -0.0217  0.1096
17287W        W33548   2.129  18.338  13.203  0.0962  0.1375  0.3931
17288W        W33549   7.195   5.389  12.633  0.1873 -0.0608 -0.4326
17289W        W33550   3.575   7.356  14.289 -0.1054 -0.1440 -0.2660
17290W        W33551   2.654   4.859   1.498  0.1414 -0.0908  0.1114
17291W        W33552   7.743  13.525   1.074  0.2827  0.1221  0.0132
17292W        W33553   5.151   0.523   1.816  0.0622 -0.2992 -0.0804
17293W        W33554  13.511  17.704  12.906  0.1490 -0.0942  0.2612
17294W        W33555  13.905  13.942  12.492  0.2149  0.0349  0.2456
17295W        W33556   0.462   2.514  15.370 -0.1520  0.1596  0.0807
17296W        W33557  17.848   7.168  12.810  0.3651  0.4939  0.2169
17297W        W33558  15.030  13.525  13.791  0.0668  0.2729  0.0377
17298W        W33559   6.479  12.952  11.311  0.2434 -0.6363  0.0571
17299W        W33560  16.394   2.191   2.684  0.2497 -0.2288 -0.1873
17300W        W33561  14.277  13.835  13.033 -0.1288 -0.0843 -0.1856
17301W        W33562   5.703   1.429   4.679 -0.0042  0.0064 -0.0920
17302W        W33563   1.494   0.274  14.629 -0.2210 -0.4214  0.1051
17303W        W33564   2.054   4.298  14.730 -0.1508  0.2869  0.3729
17304W        W33565  14.453   4.174   0.713 -0.3983  0.5054 -0.1629
17305W        W33566   4.320   4.744  12.812 -0.0926  0.0392  0.1882
17306W        W33567   8.544  12.407   0.975  0.1304  0.0199  0.0848
17307W        W33568   2.061   0.256  12.331 -0.4356 -0.1345  0.1100
17308W        W33569  18.262   1.789   1.427  0.1368  0.3336  0.0994
17309W        W33570  15.052  17.562   2.362  0.1868  0.1428  0.1484
17310W        W33571   4.137   9.904   0.984  0.1538  0.0793 -0.1059
17311W        W33572  12.465   5.237   1.091  0.1269 -0.0152  0.0410
17312W        W33573  10.710   3.886   2.865 -0.2520 -0.3156  0.2206
17313W        W33574   0.193   4.658  13.917  0.0705 -0.0574  0.4633
17314W        W33575   2.551   5.769   1.785  0.0502  0.1705  0.1102
17315W        W33576  13.999  18.512  13.184  0.0339  0.2443  0.2165
17316W        W33577  16.458  17.861  12.969  0.1798 -0.2308 -0.1106
17317W        W33578  12.611  14.662  14.416 -0.0520  0.0489  0.2574
17318W        W33579  10.623   6.221  14.126 -0.1673  0.1646 -0.0567
17319W        W33580   9.469  14.008   1.548 -0.1272 -0.0415  0.2029
17320W        W33581   5.291  17.783  14.133  0.0721  0.0507 -0.0791
17321W        W33582   9.968  12.799  15.442 -0.1292 -0.1357 -0.0699
17322W        W33583  15.164  14.742  13.072 -0.0155  0.1130 -0.2509
17323W        W33584  14.611   1.238   3.403 -0.1362 -0.0983 -0.2749
17324W        W33585   9.960  14.511  12.539 -0.0945  0.0913  0.0964
17325W        W33586  17.481   1.966  11.708 -0.1773 -0.4432  0.0643
17326W        W33587   5.206   5.493   2.992 -0.3013  0.1559 -0.0753
17327W        W33588   0.161   3.794  11.718 -0.1861 -0.2456 -0.1355
17328W        W33589  18.027   9.494   3.528 -0.0481  0.1658 -0.0516
17329W        W33590   3.433  17.071  13.063  0.0566  0.0343 -0.0896
17330W        W33591  10.037   3.540   1.130 -0.0070 -0.1180 -0.1125
17331W        W33592  18.209   1.463  15.390 -0.0343 -0.0769 -0.1008
17332W        W33593  18.062  14.371  15.361 -0.1702  0.0759 -0.2115
17333W        W33594   1.499   0.317  12.867 -0.2458  0.0758 -0.2709
17334W        W33595  16.968   5.792  13.653  0.0111  0.0519  0.0719
17335W        W33596   8.679   0.362  14.845  0.1059  0.3516  0.0396
17336W        W33597   8.712   6.923   3.888 -0.0125 -0.2346  0.0740
17337W        W33598  10.133   2.993   1.118  0.0320  0.1806 -0.0874
17338W        W33599   8.104  13.180   0.947  0.2453 -0.2627  0.0574
17339W        W33600   4.122   7.307  14.245  0.0620 -0.2834  0.1932
17340W        W33601   0.021  11.490   3.757 -0.0871 -0.2921  0.0827
17341W        W33602   7.274  14.969   1.878 -0.3484  0.1448  0.2723
17342W        W33603   5.505  15.733   2.746 -0.0955  0.0204 -0.2739
17343W        W33604  10.245  13.691   3.433 -0.2157  0.1063  0.1159
17344W        W33605  13.172  15.227  13.912 -0.0848  0.1630  0.2087
17345W        W33606   0.631   6.939  11.694 -0.0974 -0.1128 -0.1227
17346W        W33607  15.726   2.475  13.754 -0.0426  0.1498  0.0855
17347W        W33608   3.942   0.775   5.293 -0.1397  0.0557 -0.1671
17348W        W33609   2.717  15.642   5.232  0.1278 -0.1767  0.1114
17349W        W33610   8.050   9.334   1.820 -0.1213  0.0959  0.2653
17350W        W33611  11.926   2.867  14.390 -0.1312  0.0849  0.2658
17351W        W33612   6.831   8.642  13.608  0.1230 -0.0161 -0.2332
17352W        W33613  15.485   2.844  13.041 -0.2107 -0.0668  0.0471
17353W        W33614   2.517  18.098   1.081 -0.1625 -0.1816  0.1268
17354W        W33615   1.915   4.142   3.318 -0.0265 -0.1772  0.1033
17355W        W33616  10.368  15.296  11.919  0.5054 -0.0263 -0.1540
17356W        W33617  15.047   5.498   4.239 -0.2013  0.3152 -0.0908
17357W        W33618   3.318   5.359  13.920 -0.2302  0.2733  0.3401
17358W        W33619   1.929  16.915  11.670 -0.2186 -0.0447 -0.1042
17359W        W33620   6.730   4.372  13.052 -0.2842 -0.1201  0.0273
17360W        W33621   8.193  17.125   0.590  0.0802 -0.2143 -0.1464
17361W        W33622   0.318  16.533   1.224  0.1988 -0.0687  0.0529
17362W        W33623   2.564  18.756  15.561 -0.0688 -0.0252 -0.0747
17363W        W33624   9.701   6.829   2.934 -0.1098  0.2715  0.0580
17364W        W33625  16.136  17.455  12.093 -0.3372  0.1762 -0.0664
17365W        W33626  15.052  18.158   0.857 -0.1020  0.1136 -0.2178
17366W        W33627   9.445  14.498  10.924 -0.0976 -0.3311  0.1220
17367W        W33628  16.174   5.821   1.127  0.2319  0.0390 -0.0665
17368W        W33629  12.084  11.491   0.471  0.3815 -0.1134  0.0079
17369W        W33630   0.939  12.063  10.649 -0.0706 -0.1526  0.0385
17370W        W33631  14.664   9.393  14.561 -0.0177 -0.0587 -0.2019
17371W        W33632   9.794   1.540  11.875  0.2472  0.0826  0.0341
17372W        W33633  14.716  14.526  10.573  0.0098 -0.1200 -0.1509
17373W        W33634  12.714  15.913  12.924 -0.0316 -0.0306  0.0653
17374W        W33635   7.152   4.504   3.641  0.1563 -0.2246  0.1614
17375W        W33636   6.144   2.648  15.585 -0.1471 -0.1726  0.2456
17376W        W33637  17.156  15.566   1.770  0.0008  0.0541  0.1465
17377W        W33638   0.712   2.086   4.137  0.1920  0.2930  0.1983
17378W        W33639  18.201  13.391   0.829  0.1005  0.0916  0.3025
17379W        W33640   8.145  14.541   0.942  0.0850 -0.3179 -0.0525
17380W        W33641   7.563   0.117   5.345  0.0891  0.0275  0.3074
17381W        W33642   1.003   5.154   4.718 -0.1218 -0.2852  0.0459
17382W        W33643  17.946   5.941  12.235  0.0422 -0.0779 -0.1817
17383W        W33644   0.873  15.505  12.808  0.0946 -0.1472  0.0700
17384W        W33645   6.931  17.525  13.862 -0.1155  0.0291  0.3088
17385W        W33646  10.466  12.047  10.878  0.1441  0.2075 -0.0477
17386W        W33647  17.154   2.863  12.606  0.1396  0.2512 -0.1585
17387W        W33648  13.380  13.875  12.739 -0.3657 -0.0230  0.1795
17388W        W33649   2.864  16.560  15.471  0.3073  0.0115  0.1968
17389W        W33650   1.403  17.511   0.560 -0.1591  0.1575 -0.0696
17390W        W33651  11.607   9.729  15.379  0.2380  0.4778 -0.1602
17391W        W33652  12.101  13.878   0.578 -0.0147 -0.0799 -0.0342
17392W        W33653   8.778   5.199   1.615  0.1287  0.0438 -0.3077
17393W        W33654  13.469  13.075  12.530 -0.0459 -0.0337  0.0791
17394W        W33655  13.682   7.492   2.540  0.2162  0.0729  0.2884
17395W        W33656   0.604   5.589  13.934  0.0719  0.1343  0.4471
17396W        W33657   8.861  11.858   4.396 -0.1098 -0.1326  0.1387
17397W        W33658  15.120   7.664   3.326  0.3570  0.1154 -0.1711
17398W        W33659  14.331   0.051  15.491  0.0683 -0.0390 -0.2756
17399W        W33660   6.873   2.772  13.975  0.0000 -0.2332 -0.1408
17400W        W33661  18.108   4.318   2.965 -0.2605 -0.1771  0.2675
17401W        W33662  13.308  10.502  11.624  0.0430  0.0175  0.0092
17402W        W33663  14.966   1.538   1.771 -0.0446 -0.0398 -0.0150
17403W        W33664   7.462  12.821  13.842 -0.2532 -0.1118  0.2976
17404W        W33665   1.884  12.001  14.616 -0.0026 -0.1872 -0.0011
17405W        W33666   8.257   8.827   1.860  0.0988  0.0735  0.0369
17406W        W33667   0.401  13.130  13.674  0.0026 -0.0164  0.1593
17407W        W33668  17.477   8.612  13.238  0.0013 -0.1339 -0.1755
17408W        W33669   0.867  11.394  14.309 -0.2840 -0.1611 -0.2583
17409W        W33670   7.839  10.277  10.486  0.1422  0.3335 -0.1594
17410W        W33671  16.713  14.928  13.293  0.0968  0.0003  0.0050
17411W        W33672   9.287   8.866  14.096 -0.2237  0.1381  0.2765
17412W        W33673   2.977  17.233   3.259  0.3034  0.0862 -0.2096
17413W        W33674  10.971   5.779   0.221 -0.2336  0.0965  0.0534
17414W        W33675  12.538  14.168  15.387  0.1270 -0.0914 -0.2545
17415W        W33676   1.294   2.444  13.283 -0.1051 -0.1504  0.0015
17416W        W33677  12.368  16.528   2.020 -0.1558 -0.1798 -0.0598
17417W        W33678  12.179   0.221   1.956 -0.0799 -0.0173  0.0532
17418W        W33679  14.668  16.288   1.673 -0.0201 -0.1142  0.0413
17419W        W33680   6.620   1.364  13.921 -0.1707 -0.1074 -0.0373
17420W        W33681  14.358   1.444  15.403 -0.1434  0.1568 -0.2672
17421W        W33682  10.202   9.000  12.748 -0.2090  0.3364 -0.0378
17422W        W33683  17.293   0.242   2.358 -0.1581  0.0440 -0.0114
17423W        W33684   0.542   2.018   5.107  0.0436 -0.1342  0.2802
17424W        W33685   1.094   3.131   0.042  0.1720  0.0537  0.2985
17425W        W33686  18.702  17.040   0.619 -0.2463  0.0846 -0.3168
17426W        W33687  13.757   5.621  11.578  0.0819  0.2362  0.0451
17427W        W33688   3.073  13.799   4.060 -0.1092 -0.1194  0.2722
17428W        W33689   9.191   5.824   3.639  0.3442  0.3545 -0.1179
17429W        W33690  17.093  14.218  12.172 -0.3232 -0.3981  0.1974
17430W        W33691   9.895  11.358   5.057 -0.1386  0.3357 -0.0657
17431W        W33692   6.237   6.769   5.622 -0.1821 -0.2323 -0.1415
17432W        W33693   8.206   1.093  13.809 -0.1703 -0.0328 -0.0661
17433W        W33694   8.211  11.156  11.272  0.0023 -0.0642  0.0270
17434W        W33695   0.834   9.486   5.752  0.1351  0.2076 -0.1744
17435W        W33696  16.767   6.628   5.671 -0.2260  0.1139 -0.2028
17436W        W33697   6.809  13.756   3.934  0.1516  0.0016  0.1277
17437W        W33698   2.020   9.324  13.174  0.0018 -0.1226  0.3695
17438W        W33699   4.740   9.998  11.896  0.0836  0.1175 -0.1280
17439W        W33700   7.965   7.639   2.440 -0.0357  0.2979 -0.2640
17440W        W33701  10.772   7.340  14.930 -0.1152  0.0492  0.0684
17441W        W33702   3.513   0.468  11.974 -0.0318 -0.1948 -0.1384
17442W        W33703  10.896   3.344   4.838 -0.1551 -0.1123 -0.1653
17443W        W33704   2.443  17.295   3.168  0.1187  0.0660 -0.1078
17444W        W33705  11.004   8.643  14.918  0.3803 -0.0774  0.0678
17445W        W33706  18.168  12.200   3.279 -0.1519  0.0625 -0.4220
17446W        W33707  15.611   6.031  13.768 -0.0679 -0.2125  0.0125
17447W        W33708  15.398   8.044   4.172 -0.2406  0.0962  0.0248
17448W        W33709   2.192  16.450   2.617 -0.0003 -0.0830  0.2058
17449W        W33710  11.632  17.419  13.842  0.1367 -0.0616 -0.0379
17450W        W33711   0.551  15.040  14.383  0.0528  0.2107 -0.1193
17451W        W33712   9.344  16.237  11.810  0.2144  0.2670 -0.1682
17452W        W33713   2.579   9.168   1.670  0.3705  0.0645 -0.4380
17453W        W33714  14.882   6.293  15.014  0.4767  0.1069  0.3432
17454W        W33715  12.218   4.320  13.999  0.2007 -0.6575 -0.0810
17455W        W33716   3.305  12.451  10.619 -0.0426 -0.0719  0.1456
17456W        W33717   4.426   4.590   3.961  0.1286  0.1873  0.0420
17457W        W33718  17.640  15.469   1.970  0.2593  0.0173 -0.2568
17458W        W33719   8.399   4.029   5.860  0.1907 -0.2038  0.1242
17459W        W33720  12.130   2.114   4.795  0.1109 -0.3507 -0.1767
17460W        W33721   0.247  13.979   0.567 -0.2984 -0.0893  0.3258
17461W        W33722  11.544   7.428  11.221  0.0281 -0.2519  0.3582
17462W        W33723   8.465  13.457  12.222  0.4514  0.1143 -0.0658
17463W        W33724  16.315   1.760  13.381  0.0197  0.0595  0.0601
17464W        W33725   1.666  16.292   4.634 -0.3837 -0.0111  0.0192
17465W        W33726   6.251  18.768  12.747  0.2357 -0.3957 -0.1515
17466W        W33727  17.328  16.353  12.971 -0.3766  0.2172  0.2817
17467W        W33728   3.848   1.618   2.144 -0.0237  0.2990  0.0646
17468W        W33729  12.871   7.037  13.626  0.0533 -0.4751 -0.0690
17469W        W33730   9.564  14.706  13.579  0.1464 -0.0270 -0.1295
17470W        W33731  15.878  17.036  13.904 -0.2160  0.1168  0.1637
17471W        W33732   9.810   8.278   1.178 -0.1136 -0.0940 -0.2438
17472W        W33733   5.224   6.612   5.087 -0.1695 -0.1781  0.5485
17473W        W33734   1.129  16.570  12.699 -0.0553  0.0308  0.2977
17474W        W33735  14.571   9.969   4.324 -0.3268 -0.1076  0.3438
17475W        W33736   0.932   7.387  12.901  0.1987 -0.0626 -0.2346
17476W        W33737   0.527   5.965   3.091 -0.0196 -0.1979  0.0021
17477W        W33738   1.474   8.365  13.736 -0.2702  0.3081 -0.1001
17478W        W33739   4.848  17.028  14.113  0.2645  0.1253  0.1772
17479W        W33740  17.553  15.922  13.104 -0.3116  0.0506  0.0196
17480W        W33741   4.773  15.844   0.611 -0.1351 -0.2318  0.1553
17481W        W33742  16.161   7.376   3.390 -0.0588  0.1664 -0.0453
17482W        W33743   0.896   4.437   1.532  0.0751  0.0977 -0.2276
17483W        W33744   2.357  12.266   0.106  0.0795 -0.1096  0.1051
17484W        W33745   0.677   4.689   2.447  0.1000  0.0301 -0.0720
17485W        W33746   1.274  15.575   4.908  0.0077  0.2117  0.1429
17486W        W33747  16.717  14.040  13.031 -0.1071 -0.1460 -0.2279
17487W        W33748  14.537   9.446   1.667 -0.0860  0.1870 -0.0207
17488W        W33749   9.139   0.353  13.699  0.1067  0.0067  0.2054
17489W        W33750   1.481  14.568   9.406 -0.1304  0.1064  0.0332
17490W        W33751  17.099   4.027   2.550  0.1054 -0.0645 -0.1709
17491W        W33752  17.917   8.438  13.296  0.0483  0.0460  0.2767
17492W        W33753   0.276  10.019  14.029  0.1829  0.1271  0.0156
17493W        W33754   8.804   5.415  13.736  0.0111  0.2459  0.4147
17494W        W33755   3.195  18.749  13.807  0.1245 -0.0840 -0.2060
17495W        W33756   2.143  10.336   4.835  0.1294 -0.1736 -0.1586
17496W        W33757  18.460   9.111  11.330  0.3454 -0.0603  0.0088
17497W        W33758  14.083   5.245  13.504 -0.2954 -0.0183  0.0480
17498W        W33759   5.460   1.630   2.260  0.0307  0.0432  0.0185
17499W        W33760   5.247  14.637   3.676 -0.0769 -0.2055 -0.1824
17500W        W33761  18.201  11.114   2.324 -0.0283 -0.4018 -0.2191
17501W        W33762   8.683  17.963   3.586 -0.0198 -0.0926 -0.1753
17502W        W33763   9.615  16.719   1.477  0.2592 -0.3268 -0.1933
17503W        W33764  16.256  11.546  14.735 -0.0628  0.0562  0.2866
17504W        W33765   9.399  10.711   4.383 -0.0430 -0.2642  0.0984
17505W        W33766   8.505   1.493   4.624  0.0972 -0.0783  0.0775
17506W        W33767  18.613  18.762   3.482 -0.1812 -0.1005 -0.3048
17507W        W33768  12.110  15.920   4.005  0.2752  0.2035  0.0174
17508W        W33769  13.670  10.683  11.941  0.0147 -0.2278  0.3689
17509W        W33770  18.810  16.500  12.627  0.1855 -0.0363 -0.1854
17510W        W33771  13.860  14.798  12.651 -0.1515 -0.0011 -0.0738
17511W        W33772   0.915  11.085  12.916 -0.2820  0.0214  0.1768
17512W        W33773   6.080   0.154  14.935 -0.1489  0.2440  0.1164
17513W        W33774   2.549   6.309   0.318  0.1055 -0.2703  0.0226
17514W        W33775   9.410   4.157   3.109  0.4294  0.1866 -0.3217
17515W        W33776   3.372   1.400   4.017  0.0234  0.1793 -0.1037
17516W        W33777   1.298   1.661   3.127 -0.0327 -0.3187 -0.0583
17517W        W33778   3.997  17.298   3.956 -0.0142  0.2243  0.1854
17518W        W33779   7.890   0.782  10.866 -0.1844  0.3012  0.0262
17519W        W33780  14.311   4.312   5.520 -0.2210  0.1316  0.3413
17520W        W33781   6.635  14.403   4.565 -0.0522  0.2841  0.0199
17521W        W33782   5.114  16.968   3.780 -0.2800  0.1670 -0.1418
17522W        W33783   8.523  10.520  12.940  0.0446  0.2193  0.1047
17523W        W33784   6.159   2.853   2.217  0.2748  0.0763  0.0863
17524W        W33785  11.758  17.904  12.739 -0.4817 -0.0290 -0.1482
17525W        W33786   3.839  14.677   1.253  0.1710  0.1141 -0.0879
17526W        W33787  12.888   7.062   2.697  0.2006 -0.2823 -0.0189
17527W        W33788  10.928  13.764   2.073 -0.2271 -0.0547  0.1518
17528W        W33789   2.450   2.904  11.449  0.1851 -0.1177  0.2984
17529W        W33790   4.057   8.130   4.813 -0.0757  0.0670  0.3625
17530W        W33791  11.456  16.341   0.169  0.2467  0.3510 -0.3337
17531W        W33792   8.382  18.039  13.335  0.1071  0.3689  0.2603
17532W        W33793  12.535  15.045  12.262 -0.0015 -0.0048  0.1042
17533W        W33794  14.299  13.229   3.235  0.3258 -0.1427  0.0199
17534W        W33795   9.913  18.455   0.712  0.1807  0.0571  0.4434
17535W        W33796   0.827  14.903   3.054 -0.2292 -0.0260  0.2356
17536W        W33797  13.756  15.611  10.536  0.2026  0.0693  0.2386
17537W        W33798  18.781  16.580  13.105  0.1176 -0.0535 -0.0279
17538W        W33799   6.743  15.556   3.809  0.2283  0.0824 -0.0315
17539W        W33800   0.017  15.389  13.795  0.1661 -0.1382  0.2266
17540W        W33801   3.226  18.031  13.013 -0.2634  0.0008  0.1479
17541W        W33802   4.856  14.392  11.201 -0.1404  0.1027  0.2074
17542W        W33803   0.895  13.708  10.725 -0.2090  0.2105  0.2127
17543W        W33804   9.335  13.759   2.378  0.0158 -0.1192 -0.2781
17544W        W33805   7.522   4.738   3.493 -0.2518 -0.1942  0.2979
17545W        W33806   5.878  12.553  12.770  0.0189 -0.0110  0.1154
17546W        W33807   1.168   8.177  11.803 -0.0324 -0.1876  0.1486
17547W        W33808   8.574  11.667   5.441  0.2390  0.0784 -0.1596
17548W        W33809   6.735   5.817  13.549 -0.1967 -0.1579 -0.2040
17549W        W33810   9.123  16.191   1.837  0.0436  0.1232 -0.1636
17550W        W33811   8.134   8.477   3.701 -0.0160  0.1849 -0.0620
17551W        W33812   3.264  11.227   4.852 -0.2547  0.1962 -0.0131
17552W        W33813  10.437  17.796   4.823 -0.1062  0.0441 -0.0601
17553W        W33814  18.689   5.807   0.696  0.0549 -0.1865 -0.1661
17554W        W33815   1.393  14.840   4.105  0.2688  0.1240  0.0286
17555W        W33816   9.159  16.182  13.224  0.0486  0.1631 -0.0701
17556W        W33817   9.408   6.142   4.454  0.6961  0.0143  0.0181
17557W        W33818  13.008   8.402   1.684 -0.1595 -0.0461 -0.0148
17558W        W33819  14.582   7.194   0.482  0.1035  0.1443  0.0117
17559W        W33820  10.245   4.033  15.104 -0.1637 -0.3167  0.0505
17560W        W33821  17.637  14.025  12.480 -0.2688 -0.1324  0.0727
17561W        W33822   1.936  15.688  14.170  0.2537 -0.2293 -0.1662
17562W        W33823   4.289  16.845   0.888  0.0142 -0.2999  0.1234
17563W        W33824   3.831   8.077   1.126  0.2293 -0.0084  0.1572
17564W        W33825  14.638  14.749  13.145  0.0843  0.3590 -0.0640
17565W        W33826  18.781  15.411   4.709 -0.1536 -0.0288 -0.1713
17566W        W33827   4.821  11.866  14.536  0.2397  0.0140 -0.0391
17567W        W33828   4.044  10.766   1.794  0.1650  0.3123  0.0097
17568W        W33829  10.906  12.010  15.256 -0.0766  0.0130 -0.0289
17569W        W33830   1.742  11.296  14.899  0.2134  0.4389 -0.1630
17570W        W33831   6.974   0.667  15.194 -0.0161 -0.5098 -0.3811
17571W        W33832   3.275   5.006  13.545  0.0669  0.4113 -0.0348
17572W        W33833  15.679  15.868  12.142  0.0191  0.1486  0.0435
17573W        W33834  13.867  15.295  12.567  0.3452 -0.1488 -0.4010
17574W        W33835   7.402   7.664   3.060  0.1370 -0.2991  0.6452
17575W        W33836  17.852   4.543   2.041 -0.3812  0.0746 -0.1719
17576W        W33837  13.198   3.685  15.314 -0.1002  0.0207 -0.1124
17577W        W33838  17.519  12.363  14.196  0.1269 -0.1430 -0.1759
17578W        W33839   3.020   1.657  13.210 -0.1506  0.1492  0.0624
17579W        W33840  12.978  11.107  11.409 -0.0285 -0.1794 -0.0846
17580W        W33841  13.243  17.573  12.042 -0.1101 -0.1539 -0.0303
17581W        W33842  14.542   1.930  12.945  0.2442 -0.0562 -0.2599
17582W        W33843   9.075  10.702  10.748 -0.2423  0.0357 -0.1278
17583W        W33844   6.784  13.624   1.798  0.0659  0.1726  0.0410
17584W        W33845  13.940   0.717  12.480 -0.0854  0.1966  0.0775
17585W        W33846   8.698  14.404  13.207 -0.1715 -0.1238 -0.1320
17586W        W33847  16.863   5.349   2.670 -0.2195  0.0885  0.1136
17587W        W33848   8.387   2.519   4.547 -0.1058 -0.1550  0.1084
17588W        W33849  16.366  15.145  15.444 -0.0438  0.0887 -0.1206
17589W        W33850   2.499   0.589  14.770  0.1930  0.0060  0.0939
17590W        W33851   2.955  12.631   2.822  0.0747 -0.0822 -0.3147
17591W        W33852  12.219   3.600   5.028  0.3147 -0.0413  0.0570
17592W        W33853  12.489   1.606   1.382 -0.1124 -0.0514  0.0487
17593W        W33854   8.053   8.449  13.801 -0.3044 -0.1226  0.2764
17594W        W33855  14.900  14.735   3.771 -0.1171  0.1274 -0.0745
17595W        W33856  15.632  14.251   1.181  0.5168  0.3889 -0.1334
17596W        W33857   7.154   7.617  15.550 -0.1671 -0.2384  0.0150
17597W        W33858  13.786   1.576   2.198 -0.0582 -0.2545 -0.0447
17598W        W33859   0.112  17.528   2.577 -0.3063 -0.0268 -0.1429
17599W        W33860   0.719   5.901   2.281 -0.1980 -0.2294 -0.1660
17600W        W33861   9.682   2.238   0.385 -0.0435 -0.3037 -0.1538
17601W        W33862   3.111   1.082  12.614  0.0188 -0.2830 -0.1302
17602W        W33863   4.736  15.612   1.425  0.1185  0.2884 -0.2958
17603W        W33864  17.486  10.828  14.351 -0.0701  0.0291  0.0045
17604W        W33865  15.937   3.791  14.236 -0.1431 -0.2982 -0.4574
17605W        W33866   8.274   8.582   4.204 -0.1445 -0.0165  0.3065
17606W        W33867   1.307  11.612   0.216  0.0769  0.1362  0.2450
17607W        W33868   8.648   2.288  15.232 -0.0171 -0.0220  0.3707
17608W        W33869   0.565   5.477   5.440  0.3992  0.0300  0.0812
17609W        W33870  18.533   7.645  10.515 -0.0326 -0.0492  0.1728
17610W        W33871   0.007   0.950   3.053 -0.0225 -0.0579 -0.1518
17611W        W33872   3.030   9.729   0.799 -0.2599 -0.4475  0.1231
17612W        W33873   8.873  12.060   4.901  0.0435  0.1684 -0.2181
17613W        W33874   7.389  15.136  14.807 -0.0026 -0.3391 -0.0330
17614W        W33875   2.851  18.706   2.843 -0.2492  0.0913  0.0943
17615W        W33876   9.709  10.181   0.156  0.1251 -0.2262 -0.0283
17616W        W33877  17.258   9.534  12.915 -0.2258  0.1991 -0.3576
17617W        W33878   0.217   9.321  13.337  0.0538  0.0876 -0.2019
17618W        W33879   9.382  18.268   5.185  0.0351  0.1491  0.2908
17619W        W33880   8.242   3.619  15.212  0.1345  0.2574  0.2098
17620W        W33881   9.184   8.288  11.774 -0.1608 -0.0228 -0.1884
17621W        W33882   0.270  13.452   2.739  0.2039  0.0755 -0.0039
17622W        W33883   0.489  10.510  14.020  0.0606 -0.0289 -0.3416
17623W        W33884   7.375  18.330   1.850 -0.1806 -0.1798  0.2248
17624W        W33885  14.569  14.293  13.824  0.2081 -0.1586 -0.1378
17625W        W33886  12.885   0.993  11.230  0.1729 -0.0416  0.1280
17626W        W33887  16.511  18.137  13.954 -0.0080 -0.0368  0.2526
17627W        W33888   6.675  12.248  15.378  0.0325  0.1014 -0.1699
17628W        W33889   7.895   6.258   1.366  0.3247 -0.0431 -0.3630
17629W        W33890  15.753   1.312  15.290 -0.0473  0.3972  0.1479
17630W        W33891   3.906   1.190  13.248  0.0386  0.0015 -0.0088
17631W        W33892   5.895  14.904   3.047 -0.1820 -0.2557  0.0124
17632W        W33893  13.708  12.342  10.779 -0.0471  0.1162  0.1682
17633W        W33894  12.814  15.044  11.675 -0.1850 -0.1473 -0.0465
17634W        W33895  14.317   8.015  12.007 -0.1742 -0.1368  0.1754
17635W        W33896  10.649  13.511   1.323 -0.2011 -0.2496 -0.0268
17636W        W33897   5.962   8.874   2.963 -0.1998 -0.0624  0.2928
17637W        W33898   4.510  10.913  14.830 -0.0054 -0.0887 -0.2120
17638W        W33899   2.071   6.714   3.078 -0.0797  0.2293  0.0324
17639W        W33900   7.029   6.183   5.458 -0.1464 -0.0629  0.0873
17640W        W33901   4.438   9.240   1.292 -0.0541  0.0258 -0.1908
17641W        W33902   0.864   6.467   2.328 -0.0856  0.1888  0.0955
17642W        W33903   9.523   9.314   0.168 -0.1584 -0.1270 -0.5159
17643W        W33904  15.583   2.033   3.687  0.0066  0.4764 -0.1421
17644W        W33905   2.961  12.788   4.627  0.0128 -0.0057  0.1324
17645W        W33906   7.128  16.465   0.816 -0.0926 -0.1839 -0.0648
17646W        W33907  15.033  14.835   0.906 -0.3084 -0.0368  0.0465
17647W        W33908   4.389  10.460  14.581  0.0608  0.0297  0.0250
17648W        W33909   3.160  12.019   4.152 -0.2943 -0.0677 -0.2019
17649W        W33910   1.372   0.121  13.309 -0.0896  0.0469  0.0255
17650W        W33911   0.603   2.245   1.655  0.0020 -0.0279  0.0961
17651W        W33912  11.787   2.428  14.337  0.0482  0.3952  0.3139
17652W        W33913  15.622   0.967   2.660 -0.0485 -0.2397 -0.0914
17653W        W33914  15.148   7.062   4.933 -0.1209  0.1431  0.2787
17654W        W33915  18.470  15.206  15.368  0.1127  0.0176  0.2751
17655W        W33916  17.788  10.334   2.936  0.0573  0.2723 -0.4190
17656W        W33917   0.440  12.607   0.140 -0.2495 -0.0677 -0.2439
17657W        W33918   1.512   9.958   5.423  0.2226 -0.0478 -0.0945
17658W        W33919  10.857   8.622   4.804 -0.0929 -0.3318 -0.0084
17659W        W33920   3.959  14.069  11.620 -0.2777  0.1362  0.0453
17660W        W33921   8.344   2.625  14.651  0.1900 -0.1837 -0.1839
17661W        W33922  14.808  17.354   1.292 -0.4407 -0.1921  0.3311
17662W        W33923   2.491  13.786  14.434  0.2061  0.2137  0.1350
17663W        W33924   0.153  14.893  15.201  0.0230  0.3010  0.1610
17664W        W33925   8.240  13.921  11.097 -0.0966  0.1499  0.4369
17665W        W33926   9.158   7.749  12.494  0.3424 -0.2524  0.2252
17666W        W33927  13.680   5.145  11.433 -0.0929  0.1360  0.4460
17667W        W33928   1.834   7.139   3.058 -0.1044  0.0661  0.1637
17668W        W33929  16.292  14.362   3.852 -0.0366  0.2770 -0.0452
17669W        W33930  15.914  12.779   2.891  0.1554 -0.0724  0.0588
17670W        W33931   3.755  14.162  13.911  0.0191  0.0834  0.0944
17671W        W33932   1.876   6.029   5.010 -0.1912 -0.0319 -0.1501
17672W        W33933  15.343  15.148   1.331  0.0441  0.4698  0.1348
17673W        W33934  17.225  14.042   4.465 -0.1472 -0.0598  0.2206
17674W        W33935   1.812   1.162  13.158  0.0111  0.0636 -0.0514
17675W        W33936  17.880  15.336   5.135  0.2250  0.1664 -0.0664
17676W        W33937  10.851   0.866  12.174 -0.1388 -0.3666 -0.1276
17677W        W33938   0.311   4.423  13.435 -0.3348 -0.2433  0.1039
17678W        W33939   2.302   3.900   2.428 -0.0707 -0.0693 -0.0733
17679W        W33940  18.414  17.310   4.412  0.0110  0.1572  0.0114
17680W        W33941  14.731   5.952   0.951 -0.2655 -0.0898  0.4977
17681W        W33942   5.427  12.476   1.950  0.0391 -0.0852 -0.2882
17682W        W33943  15.269   8.927   4.316 -0.0637 -0.2055 -0.1116
17683W        W33944  10.982  12.047   1.295 -0.1380  0.1775  0.1454
17684W        W33945   1.593   8.553   3.356 -0.1740 -0.3841 -0.1055
17685W        W33946   4.658   0.336  15.303 -0.1354  0.0345 -0.0563
17686W        W33947   3.480  11.759  12.389 -0.3166  0.0957  0.1230
17687W        W33948   5.530  13.482  11.999  0.3842 -0.1813  0.1281
17688W        W33949   8.319  18.642   0.837  0.0322  0.0922  0.2319
17689W        W33950  15.403  11.479   0.778 -0.3585 -0.0714 -0.2760
17690W        W33951  10.423  14.093   3.150  0.3144  0.0420  0.2354
17691W        W33952   3.051   9.310   3.812 -0.2116 -0.3443  0.1231
17692W        W33953   5.618  15.194   1.874 -0.1230  0.1281 -0.1558
17693W        W33954   7.774   0.707  12.144 -0.0526  0.1284  0.1362
17694W        W33955   7.921   5.678   5.024 -0.5109 -0.0073  0.0995
17695W        W33956   7.037   4.168  11.794  0.2334 -0.0842 -0.1173
17696W        W33957   6.961   8.267   4.159  0.2061  0.2211  0.1108
17697W        W33958  15.253  15.631   1.422 -0.4140  0.1590 -0.0010
17698W        W33959  16.750   6.040   1.355 -0.0188  0.1425  0.0693
17699W        W33960   6.663  12.281   5.443 -0.1972 -0.0517 -0.3449
17700W        W33961   0.816   7.251   2.776  0.0562  0.1430  0.1710
17701W        W33962  12.896   5.986   4.463 -0.0506 -0.3993 -0.1955
17702W        W33963  13.523  16.471  10.703 -0.0067  0.0565 -0.0033
17703W        W33964  15.099  16.201  15.254  0.1383  0.2733  0.3575
17704W        W33965  13.690  10.248   0.683 -0.1406 -0.0890 -0.1889
17705W        W33966   9.189   4.976   1.466 -0.0917 -0.0627  0.1213
17706W        W33967   3.954   1.230  15.356 -0.2047 -0.2649 -0.3259
17707W        W33968   2.371   3.629  12.535 -0.0918  0.0241  0.2769
17708W        W33969   2.393  15.590   2.363 -0.0051  0.0846 -0.5841
17709W        W33970   7.763   4.310   2.115  0.3353  0.2632  0.0387
17710W        W33971   9.976   9.585   4.915  0.3452  0.0770  0.3454
17711W        W33972  11.677   6.092   1.834 -0.2042 -0.1234 -0.0977
17712W        W33973   1.315   4.992  13.653  0.2103 -0.1955 -0.0535
17713W        W33974   8.919  13.356   0.049 -0.0343 -0.0388 -0.0748
17714W        W33975  10.977   0.590  15.043  0.0102 -0.3581  0.2825
17715W        W33976   7.089  14.329  15.189  0.0459 -0.1988  0.0660
17716W        W33977  15.976  17.606   3.006  0.2127 -0.2862 -0.0028
17717W        W33978   4.628  12.561   3.741 -0.0750 -0.2849  0.1267
17718W        W33979   3.268  18.758  10.314  0.0746  0.0826  0.0013
17719W        W33980   9.984   6.950   4.870 -0.2990 -0.0857  0.2453
17720W        W33981  13.399   2.150  11.291 -0.1710 -0.1373 -0.0672
17721W        W33982   9.585   5.400  14.346  0.4181 -0.1322 -0.0490
17722W        W33983  15.147   1.442   0.365  0.1945  0.1814  0.2214
17723W        W33984   3.301  15.807   2.349  0.0561  0.0716 -0.2740
17724W        W33985  13.946   3.150   0.362 -0.0404  0.1842  0.1341
17725W        W33986   5.549   4.643  11.965 -0.1262  0.2200  0.0847
17726W        W33987  16.218   0.964  13.033  0.0739 -0.1774  0.2641
17727W        W33988   3.654   7.299  11.030 -0.2017 -0.0356  0.1049
17728W        W33989   4.866  14.743  14.299 -0.1464 -0.2052  0.1448
17729W        W33990  17.176   7.085   2.198  0.0505  0.2086  0.3743
17730W        W33991  17.740   5.961   4.705  0.0764 -0.1091  0.0029
17731W        W33992  10.207   8.995   0.791 -0.1999  0.0920 -0.0947
17732W        W33993   8.102   2.502  14.063  0.0549  0.1694  0.0364
17733W        W33994  14.688  11.032   2.649 -0.1768 -0.1580 -0.4865
17734W        W33995   9.055   1.141  14.614  0.0880 -0.0276 -0.3823
17735W        W33996   0.483   1.721  14.734 -0.1606 -0.1140  0.3233
17736W        W33997  15.483   3.010   5.592 -0.0741 -0.2452  0.1468
17737W        W33998  18.722   6.050  13.591 -0.2067  0.1402  0.0024
17738W        W33999  11.065  17.089  13.399  0.0040 -0.0488 -0.0860
17739W        W34000   7.514   9.804   4.775 -0.0609 -0.2043 -0.2867
17740W        W34001   1.656  15.568   1.380 -0.1967  0.0941 -0.0765
17741W        W34002  18.805  16.206  13.448  0.2618  0.0873  0.2314
17742W        W34003  16.446   0.896   1.123  0.1384  0.0941 -0.2343
17743W        W34004  11.818  13.186  15.117 -0.0420 -0.0316 -0.2320
17744W        W34005  14.290   3.209  13.930  0.1239 -0.0459 -0.0790
17745W        W34006  11.688  14.243  15.542 -0.1046 -0.1899 -0.1560
17746W        W34007  18.219   3.871  11.173 -0.0184 -0.0038 -0.0420
17747W        W34008  12.880  12.944  12.513 -0.0488 -0.1741 -0.1446
17748W        W34009  10.143  12.793  14.053 -0.0490  0.1354  0.1362
17749W        W34010  10.444   3.877   6.079  0.0087  0.1813 -0.0822
17750W        W34011   4.813  11.242  11.239 -0.2217 -0.2142 -0.1912
17751W        W34012  10.241   6.821   2.982  0.4688 -0.1075 -0.0075
17752W        W34013   6.643   2.979   0.716 -0.0477 -0.4993 -0.3574
17753W        W34014   3.283  15.903  13.304 -0.1867 -0.3483  0.0508
17754W        W34015   6.530  11.607  12.610  0.0590 -0.0513  0.1318
17755W        W34016  11.017  10.967   1.543 -0.6046 -0.1588 -0.3484
17756W        W34017  10.442  16.888   3.829  0.0251 -0.0883  0.1471
17757W        W34018  12.625   2.189   0.525  0.5251  0.2442 -0.0564
17758W        W34019   5.289   6.792  11.632  0.0355 -0.0485 -0.0816
17759W        W34020   1.676  11.680  10.813 -0.1909 -0.0056  0.0036
17760W        W34021   6.517   8.028  12.645  0.1999  0.0435  0.0766
17761W        W34022   5.089   2.604  15.162  0.2908  0.0274  0.0601
17762W        W34023   5.950   5.570   0.594 -0.4293 -0.2974 -0.1843
17763W        W34024   0.439   9.128   2.175  0.2121  0.0945  0.1202
17764W        W34025   5.191   2.296   3.489  0.3796 -0.1680  0.0485
17765W        W34026  14.581   5.173  14.272 -0.0926 -0.2567 -0.0218
17766W        W34027  14.457  15.337  14.447  0.0577 -0.0819 -0.0278
17767W        W34028   7.885   6.223  15.501  0.1188 -0.0350 -0.3044
17768W        W34029  12.210  16.398  11.131  0.0126  0.0587 -0.1349
17769W        W34030  10.654   4.731   4.251 -0.2756  0.1728 -0.0848
17770W        W34031  14.243   2.507   2.599  0.0954 -0.1657 -0.1431
17771W        W34032  10.887  18.169   1.968 -0.1303 -0.2500  0.0391
17772W        W34033   1.671  18.232  11.875  0.0780 -0.2498  0.0421
17773W        W34034  17.998   3.509  14.674  0.3014 -0.2688  0.2602
17774W        W34035  15.050   6.142   2.073  0.1339 -0.0447  0.0048
17775W        W34036   8.030  16.401  13.016 -0.2470  0.0160 -0.2273
17776W        W34037  15.326   9.020  13.811  0.2180  0.0352  0.0964
17777W        W34038   6.929  17.677  11.954  0.0320  0.1244 -0.0119
17778W        W34039   7.733   1.992   5.692  0.0653  0.3440 -0.1419
17779W        W34040  14.890   7.191   1.459  0.2080  0.1125 -0.2740
17780W        W34041  15.542   5.197   4.921  0.0909 -0.2982  0.1964
17781W        W34042  18.490  14.695  15.266 -0.1407  0.2020 -0.0526
17782W        W34043   3.107   5.094   0.031  0.0756  0.0079 -0.4082
17783W        W34044   4.758  11.743   3.157  0.1510  0.0740  0.0065
17784W        W34045   4.168   5.571   4.824  0.2194 -0.1204 -0.0790
17785W        W34046   7.005   7.080   1.546 -0.5567 -0.2770 -0.1864
17786W        W34047  15.493   2.818   2.962 -0.0888 -0.0395  0.5579
17787W        W34048  15.395   0.603   1.774  0.0987 -0.1277 -0.0127
17788W        W34049   0.936  10.576  13.543 -0.2836 -0.0820  0.0991
17789W        W34050  15.541  12.916   3.254 -0.0704  0.1714 -0.2258
17790W        W34051  15.394   3.635  11.834 -0.1703  0.4728  0.0606
17791W        W34052  14.491  18.216   0.919 -0.2947  0.3274 -0.3521
17792W        W34053   6.708  15.725  15.164 -0.2607  0.0835 -0.1791
17793W        W34054  11.716   6.970   1.150  0.0442  0.1104 -0.0287
17794W        W34055  14.935  17.313   4.131 -0.2959  0.4463  0.0335
17795W        W34056   2.233   1.984  15.339  0.2184  0.0921 -0.1343
17796W        W34057   4.949   4.306   4.765  0.1779  0.3618  0.1104
17797W        W34058   8.375   1.307   1.795 -0.1758 -0.0273  0.1859
17798W        W34059  13.456  11.215  12.184  0.0924 -0.3570 -0.0881
17799W        W34060   6.309   7.481  14.766  0.0660  0.1700  0.1253
17800W        W34061  17.742   8.914  14.776  0.3237  0.0478  0.0940
17801W        W34062  10.031   5.554   2.108 -0.0352  0.0688 -0.0353
17802W        W34063   1.848   3.759   2.061 -0.0298  0.0624 -0.3344
17803W        W34064   9.412  13.639  11.907  0.0243 -0.1363  0.4608
17804W        W34065   9.575  10.467  13.644 -0.0697  0.0061  0.1039
17805W        W34066   7.661  14.978  15.405 -0.0259  0.0240  0.0658
17806W        W34067  18.431   5.877   2.434  0.0319 -0.1516 -0.0930
17807W        W34068   6.854  18.045  12.291 -0.3146 -0.3928  0.0363
17808W        W34069   1.895   5.646   4.615  0.6217  0.0702 -0.0325
17809W        W34070  10.815  12.336   3.843 -0.0061  0.0536  0.1255
17810W        W34071  12.800  11.961   3.519 -0.1758 -0.0965 -0.1651
17811W        W34072   6.052   1.425   5.043 -0.1498 -0.3029  0.0807
17812W        W34073  14.884  10.017   3.483  0.1452 -0.2747  0.1581
17813W        W34074   1.424  15.547  10.524 -0.2907 -0.4818 -0.3602
17814W        W34075   6.386  17.855   0.260 -0.2421  0.0754  0.1535
17815W        W34076   5.517   6.465   3.669 -0.0192 -0.2809 -0.2383
17816W        W34077  12.257   9.164  10.788 -0.0335 -0.2939  0.3686
17817W        W34078  10.661   8.415   0.256 -0.1290 -0.2672 -0.2389
17818W        W34079   1.104   5.583   0.466  0.0288  0.2225 -0.1141
17819W        W34080   6.437  15.189   4.080  0.1954  0.3491 -0.0439
17820W        W34081   3.731  13.253  10.918  0.1581 -0.1243  0.1336
17821W        W34082  13.483  10.056  14.159  0.1217  0.1023  0.0944
17822W        W34083   3.867  17.290  13.003 -0.1708 -0.2345  0.0491
17823W        W34084  15.877  13.799  13.372 -0.2122  0.0765  0.2434
17824W        W34085   6.213   9.088   3.555 -0.4072 -0.2173 -0.1202
17825W        W34086  18.083  15.713  14.050 -0.3549 -0.1165 -0.0664
17826W        W34087  15.884   1.903  11.401  0.1937 -0.0960  0.1924
17827W        W34088   5.119   3.979   4.484 -0.3789  0.1150  0.2693
17828W        W34089   9.044   3.721   4.562  0.0055 -0.1016  0.1959
17829W        W34090   5.434  16.147  13.618  0.0783 -0.0144 -0.0154
17830W        W34091   8.318  10.045   9.838 -0.1615 -0.0058 -0.1561
17831W        W34092   1.708  16.190   2.606 -0.1456 -0.2410 -0.1341
17832W        W34093   8.589   8.076  14.707  0.3218  0.0854 -0.2974
17833W        W34094  18.794   1.411  13.866  0.2689 -0.2448  0.0819
17834W        W34095   7.782   7.576   5.763 -0.1975  0.1310  0.0421
17835W        W34096   4.272  11.171   3.771 -0.3008 -0.3912  0.0597
17836W        W34097   2.929   8.728  12.658 -0.0459  0.0304  0.1003
17837W        W34098  17.233  15.574  11.365  0.1392 -0.1262 -0.0680
17838W        W34099   4.659  13.291   0.468 -0.0245 -0.0194  0.3304
17839W        W34100   3.894   1.105  12.344 -0.0790  0.1666  0.1683
17840W        W34101   0.297   9.704  10.801 -0.0561  0.2195  0.2777
17841W        W34102  11.326   0.375  14.265 -0.1388 -0.0204 -0.3168
17842W        W34103  14.022  18.237   4.406  0.0548 -0.3031 -0.1281
17843W        W34104   1.857   0.195  11.002 -0.1743 -0.0437 -0.2382
17844W        W34105   2.620  18.730  10.833  0.2108 -0.1102 -0.0063
17845W        W34106  13.381  16.742  12.857 -0.0392 -0.1463 -0.0410
17846W        W34107   8.533  11.944   5.855 -0.4615 -0.0468 -0.2670
17847W        W34108  10.116   6.046   2.354  0.1194  0.1536 -0.3898
17848W        W34109   9.373  16.771  13.302  0.0922  0.1581  0.2849
17849W        W34110  13.390   7.172  11.840 -0.0392  0.1477  0.0176
17850W        W34111   8.450  14.163   4.836 -0.1868  0.1041  0.0114
17851W        W34112  11.733   3.522   4.394 -0.0156  0.1283  0.1666
17852W        W34113  11.632   8.098  11.292 -0.2122  0.1546 -0.4200
17853W        W34114   0.584   8.034  11.894 -0.0125  0.0624 -0.0978
17854W        W34115   3.662  11.026  10.849 -0.0891 -0.0890 -0.2445
17855W        W34116   5.450   1.915   0.832 -0.4505  0.2419  0.0816
17856W        W34117  10.409  11.150   0.067  0.1237  0.2482  0.1346
17857W        W34118  10.041   0.597  14.549  0.0616 -0.1871  0.1191
17858W        W34119  16.409  13.241   3.116 -0.1065 -0.1012 -0.1547
17859W        W34120   2.410  12.666   4.469 -0.2699 -0.1401  0.1746
17860W        W34121  16.718   5.305   3.785 -0.0429 -0.1749 -0.0724
17861W        W34122   1.547   8.225   0.080  0.1838  0.3123 -0.0713
17862W        W34123  12.129  17.549  12.854 -0.0773  0.2827 -0.1516
17863W        W34124  17.981   1.230   3.687  0.1639 -0.1126  0.1475
17864W        W34125   2.245  11.954  15.206  0.3399 -0.0133  0.1631
17865W        W34126   5.314   6.650   2.371  0.1129  0.1864 -0.0948
17866W        W34127  11.095  17.247  14.797 -0.0783 -0.2042 -0.0276
17867W        W34128  18.249   8.433  14.289  0.0096  0.0518  0.1334
17868W        W34129  12.499  17.964  13.935 -0.1117 -0.1406 -0.1965
17869W        W34130  18.088  15.388  11.200  0.1139  0.1494 -0.3636
17870W        W34131   1.639  16.719  12.670 -0.0280  0.1480  0.0813
17871W        W34132   1.292  12.636   2.978  0.0405 -0.2427  0.0552
17872W        W34133   7.938   6.940   5.024 -0.0722  0.0799  0.1323
17873W        W34134  12.165  12.947  13.487 -0.0391  0.1020 -0.1358
17874W        W34135   6.131  14.723   3.871 -0.0632  0.1345  0.1764
17875W        W34136  16.509  13.558   4.167 -0.2454  0.0506 -0.2645
17876W        W34137   2.906  15.423  15.592  0.1073  0.0394  0.1598
17877W        W34138   8.668   3.242   1.614  0.1053  0.0826 -0.0721
17878W        W34139   5.968   9.894  11.264  0.3377 -0.1420 -0.1068
17879W        W34140  11.823   4.323  15.019 -0.0638 -0.1476 -0.2271
17880W        W34141  13.251  17.081   3.862  0.1191 -0.1763 -0.3293
17881W        W34142   6.762   8.823   2.533  0.0577  0.1015 -0.0922
17882W        W34143   1.025  10.839   3.768 -0.2647 -0.0234 -0.0395
17883W        W34144   4.341  13.480   3.940 -0.1232  0.0536  0.0239
17884W        W34145   3.310  15.691   0.206  0.0383 -0.2885  0.1603
17885W        W34146   0.083   7.170  15.408 -0.0484 -0.0193  0.0442
17886W        W34147   3.629   9.041   0.325 -0.2085 -0.1410  0.1883
17887W        W34148   0.422   5.851  12.867 -0.1981 -0.2066  0.0835
17888W        W34149  17.063   4.219   1.394  0.1681 -0.4793  0.2249
17889W        W34150  12.368  11.143  13.073  0.2920  0.1344  0.1610
17890W        W34151   9.151  17.964   2.136  0.0173  0.2584  0.3821
17891W        W34152  17.002  17.975  15.421  0.0212 -0.1570 -0.0548
17892W        W34153  16.049  14.391  11.230  0.2288  0.0207  0.0267
17893W        W34154  16.676  12.627  13.923 -0.1281  0.0786 -0.1676
17894W        W34155   8.483   4.995   4.429  0.1415  0.3348 -0.3503
17895W        W34156  15.293   3.671  10.637  0.0171  0.0917  0.2872
17896W        W34157   1.188  12.679   0.102  0.2979  0.1137  0.1318
17897W        W34158   3.415   9.135   5.248  0.1518 -0.0781  0.0041
17898W        W34159   1.212  13.202   0.227  0.1437 -0.4209  0.0534
17899W        W34160   1.570  13.564   4.501 -0.1143  0.0162  0.2521
17900W        W34161   4.880  16.726   0.079  0.1360  0.1077  0.0956
17901W        W34162   2.665   9.276   5.739  0.0370  0.2113  0.0964
17902W        W34163  17.558   4.429   4.248  0.3779 -0.1265 -0.2351
17903W        W34164   3.658  15.035  14.045 -0.0619 -0.0556 -0.0504
17904W        W34165   7.429  18.438   0.644 -0.1936 -0.0874  0.2156
17905W        W34166  12.931  11.174   2.517  0.1042 -0.0977  0.2908
17906W        W34167  10.268   7.581   4.028  0.4065 -0.1349  0.1110
17907W        W34168  10.351  10.733  14.083  0.0586 -0.2204 -0.1176
17908W        W34169   3.141  10.438  11.416 -0.3383 -0.1856  0.0994
17909W        W34170   7.618   2.411   2.009  0.0444  0.2323 -0.0716
17910W        W34171  10.873   7.883   2.866 -0.2135 -0.2099  0.0306
17911W        W34172   6.437   1.465   2.199  0.1748 -0.1206 -0.2242
17912W        W34173   3.112   3.182   2.533 -0.0673  0.1385 -0.2795
17913W        W34174   5.467   2.929   4.215 -0.2199 -0.2412  0.3980
17914W        W34175  12.703   5.288   2.480  0.2456  0.1732  0.4915
17915W        W34176   4.419   4.398   5.963  0.1058  0.0266 -0.0110
17916W        W34177  15.435  10.109  10.963  0.0702  0.2179 -0.1313
17917W        W34178   7.218  15.813  13.095 -0.2342 -0.0990  0.2846
17918W        W34179   0.699   7.155   4.892  0.0707 -0.1730  0.0604
17919W        W34180  11.637  16.162   4.102  0.0695  0.2672  0.3691
17920W        W34181   8.424  15.293  13.615 -0.2194  0.2545 -0.0988
17921W        W34182   6.523  18.534   4.904  0.0582  0.2564 -0.0809
17922W        W34183   6.474  13.825   0.878  0.1129 -0.0353 -0.2736
17923W        W34184   2.695  17.435  12.688  0.0815 -0.1038  0.1421
17924W        W34185   3.138   6.158   2.785  0.1667 -0.2127  0.1833
17925W        W34186  18.437  13.379   4.061  0.2041  0.2470  0.0267
17926W        W34187   6.533   1.184   3.436 -0.0467  0.1300  0.1630
17927W        W34188  10.058  18.084  12.215 -0.0186 -0.3037  0.0790
17928W        W34189   6.176  16.087  13.107  0.1833 -0.4682 -0.2483
17929W        W34190   7.329  15.981  12.298  0.1375  0.0888  0.1360
17930W        W34191  16.901   1.609   4.527  0.1155 -0.0667  0.0871
17931W        W34192  14.462  12.917   2.161  0.1280 -0.2637 -0.2332
17932W        W34193  12.556   8.073   1.163  0.1523  0.0157  0.0166
17933W        W34194  17.967   0.099   1.545  0.1743 -0.0379  0.0026
17934W        W34195   1.830  18.675  13.792  0.3719 -0.1202  0.2961
17935W        W34196   3.444  10.916  12.491 -0.0585  0.1380 -0.1082
17936W        W34197   3.070   3.265  15.093 -0.1390 -0.2852  0.0041
17937W        W34198   2.821   5.302   3.076  0.2179 -0.1307 -0.0000
17938W        W34199   7.531   9.211  13.639 -0.0169 -0.1313  0.0163
17939W        W34200  17.946   9.547  10.616 -0.2842 -0.1338  0.0423
17940W        W34201   8.648   0.621   2.981  0.1066  0.0358  0.0330
17941W        W34202   4.352  12.581  14.245  0.1836 -0.2092 -0.1505
17942W        W34203   8.048   3.618   4.981 -0.1927 -0.1203  0.1367
17943W        W34204   2.264  17.165   0.135  0.0003 -0.0734 -0.2274
17944W        W34205   1.478  18.777   1.966  0.1654  0.0050  0.0083
17945W        W34206  17.118  13.618  12.302  0.1863 -0.0863 -0.0586
17946W        W34207  13.907   4.701  13.253 -0.1019 -0.0113  0.3754
17947W        W34208  17.229   2.567   4.624  0.2521  0.0515 -0.2211
17948W        W34209   5.510  14.398  11.159  0.0255  0.0987  0.0307
17949W        W34210   5.102  11.795  13.706  0.1055  0.0425  0.0685
17950W        W34211  13.517  17.250   4.197  0.2448 -0.2257 -0.1889
17951W        W34212  16.868   5.436   3.176 -0.1220  0.6174 -0.2382
17952W        W34213   3.831  17.845   4.843 -0.1656  0.0192  0.1766
17953W        W34214  10.551   7.617  15.401  0.3493  0.0670 -0.1172
17954W        W34215   6.358   4.456  14.758 -0.2326  0.0476 -0.2271
17955W        W34216   7.132  18.557   0.203  0.0660  0.1118  0.1980
17956W        W34217   1.006   1.743  12.111  0.4659  0.3039 -0.1072
17957W        W34218   9.023   6.933   4.327 -0.1006 -0.0194  0.1945
17958W        W34219   6.620  18.137  13.492  0.1044 -0.0736 -0.0350
17959W        W34220  11.525   2.214   5.664 -0.1060  0.2968 -0.0269
17960W        W34221  10.523  16.481  11.011  0.1135 -0.0116  0.2387
17961W        W34222   2.735   9.201  12.614  0.1585 -0.3783 -0.0253
17962W        W34223   0.266  12.476  14.221  0.2673  0.1583  0.0516
17963W        W34224  18.756   5.236  13.163  0.2673  0.0420  0.0659
17964W        W34225   6.101  17.321  13.751 -0.2545 -0.0255  0.1421
17965W        W34226   3.136   9.142  12.287  0.2322 -0.3005  0.0141
17966W        W34227   9.244  15.400  14.553 -0.4951  0.3359 -0.1368
17967W        W34228   5.167   3.466   1.623 -0.2268  0.1488 -0.0243
17968W        W34229   2.983  15.435   5.568  0.1350 -0.3505  0.0035
17969W        W34230  14.060  16.848   5.108 -0.0681  0.1786  0.0478
17970W        W34231   0.489  16.204  13.475 -0.0905 -0.0639 -0.1331
17971W        W34232   7.599   1.996  12.865  0.0398 -0.0567  0.0994
17972W        W34233  17.926  14.335   3.885 -0.5400 -0.3919  0.3394
17973W        W34234  18.246   5.866   4.787  0.3530  0.1911  0.2839
17974W        W34235  13.380  16.627  13.363 -0.2386 -0.2893  0.3944
17975W        W34236   3.913   0.343  14.862  0.0864 -0.0850  0.2003
17976W        W34237   8.383  10.320   4.651  0.0409  0.0618 -0.0306
17977W        W34238   5.933   7.285   4.051 -0.1487 -0.0264 -0.1727
17978W        W34239   9.864   5.995   4.724 -0.2423 -0.2910 -0.0383
17979W        W34240   6.200   0.259   0.789 -0.1111 -0.1368 -0.1185
17980W        W34241   8.929  16.184  13.771 -0.0138  0.1322 -0.0153
17981W        W34242  17.101  11.500   0.792 -0.2802  0.0082  0.0442
17982W        W34243  17.011   2.408  10.541  0.0017 -0.3208  0.0421
17983W        W34244   8.858   5.496   4.423  0.3057 -0.0737 -0.0947
17984W        W34245  15.596  13.428  11.204  0.0248 -0.0209  0.0936
17985W        W34246   3.534  13.573  15.538 -0.1810 -0.0985 -0.0837
17986W        W34247   0.574   9.631  13.414  0.0415  0.1978 -0.1699
17987W        W34248   2.061   9.471  12.605 -0.2579  0.0709  0.1034
17988W        W34249   3.599  11.203   2.403 -0.0244  0.0211 -0.1263
17989W        W34250   3.136   0.820  11.838  0.0058 -0.1032  0.3679
17990W        W34251  10.138   9.649   3.568  0.2153  0.1347 -0.0222
17991W        W34252   8.409  13.014   4.075  0.0414  0.0492  0.3473
17992W        W34253  18.059  16.000   2.260 -0.0479  0.1827 -0.1073
17993W        W34254   3.818  17.454  11.235 -0.1502 -0.0147 -0.3358
17994W        W34255   9.017   1.970   4.371 -0.1320  0.0127  0.0339
17995W        W34256  12.200  13.107  12.374 -0.0018 -0.0350 -0.1313
17996W        W34257  17.975   4.597  15.533 -0.0946  0.0761  0.1984
17997W        W34258   9.848   8.578  11.459  0.2795  0.0247  0.1237
17998W        W34259  15.849  12.092  13.784 -0.1091  0.3241 -0.1896
17999W        W34260  16.812  14.237   0.659  0.0173  0.0564  0.3215
18000W        W34261   2.143   6.547  13.820  0.0444 -0.3882 -0.1462
18001W        W34262  15.288  10.712   2.393 -0.1523  0.2254  0.0519
18002W        W34263   6.529  17.118   3.968 -0.1809  0.1316  0.1616
18003W        W34264   7.798   1.348   1.931 -0.0566 -0.2041  0.2364
18004W        W34265  14.935  13.929   2.754  0.0263 -0.0089 -0.0794
18005W        W34266   0.480   3.872   3.469 -0.0364 -0.0990 -0.0468
18006W        W34267  10.907   9.886   5.737 -0.1924  0.2394 -0.0031
18007W        W34268  11.929   9.509  10.580 -0.0803  0.0165 -0.0192
18008W        W34269   1.134  17.534   5.237  0.2592  0.2724  0.1484
18009W        W34270   3.083   5.122  11.433 -0.1237 -0.1863  0.3933
18010W        W34271  14.063   7.209  11.867  0.1480  0.1701  0.0122
18011W        W34272   6.313   0.853  15.628 -0.2564 -0.1653 -0.0462
18012W        W34273  18.134   7.638  14.667 -0.0025 -0.1043 -0.0259
18013W        W34274  18.091  15.534   3.080  0.2759 -0.2153 -0.3429
18014W        W34275  12.005  16.520   3.874  0.0906 -0.0935  0.2284
18015W        W34276   8.721   4.407   0.860  0.1886  0.1903  0.3205
18016W        W34277  11.777  14.773   0.279  0.3447  0.1083 -0.1740
18017W        W34278   2.871   2.925   1.252  0.3686 -0.0775  0.0044
18018W        W34279  15.744   6.292   5.758 -0.0346 -0.0402 -0.0015
18019W        W34280   8.817   9.603  15.502  0.2910  0.0730  0.5087
18020W        W34281   9.375  13.735  11.295 -0.2471  0.0684 -0.3636
18021W        W34282  15.088   7.115   2.552 -0.0925  0.2969 -0.1464
18022W        W34283  16.175   0.809  14.376  0.1535  0.2573  0.0080
18023W        W34284  11.355  14.606  14.990 -0.3231 -0.2414  0.0691
18024W        W34285  12.599   2.327  13.020 -0.0230 -0.2178 -0.0732
18025W        W34286   8.897  17.055  14.095 -0.1131 -0.0302  0.2097
18026W        W34287  15.934  15.612  11.731 -0.0383 -0.1701 -0.1645
18027W        W34288   4.016   5.977  15.583 -0.3392  0.1883  0.0046
18028W        W34289   2.534  15.315   0.245  0.2507  0.1048  0.0895
18029W        W34290   3.529   2.228  15.442 -0.2921 -0.0421  0.3096
18030W        W34291  14.236   6.052   4.194 -0.2477 -0.4096 -0.1926
18031W        W34292  18.484  15.289   1.274 -0.1644  0.2761 -0.1739
18032W        W34293   1.867   6.272   0.009 -0.1850  0.1399 -0.1612
18033W        W34294   6.124   3.293   0.622 -0.2316 -0.0057  0.1856
18034W        W34295  15.879  14.292  13.297 -0.1427 -0.0672  0.2178
18035W        W34296  12.649   1.714  15.177 -0.0049  0.0169  0.0807
18036W        W34297   8.809   6.239  12.199 -0.1602 -0.2660 -0.2553
18037W        W34298   6.507   2.461   5.425  0.0602 -0.0968 -0.1842
18038W        W34299   6.929   0.260   5.067 -0.0740  0.3184  0.2030
18039W        W34300   5.768   1.757  11.860  0.2015 -0.0271 -0.6628
18040W        W34301  18.028  18.293  11.871  0.1670 -0.1015  0.3923
18041W        W34302  10.642  10.697   3.011 -0.0345  0.0186 -0.2548
18042W        W34303   4.610  14.974   2.368  0.3496 -0.0934 -0.0594
18043W        W34304  10.433   2.446   0.159  0.0464  0.0383  0.2812
18044W        W34305  16.189  12.620   5.019 -0.0585 -0.1663  0.0331
18045W        W34306   9.698  14.328   4.321 -0.0721 -0.2309  0.0495
18046W        W34307  10.243  11.542  12.424  0.0454  0.2780  0.3400
18047W        W34308  13.341   8.206  11.962  0.0631 -0.3015 -0.0525
18048W        W34309   4.556  18.565   4.929  0.2136 -0.0400  0.0299
18049W        W34310   6.899   5.624   2.854 -0.3164 -0.1919 -0.0721
18050W        W34311   8.456  14.118   1.312  0.0126  0.1612 -0.4330
18051W        W34312   4.202   2.427   0.458  0.1131 -0.0667  0.3267
18052W        W34313  17.251  18.500  13.774 -0.0764 -0.3476  0.1402
18053W        W34314   6.449   6.037  15.592 -0.0639  0.0941  0.3717
18054W        W34315   2.183   4.797   5.738  0.5163 -0.0760 -0.1552
18055W        W34316  13.108   4.623  15.244 -0.2429 -0.2476 -0.2900
18056W        W34317   8.550   1.154  14.167 -0.2497  0.0417 -0.0812
18057W        W34318   1.595   5.930   3.682 -0.0365  0.1732  0.0835
18058W        W34319  13.723   7.044  11.027  0.0731 -0.0475  0.1868
18059W        W34320  16.646   8.842   0.827 -0.0148 -0.3086 -0.0469
18060W        W34321  12.909   3.096   4.366 -0.0696 -0.0318  0.0875
18061W        W34322   9.751   9.607   1.483 -0.0227  0.2742 -0.1619
18062W        W34323   0.783   6.337   3.342  0.2401 -0.1986 -0.0128
18063W        W34324   4.374   0.740   4.749  0.0251  0.3975 -0.3279
18064W        W34325  18.449   9.475   4.864  0.0465  0.0061 -0.1905
18065W        W34326  10.039   2.914  14.020 -0.0514  0.0858 -0.0345
18066W        W34327   6.831   6.481  12.990 -0.0068  0.0429  0.2015
18067W        W34328  15.021   6.579   4.676 -0.1513 -0.0926  0.0037
18068W        W34329   9.354  11.154   4.084  0.1092 -0.1851  0.0017
18069W        W34330  13.816   1.225   4.962 -0.4926  0.0336  0.1504
18070W        W34331  18.633   4.495  12.485  0.2764 -0.2523  0.4597
18071W        W34332   5.616  16.761  11.537 -0.0843 -0.1301  0.1809
18072W        W34333   1.928   8.199   1.807  0.2436 -0.0020  0.2061
18073W        W34334   6.955  15.107  12.848  0.2385 -0.0094  0.3127
18074W        W34335   4.595  12.624   5.907 -0.1818  0.2021 -0.1134
18075W        W34336   1.428  10.324   3.135  0.3062  0.1211 -0.0214
18076W        W34337   0.386  12.850  11.511  0.3296 -0.2429  0.2430
18077W        W34338  11.991   6.974   4.727  0.1450  0.3252  0.1057
18078W        W34339   6.451  13.338  11.750  0.1206 -0.0408 -0.2107
18079W        W34340   4.494   3.406   4.899 -0.3325  0.3126  0.0263
18080W        W34341   8.966  13.334   4.475 -0.0976 -0.4812  0.2497
18081W        W34342  10.780   0.102  14.866 -0.2664 -0.3218  0.1205
18082W        W34343  10.405   9.347  14.892 -0.0653 -0.0506 -0.2100
18083W        W34344   2.639  18.497   1.278 -0.1193  0.0026  0.0708
18084W        W34345   0.358  14.898   1.855 -0.1768 -0.0494  0.1129
18085W        W34346  18.701   9.193   2.318  0.1624  0.0971 -0.0853
18086W        W34347  14.145   2.763  15.110 -0.1732 -0.0259  0.1211
18087W        W34348   3.920  18.052   3.271  0.0560 -0.0896 -0.0600
18088W        W34349   2.686   1.923  13.781 -0.3152 -0.0382  0.0030
18089W        W34350   4.012   3.894   2.379  0.4420 -0.0221 -0.1261
18090W        W34351  15.882   0.562   1.762 -0.1376  0.0767  0.1239
18091W        W34352  11.556   4.641   4.838  0.1634  0.5995  0.1191
18092W        W34353  11.830   4.802   0.204  0.0723  0.0506 -0.1019
18093W        W34354   2.759  14.723   2.270 -0.1813 -0.1284  0.1922
18094W        W34355   1.915   4.965  10.747  0.1494  0.2473 -0.0812
18095W        W34356  12.500   0.871   0.773  0.2499 -0.2619 -0.1749
18096W        W34357   6.003   7.799   5.475  0.1050 -0.1960  0.0841
18097W        W34358  18.004   3.283  15.575 -0.4019  0.2283  0.2823
18098W        W34359   7.878   1.577   3.484  0.2460 -0.0154  0.0473
18099W        W34360  12.788   4.047   0.248 -0.0515  0.2154  0.2764
18100W        W34361   4.890  10.979   4.466  0.1582  0.3883  0.0450
18101W        W34362   8.669  10.943   3.610 -0.0241 -0.0085  0.0953
18102W        W34363   0.867  14.905  13.985  0.1043  0.1398 -0.1036
18103W        W34364   3.115   0.456  13.749  0.0483  0.0916  0.1083
18104W        W34365  13.479   5.561  13.406 -0.1066  0.1860 -0.1831
18105W        W34366  15.761   3.922  12.269  0.1569  0.0317 -0.0172
18106W        W34367  13.043  11.858   3.927  0.0875  0.1758  0.1618
18107W        W34368   3.835  10.698  12.631  0.1882  0.1011 -0.0921
18108W        W34369   4.448  18.471  12.505  0.2332 -0.0663 -0.1815
18109W        W34370  17.004  15.420  10.059 -0.1741 -0.0360 -0.2553
18110W        W34371  11.370  13.719   1.171  0.0408  0.1101  0.3776
18111W        W34372   1.591  14.667  15.450 -0.0945  0.1050  0.1313
18112W        W34373   8.121  17.340  14.863 -0.0142  0.1823 -0.0668
18113W        W34374   3.896   2.598  10.689  0.3236 -0.0072  0.0584
18114W        W34375  14.516  17.675   3.211 -0.0586 -0.0229 -0.1637
18115W        W34376  14.631   7.643   4.616 -0.1902 -0.4514  0.0727
18116W        W34377   8.329  13.190   3.612  0.1608 -0.0721 -0.1535
18117W        W34378   4.123  12.019   5.160 -0.1505 -0.1248  0.1539
18118W        W34379   5.789  10.800   4.717  0.3482 -0.4790  0.0117
18119W        W34380   5.365  11.072   4.681 -0.0414 -0.1547 -0.2801
18120W        W34381   5.079   0.132  15.103 -0.4423  0.0947 -0.0680
18121W        W34382   9.802   1.929   3.468  0.1918 -0.0724 -0.2430
18122W        W34383  14.983   3.407   1.443 -0.2023  0.1289 -0.2294
18123W        W34384  15.792  16.482  13.130 -0.1254 -0.1446  0.2394
18124W        W34385   4.673  17.190  12.507  0.2133  0.2724 -0.3502
18125W        W34386   8.285  10.466   2.871  0.1922  0.1217 -0.1438
18126W        W34387  15.753  13.380  13.021  0.4549 -0.0137 -0.0968
18127W        W34388   4.849   2.565  14.303  0.1153  0.1220 -0.1696
18128W        W34389   3.245  12.415  11.397 -0.0252  0.0912  0.1099
18129W        W34390  17.163   6.001   2.202  0.0097 -0.0157 -0.1718
18130W        W34391  14.532   2.074  13.867 -0.2658 -0.0434  0.2486
18131W        W34392   5.184   5.122   5.685  0.2598 -0.2686  0.2305
18132W        W34393   6.039   0.812   3.960 -0.1653  0.0020 -0.1374
18133W        W34394   7.650   8.074   5.751 -0.0239 -0.3140 -0.0783
18134W        W34395   5.546   6.964   6.205 -0.1185  0.2156  0.0794
18135W        W34396   1.775  15.392  12.423  0.2104 -0.1761  0.0019
18136W        W34397   4.289  12.502   5.083  0.0756 -0.0720 -0.0479
18137W        W34398  18.241   1.074   4.643 -0.0106 -0.1353  0.1147
18138W        W34399  16.374  14.732   0.181  0.1673 -0.0710  0.1965
18139W        W34400   8.849   8.441   6.130  0.1399 -0.2665  0.0734
18140W        W34401   9.747  17.519   3.789 -0.0899 -0.0502 -0.0488
18141W        W34402   6.925   2.330   5.666  0.1784 -0.1726  0.1501
18142W        W34403   3.299  11.883  12.862 -0.0905 -0.0483  0.0960
18143W        W34404   7.685  10.885  13.735  0.0551 -0.1257  0.0894
18144W        W34405  10.757  10.158   1.961  0.0130 -0.1096 -0.0810
18145W        W34406   2.351   5.370   1.583 -0.0720 -0.0566  0.3025
18146W        W34407   5.978  11.191  14.954 -0.0928  0.0544  0.1018
18147W        W34408   5.953  16.760   2.836 -0.1823  0.0879  0.0715
18148W        W34409   0.974   4.436   3.170  0.2379  0.0751  0.0497
18149W        W34410  17.101   9.928   1.606  0.0315  0.1004 -0.1429
18150W        W34411  13.588   6.981   0.830 -0.1935 -0.0096  0.1094
18151W        W34412  13.838  15.342  14.836  0.2295  0.1426 -0.0478
18152W        W34413  17.709  13.458   1.977  0.4007  0.3445 -0.2644
18153W        W34414  12.109  10.389  10.961  0.0541 -0.1813  0.1526
18154W        W34415  16.728  16.318   1.030  0.0852 -0.1677  0.1414
18155W        W34416   5.219  16.498  13.944 -0.0097 -0.1461  0.1779
18156W        W34417   4.042  13.664  13.850 -0.1231 -0.0146  0.1545
18157W        W34418   2.000   3.047  14.218  0.0814 -0.0276  0.2045
18158W        W34419   6.176  11.856  13.589  0.1302  0.2927  0.3497
18159W        W34420  18.705   9.120  12.460  0.1849  0.0828  0.1552
18160W        W34421  13.142   8.625  11.737 -0.0194  0.0815  0.1421
18161W        W34422   2.738   9.680   4.066  0.2294 -0.2874  0.1855
18162W        W34423  10.437  14.107  13.335 -0.0134  0.0265 -0.2272
18163W        W34424   4.664   8.232   0.069 -0.1906 -0.1785  0.0476
18164W        W34425  15.041  12.973   1.323  0.2109 -0.0610  0.0945
18165W        W34426   4.862   5.104   4.205 -0.2523  0.3344  0.0874
18166W        W34427   8.151   9.796   3.523  0.1843  0.0785  0.3244
18167W        W34428   5.271   3.912  15.136  0.0930 -0.0626  0.4641
18168W        W34429  16.007  10.210   4.624 -0.0685 -0.1236 -0.1411
18169W        W34430  13.510   8.925  14.438 -0.1136  0.1007  0.0580
18170W        W34431   7.105   8.782   1.284  0.0738  0.1641  0.1885
18171W        W34432  16.324   7.531   0.438 -0.2073  0.3364 -0.0132
18172W        W34433  11.201  11.242  13.686 -0.2298 -0.2753 -0.1633
18173W        W34434  13.880   8.018  11.645 -0.1467 -0.2844  0.0028
18174W        W34435  13.714  12.005   0.071 -0.0807  0.0185 -0.4387
18175W        W34436   4.726  18.712  15.458 -0.1020 -0.1801  0.1113
18176W        W34437  12.896   7.456  14.610  0.1873 -0.4042  0.2678
18177W        W34438   5.347   4.920  14.693  0.0346  0.0923  0.3830
18178W        W34439  13.919  11.511   0.566 -0.1521  0.0246  0.1294
18179W        W34440  17.133   0.192   0.321 -0.0028  0.1309  0.0696
18180W        W34441   2.482  12.581   3.475  0.2230 -0.3409 -0.1507
18181W        W34442   5.569   6.867   2.002 -0.3530  0.1495  0.1625
18182W        W34443   3.491   7.041  13.931  0.2103 -0.3132  0.0268
18183W        W34444   0.344  14.043   1.983  0.3903 -0.0914 -0.0847
18184W        W34445  13.250  12.588  10.779 -0.3179 -0.1605 -0.2492
18185W        W34446  13.387   7.381  14.800  0.1066 -0.5021 -0.2357
18186W        W34447  14.187   5.146   1.643  0.0781 -0.2643  0.0386
18187W        W34448   8.573  17.218  15.007  0.1502 -0.0447  0.0119
18188W        W34449  14.832   9.032   0.917 -0.1541 -0.0271  0.0602
18189W        W34450  15.471  14.054   3.282 -0.3079 -0.0585 -0.2087
18190W        W34451  14.902   0.995  11.087 -0.2216 -0.0129 -0.3091
18191W        W34452   3.984  17.735   1.080  0.2172  0.1197 -0.0331
18192W        W34453  15.223   4.933  11.997  0.0338 -0.2009 -0.1763
18193W        W34454  14.027   3.664   4.383 -0.0383 -0.0140 -0.0354
18194W        W34455   8.741   6.496  13.690 -0.1894 -0.0303 -0.3847
18195W        W34456   1.239   0.539  10.586 -0.0832  0.3051 -0.0575
18196W        W34457   2.145  11.033  13.604 -0.0577  0.1061  0.1560
18197W        W34458   2.865   3.525  13.677 -0.1908 -0.1948  0.4909
18198W        W34459  16.274  17.547  10.784 -0.1912  0.2515  0.2962
18199W        W34460   5.222   7.590   1.541 -0.2216 -0.1325 -0.1631
18200W        W34461   3.950  12.131  15.245  0.0640 -0.2063 -0.1946
18201W        W34462   2.846  15.110   3.665 -0.0252 -0.1794 -0.4437
18202W        W34463  10.100  13.872  12.298 -0.1986 -0.2755 -0.0873
18203W        W34464   3.551   5.756   2.864 -0.0633 -0.0874  0.1843
18204W        W34465  11.906  15.497  14.492 -0.1765 -0.0237 -0.2772
18205W        W34466   1.086  11.978   3.317  0.1446 -0.3028  0.1747
18206W        W34467   0.035   8.330   5.464  0.1148 -0.0621  0.2710
18207W        W34468   5.500  16.576  13.396 -0.1461 -0.3887  0.2175
18208W        W34469  10.353  17.096   6.187 -0.0412 -0.0711  0.4703
18209W        W34470   6.665   2.428  13.074 -0.3061  0.2001  0.0444
18210W        W34471   5.012  10.517   3.046  0.0382  0.0108 -0.4441
18211W        W34472  10.449   0.639   3.923 -0.1990  0.0112  0.1998
18212W        W34473   1.554   0.821  15.421 -0.2606 -0.1275 -0.3483
18213W        W34474   9.216   6.375   3.362 -0.0455  0.1738  0.1601
18214W        W34475  14.494  17.467   1.855  0.1656  0.0317  0.4142
18215W        W34476  15.633  14.307   2.347 -0.2087 -0.2786  0.2178
18216W        W34477  15.962   4.303   0.637  0.2178 -0.0080  0.2905
18217W        W34478  10.416  13.507   2.219 -0.1025 -0.0390  0.3263
18218W        W34479   8.406   6.444   1.663  0.0651  0.2472  0.0157
18219W        W34480   3.542  11.328   1.313 -0.0814  0.0650 -0.0484
18220W        W34481   7.282   5.310   4.779 -0.0558  0.1478  0.0339
18221W        W34482   2.754   1.337   4.710  0.1443 -0.0994 -0.1971
18222W        W34483   3.603  12.124   5.006  0.2487  0.1570  0.0195
18223W        W34484  10.066   9.682  11.113  0.1041 -0.2235  0.0864
18224W        W34485  15.144   8.239  15.553 -0.1379 -0.1225 -0.1709
18225W        W34486  15.593   6.435  13.166  0.0405 -0.0746  0.3638
18226W        W34487   2.913  11.794   3.681  0.0421 -0.0431 -0.1318
18227W        W34488   0.010  13.934  14.731  0.1230  0.2516  0.0591
18228W        W34489   7.077   5.201   1.252  0.0090 -0.1981  0.1609
18229W        W34490  10.843   0.921   0.784  0.1305  0.1458  0.3619
18230W        W34491  18.682   7.772   4.384  0.0704  0.0200 -0.2154
18231W        W34492   5.197  11.460  14.524 -0.1347 -0.0221 -0.3848
18232W        W34493  10.287   2.678   4.198 -0.2120  0.3074 -0.1093
18233W        W34494  16.707  17.885  13.590  0.1156 -0.1888 -0.0035
18234W        W34495  18.829   6.910  10.016  0.1602 -0.0609  0.1805
18235W        W34496   8.984   8.501  13.982 -0.0878  0.2632  0.2568
18236W        W34497  13.475  10.034   3.346  0.0781  0.0853  0.2028
18237W        W34498  10.007  16.375   2.660 -0.0573 -0.0642  0.0483
18238W        W34499  17.640  13.013  11.925  0.0390  0.1079 -0.0208
18239W        W34500   4.822   3.775   1.302  0.0815 -0.2266 -0.0746
18240W        W34501  16.551   4.323   0.421  0.2981 -0.4246 -0.1217
18241W        W34502   2.994  12.281   3.576 -0.0208 -0.5007  0.2298
18242W        W34503   3.912  15.344   4.023  0.0514 -0.0209 -0.0145
18243W        W34504  14.149   3.167  11.443 -0.0520  0.0505 -0.1514
18244W        W34505   7.476  15.602  14.732 -0.1308 -0.2400  0.1302
18245W        W34506   7.687   0.093   2.135 -0.1657 -0.0879  0.0372
18246W        W34507   6.749   5.374  13.245  0.2394 -0.1169  0.0692
18247W        W34508   4.330  13.309   1.850  0.2379 -0.4130  0.2113
18248W        W34509  11.871  15.511  12.502 -0.0453 -0.1764  0.1607
18249W        W34510   5.495   4.799  13.951  0.2109 -0.0448 -0.4139
18250W        W34511   1.687   6.806   5.049  0.0252 -0.0821  0.1224
18251W        W34512  15.092  15.664  13.825  0.0975 -0.2120  0.2267
18252W        W34513   9.564   7.635   1.740  0.1594  0.1384  0.0160
18253W        W34514  12.972  10.854   1.679  0.2246  0.1154 -0.0081
18254W        W34515   0.929  13.925  11.585  0.0544  0.2744  0.1019
18255W        W34516   9.041   1.513   1.603  0.0519 -0.0427 -0.0722
18256W        W34517  12.579   5.834  14.636  0.0142 -0.0040 -0.0593
18257W        W34518   3.312   5.401  15.243 -0.0635 -0.2367 -0.0774
18258W        W34519   8.343  10.702  13.379  0.1986 -0.0114 -0.2392
18259W        W34520   7.419   0.620   3.271  0.0741 -0.1212  0.2451
18260W        W34521   5.713   9.519   0.534 -0.1253  0.0056  0.2411
18261W        W34522   5.501  15.792   3.427 -0.2676  0.3298 -0.2046
18262W        W34523  12.174   5.542   0.769  0.3231 -0.0087 -0.0652
18263W        W34524   3.542   4.469  12.624 -0.2780  0.1035  0.0112
18264W        W34525   3.758   0.781  15.113 -0.2224  0.0697 -0.0179
18265W        W34526  15.483  15.122   4.510 -0.0593  0.0832  0.4301
18266W        W34527   2.013  10.034   5.254 -0.0260 -0.1286 -0.1416
18267W        W34528   4.451  10.985   2.670 -0.0119 -0.1189 -0.1043
18268W        W34529  16.805   1.404  14.278 -0.0285  0.1301  0.3759
18269W        W34530   9.724  10.821   1.729 -0.1945  0.0241 -0.0472
18270W        W34531  11.069  12.868  14.616 -0.0208 -0.0350  0.0600
18271W        W34532  12.690   0.062  13.240 -0.2514 -0.3268 -0.0915
18272W        W34533  13.727  13.164  11.297  0.1329  0.0220  0.2780
18273W        W34534   8.678  11.192   5.481  0.0571  0.0370  0.0566
18274W        W34535  14.788   2.118  14.813 -0.0689 -0.0921 -0.0878
18275W        W34536   3.026   8.325   2.276 -0.2796  0.0368  0.0829
18276W        W34537  15.499  14.534  15.193  0.0520  0.0714 -0.2134
18277W        W34538   9.881  13.443  11.523 -0.1499 -0.1098  0.2293
18278W        W34539   5.081   3.874   0.150  0.1755  0.2969 -0.1976
18279W        W34540   3.836   0.601  12.482  0.1252 -0.1590  0.0446
18280W        W34541  14.096   5.819  13.569  0.1351  0.2054 -0.2156
18281W        W34542   4.933  13.794  11.677 -0.1607  0.0248 -0.0114
18282W        W34543   1.904   4.180  15.420  0.0483  0.0932 -0.0357
18283W        W34544   1.223  11.806  13.691 -0.0519 -0.1114 -0.0352
18284W        W34545   3.136  13.366  15.213  0.1869 -0.2889 -0.1064
18285W        W34546  14.952   3.743  12.125  0.3090 -0.0488 -0.1874
18286W        W34547  13.560   9.019  12.095 -0.2027  0.0893 -0.0321
18287W        W34548   4.819  16.523  15.283 -0.0111  0.1104 -0.1246
18288W        W34549  15.134  15.118  12.589  0.2639  0.1851 -0.2318
18289W        W34550   1.372  18.024  10.977  0.1839  0.3274  0.0381
18290W        W34551   5.311   7.164   3.645 -0.6357 -0.2248 -0.4263
18291W        W34552   4.575   4.218   2.421  0.2833  0.0326  0.0084
18292W        W34553   1.530   6.688  11.656 -0.4105 -0.2234 -0.1171
18293W        W34554   6.290   1.797  14.654 -0.0378  0.0546  0.0525
18294W        W34555  11.035  10.064   3.672  0.5014 -0.1274  0.2222
18295W        W34556  15.772  12.207   0.341  0.0379  0.0932  0.3710
18296W        W34557   2.843   8.503  14.111  0.1880 -0.2215  0.0448
18297W        W34558  18.588  14.319  10.951 -0.3077 -0.1472 -0.3503
18298W        W34559  18.819   2.091   0.806 -0.0066 -0.0510  0.1246
18299W        W34560   2.962  13.336   3.561  0.4886 -0.1869 -0.1965
18300W        W34561   5.648   0.158  15.629  0.0343 -0.1752 -0.1022
18301W        W34562   8.523  18.300  12.218 -0.2731 -0.0528 -0.0028
18302W        W34563   7.732  17.036  13.979 -0.3980 -0.0560 -0.0439
18303W        W34564   6.132   6.017  14.794 -0.0775 -0.1412 -0.0260
18304W        W34565   0.853  14.025   1.886  0.0314 -0.0095  0.2045
18305W        W34566   0.771  10.586   2.427  0.0308 -0.3373  0.2899
18306W        W34567  12.861  10.899   4.191 -0.0440 -0.0141  0.0226
18307W        W34568   8.467   8.323  12.822 -0.1456 -0.2989  0.0194
18308W        W34569   5.207  18.451   0.577 -0.0569 -0.2179  0.2982
18309W        W34570  12.387  13.327   5.035 -0.1134 -0.0672 -0.0813
18310W        W34571   1.233   3.259  14.300 -0.0075  0.1059 -0.1595
18311W        W34572   4.629  17.555  11.924  0.3147 -0.1512  0.3492
18312W        W34573   7.569  16.421  12.249 -0.0956  0.2286  0.2391
18313W        W34574  13.558  14.949   3.072 -0.3077 -0.0910 -0.1700
18314W        W34575  17.011  10.182  11.446  0.1563 -0.1607 -0.1010
18315W        W34576  12.814   4.993   0.230  0.0436  0.2660  0.0649
18316W        W34577  17.742  15.399   3.901 -0.5076  0.4188 -0.0305
18317W        W34578   8.488  10.338   5.221 -0.1155  0.0808  0.1153
18318W        W34579   8.806   7.967   3.126 -0.3851  0.3812  0.1602
18319W        W34580   6.683  11.886  13.362  0.4027 -0.1845  0.1048
18320W        W34581  15.372  14.992   1.822 -0.0563  0.1735 -0.2075
18321W        W34582  11.115   2.944  12.305 -0.3444  0.1819 -0.1930
18322W        W34583  17.010   5.019   4.652  0.3028 -0.1434 -0.0705
18323W        W34584  16.624  16.457  12.458 -0.2085  0.1352 -0.0962
18324W        W34585   5.263  14.712  14.006  0.2979  0.0462  0.0069
18325W        W34586  15.346  17.017  11.726 -0.1058 -0.0873  0.1062
18326W        W34587  18.419   2.941  12.125 -0.0795  0.2364  0.0036
18327W        W34588   7.871   1.020   5.546  0.2927  0.0798  0.2168
18328W        W34589   1.522  10.019  15.242 -0.0615  0.2952 -0.1453
18329W        W34590   4.921   2.591   2.999  0.3021 -0.0758  0.2405
18330W        W34591  18.801   0.702  14.661 -0.4603  0.0463 -0.0691
18331W        W34592  12.723  14.529  12.968 -0.0548  0.0569  0.1207
18332W        W34593   8.166  15.935   0.333 -0.2088  0.1715  0.1095
18333W        W34594   8.014  13.810   0.323  0.2612  0.0918  0.1214
18334W        W34595  13.041  17.983   3.271  0.1294 -0.2548  0.3291
18335W        W34596   2.301   6.002  14.480  0.0352 -0.2047  0.0814
18336W        W34597  15.029  10.321   2.693 -0.2097 -0.0605 -0.1224
18337W        W34598  18.521   7.582   1.618 -0.2492 -0.2183  0.0561
18338W        W34599  10.143   0.327  13.818  0.1021  0.5952 -0.0745
18339W        W34600   8.794   5.202  12.201 -0.3202  0.3017  0.1002
18340W        W34601  10.032   3.412  13.995 -0.0680  0.0832  0.0196
18341W        W34602  10.809   1.514   0.263  0.2629 -0.3858  0.0248
18342W        W34603   0.850  15.758  14.397  0.0739  0.0293 -0.0295
18343W        W34604  18.161   8.295  12.078 -0.1887  0.0668 -0.1623
18344W        W34605  10.021   6.948  11.368 -0.1807 -0.0004 -0.0518
18345W        W34606  11.524  13.921  10.207 -0.3592 -0.4482 -0.0039
18346W        W34607  16.518   9.378   2.556  0.1780 -0.0134 -0.2097
18347W        W34608  18.570   5.484  14.473 -0.1667 -0.3109  0.3284
18348W        W34609   9.012  14.183   1.071 -0.2277  0.3316 -0.1498
18349W        W34610   0.014  16.007  13.880  0.0225 -0.1417  0.0304
18350W        W34611   4.210   3.373  13.934  0.2682 -0.2870 -0.0162
18351W        W34612   9.709   3.835   0.118  0.0525  0.0118 -0.2823
18352W        W34613  14.715   2.478  11.605  0.1685  0.0547  0.1526
18353W        W34614  10.994   6.128   3.912 -0.0418 -0.2864  0.1406
18354W        W34615  17.025  16.787   4.810  0.0289  0.4260  0.0015
18355W        W34616  15.697   7.126   4.874  0.0062 -0.1853  0.0839
18356W        W34617   6.166  11.679   2.004 -0.1385  0.0229 -0.2700
18357W        W34618   2.791  10.195   3.898  0.0219 -0.1260 -0.0777
18358W        W34619   7.453  10.847   5.334 -0.1109 -0.0568 -0.0483
18359W        W34620  18.802   9.014   4.974 -0.2575 -0.1003  0.0966
18360W        W34621  18.562  10.741   0.962 -0.0533  0.0119  0.0948
18361W        W34622  18.217   2.063   1.017 -0.1393  0.1899 -0.1284
18362W        W34623   1.824   7.239  11.217  0.2852 -0.3322  0.2264
18363W        W34624  10.804   7.169   4.308 -0.0434 -0.1427 -0.2838
18364W        W34625  17.354   0.751  15.084  0.0348 -0.3577 -0.0045
18365W        W34626   1.670   9.655  12.284  0.1437 -0.3273 -0.2470
18366W        W34627  11.313  10.136   1.012 -0.0548 -0.1478  0.1389
18367W        W34628   3.352  15.369  11.016  0.2374  0.0676 -0.1137
18368W        W34629   4.507  10.759  15.288 -0.0269  0.1606  0.0156
18369W        W34630  11.421   7.387  14.490 -0.0251 -0.1770  0.1430
18370W        W34631   9.100   6.157  14.575  0.1515  0.2044  0.0528
18371W        W34632  14.242   0.838  11.438  0.1559 -0.0322 -0.0872
18372W        W34633   1.523  12.276   3.299  0.0456 -0.1194 -0.0019
18373W        W34634   0.109  11.872  13.619 -0.3823 -0.1247  0.1157
18374W        W34635  18.283   3.326  11.367 -0.0362  0.1297 -0.0661
18375W        W34636  16.697  12.195  11.667 -0.2033  0.1062  0.2420
18376W        W34637   7.910  18.331  15.615  0.1651  0.0495  0.0738
18377W        W34638  14.609  12.403   0.417 -0.0820  0.1883 -0.1084
18378W        W34639  15.450  13.158   5.359 -0.1454  0.2841  0.2750
18379W        W34640  18.710   0.922   0.684 -0.4358 -0.1610 -0.0786
18380W        W34641   9.728   3.067  12.341  0.0388 -0.3008 -0.0450
18381W        W34642  12.490  10.778   0.366  0.1494  0.0901 -0.0624
18382W        W34643  12.505  14.153   2.061 -0.1186  0.0432 -0.0366
18383W        W34644   4.588   4.760   2.899 -0.0437 -0.3005 -0.2503
18384W        W34645  13.472   5.456  14.464  0.4091  0.3899  0.3070
18385W        W34646  15.010   9.657  11.863  0.2244 -0.2768  0.0979
18386W        W34647  18.200   1.264   2.844 -0.0269 -0.0052 -0.1535
18387W        W34648   0.427  11.964  14.313 -0.2132  0.1162  0.1842
18388W        W34649  16.023  14.472  12.078  0.1888 -0.1301 -0.0865
18389W        W34650   4.869  11.098  15.241  0.2313  0.2440 -0.1580
18390W        W34651   1.571   0.013   0.882 -0.2538 -0.0774 -0.0794
18391W        W34652   6.532  10.958  12.006 -0.0089  0.1578 -0.1815
18392W        W34653   8.685  14.811   3.107  0.1315  0.3061  0.1795
18393W        W34654  11.174   0.915  14.275  0.0955 -0.0234  0.0981
18394W        W34655  16.966   2.322  13.116  0.1794 -0.2610  0.1319
18395W        W34656  15.168   8.722  14.319 -0.0159  0.0818  0.1307
18396W        W34657   7.962  12.907  10.806 -0.1184 -0.1980  0.4396
18397W        W34658  16.993  14.557  11.715  0.0357  0.1360  0.0791
18398W        W34659   5.782  14.060  12.031  0.0060 -0.2059 -0.2277
18399W        W34660   7.103  12.012  15.153  0.0633  0.0201  0.1627
18400W        W34661   1.403  16.200  11.580 -0.2356 -0.0696  0.0593
18401W        W34662   3.924  13.935  10.386  0.1567 -0.1531 -0.2729
18402W        W34663   7.295   6.927  14.727 -0.0363  0.2971 -0.2127
18403W        W34664  11.193   4.094   3.567  0.1070 -0.0527 -0.1185
18404W        W34665   7.045   5.448   3.348 -0.0937  0.0152  0.0582
18405W        W34666   8.709   4.167   2.820 -0.1111  0.5005  0.0861
18406W        W34667   6.006  18.601  11.252  0.0534  0.1354 -0.4261
18407W        W34668   7.499   0.010   1.071 -0.2311 -0.2085  0.1176
18408W        W34669   9.302  12.811  11.478 -0.2759  0.1535  0.0604
18409W        W34670  14.780  13.283   2.397 -0.2232  0.2014 -0.0072
18410W        W34671  15.041  15.002  13.473 -0.2821  0.1613 -0.0808
18411W        W34672   3.628  15.267   3.276 -0.1264 -0.4587 -0.0925
18412W        W34673  13.844  12.271   3.081  0.0213 -0.0259 -0.4432
18413W        W34674  13.929  11.720  13.030 -0.1921 -0.0361  0.1529
18414W        W34675  13.120  15.226   1.461  0.4138  0.1529  0.1699
18415W        W34676   6.837  16.640  12.950  0.2584  0.1534 -0.0092
18416W        W34677   1.086  17.548  13.218  0.3505  0.1241 -0.4405
18417W        W34678  10.022  14.656   3.245 -0.0343  0.2382 -0.3389
18418W        W34679  15.940   8.992   1.925  0.1149  0.1061 -0.0886
18419W        W34680  15.121  17.853   1.406 -0.0924  0.0331  0.1506
18420W        W34681  11.424   4.883   2.108  0.1151 -0.4540 -0.0234
18421W        W34682  13.707   2.316   4.860  0.3693  0.0510  0.1489
18422W        W34683   6.864  11.135  11.713 -0.3593  0.2149  0.2506
18423W        W34684   7.123  10.155   0.862 -0.2163  0.0929  0.1491
18424W        W34685  14.445  11.380  10.540 -0.1072  0.3435 -0.1387
18425W        W34686  14.950   2.171   0.576 -0.1665 -0.0742 -0.1675
18426W        W34687   7.488  16.496   3.424 -0.2294 -0.2038  0.1008
18427W        W34688   4.096   9.727  15.117  0.0279  0.0777 -0.0375
18428W        W34689   2.339  17.282  12.987 -0.0846  0.0097 -0.0801
18429W        W34690   0.268   3.188  13.878 -0.1034 -0.2986 -0.2695
18430W        W34691   4.420   5.248   3.078 -0.0774 -0.2139  0.1602
18431W        W34692   4.835   0.185   3.735  0.2042  0.3961  0.1602
18432W        W34693  13.481  13.193   0.083  0.1662 -0.0396 -0.2006
18433W        W34694   6.101  14.319   2.936 -0.1244  0.0519  0.1564
18434W        W34695  13.334   0.123   9.793  0.0166 -0.1679  0.0838
18435W        W34696   0.785   5.433   1.324  0.1075 -0.0338  0.0321
18436W        W34697   0.527  10.332   0.392  0.0453 -0.3181 -0.2825
18437W        W34698   8.068  13.224  11.388 -0.1216  0.0459  0.0765
18438W        W34699  11.573   3.938  14.778 -0.3043  0.0585  0.1745
18439W        W34700   8.368  16.255  15.072 -0.0811  0.2931  0.2206
18440W        W34701   2.649  10.516  13.635  0.1387  0.1012  0.0825
18441W        W34702   4.490  16.834  11.394 -0.2121 -0.1624  0.1889
18442W        W34703   8.734  10.288   0.600 -0.0494 -0.0865  0.0335
18443W        W34704  18.401  16.887  15.409  0.1795 -0.2310  0.1694
18444W        W34705  12.708   8.577   3.550 -0.0407  0.1881  0.0656
18445W        W34706  10.283  17.919   1.927 -0.1429  0.2451 -0.2951
18446W        W34707  14.398  16.604  12.736 -0.0184  0.2549  0.1534
18447W        W34708  13.006   4.643   2.701  0.2900  0.1242 -0.0951
18448W        W34709  16.182   1.740   5.269 -0.0599  0.0461 -0.0536
18449W        W34710   4.509  13.938  11.470 -0.1673 -0.0494  0.2694
18450W        W34711   0.332  18.630   2.223  0.0646  0.1326  0.1224
18451W        W34712   6.477  12.344   1.296  0.2905  0.2483  0.0695
18452W        W34713   8.489  14.324  15.087 -0.1645 -0.1096 -0.1750
18453W        W34714   3.347  12.493   4.044  0.2184 -0.0633  0.0832
18454W        W34715  13.590   1.445  14.074  0.3221 -0.1556 -0.1964
18455W        W34716   7.062  18.615   1.253 -0.2033 -0.1167 -0.0147
18456W        W34717   6.211  14.018   2.073  0.1490  0.0328 -0.2956
18457W        W34718   7.416  15.747   2.633 -0.1457  0.1292  0.0348
18458W        W34719  18.004   5.113  13.868  0.1736 -0.2333 -0.1383
18459W        W34720   4.941   3.504  15.362 -0.1270 -0.1877 -0.3501
18460W        W34721  13.816  18.590   1.382 -0.0782  0.0296  0.1857
18461W        W34722  16.705  16.069  15.380 -0.0709 -0.2303 -0.2158
18462W        W34723   4.254  10.177  15.401  0.0687  0.1043  0.0752
18463W        W34724  12.178   2.555   3.982 -0.0591  0.2599 -0.1260
18464W        W34725   8.412   4.363   5.270 -0.0702  0.0836 -0.1769
18465W        W34726  13.255   4.470  11.403 -0.1738  0.0210  0.0574
18466W        W34727   4.957   7.624  13.966 -0.3341 -0.0353 -0.0152
18467W        W34728  14.471  11.085  12.641  0.2474 -0.1268  0.0417
18468W        W34729  12.965   6.421  11.457 -0.0054  0.5472 -0.1491
18469W        W34730  16.642  11.154  11.486 -0.1823 -0.3908 -0.1105
18470W        W34731   1.350  12.003  14.804  0.0048  0.2096 -0.1427
18471W        W34732  10.525  10.669   2.523  0.1049  0.1800  0.0645
18472W        W34733   8.401  12.051   4.447  0.1200 -0.3317  0.1901
18473W        W34734  14.460  10.571  12.841 -0.0308 -0.1456  0.2545
18474W        W34735   3.188   2.046  13.787 -0.0740  0.0501  0.3356
18475W        W34736   9.853   1.992  14.089 -0.2059 -0.0753 -0.0013
18476W        W34737   1.253   2.495  11.466 -0.0717 -0.1278  0.0477
18477W        W34738  14.210   1.033   0.032 -0.0234  0.1339  0.2855
18478W        W34739  10.657   2.811   3.466  0.6231 -0.1046 -0.2208
18479W        W34740  10.211   6.748  15.350  0.0483 -0.0045  0.0853
18480W        W34741  10.309   9.142  12.026 -0.1968 -0.1765  0.0903
18481W        W34742  16.253  14.397   4.430 -0.0711 -0.2794  0.1624
18482W        W34743  11.235   7.771  11.045 -0.0398 -0.1043  0.0691
18483W        W34744  14.422   4.755  15.472 -0.0079 -0.6149  0.0611
18484W        W34745   2.655   9.203  15.485 -0.1524 -0.0853 -0.0710
18485W        W34746  17.945   7.083  12.325  0.2298  0.0969 -0.1699
18486W        W34747  11.098   1.566  12.180 -0.1677 -0.2229  0.0373
18487W        W34748  15.420  11.651   3.707  0.1069 -0.2346  0.2744
18488W        W34749   6.009  18.712   4.945  0.0972  0.0337 -0.1260
18489W        W34750  10.815   3.978   4.813  0.1060 -0.1680  0.0759
18490W        W34751  15.989   8.299   3.158 -0.0125  0.3847  0.0615
18491W        W34752   3.743   2.429   1.226 -0.0353 -0.1165 -0.0438
18492W        W34753   3.273   1.052  14.984  0.4443 -0.0330  0.1154
18493W        W34754   7.119   3.347  13.548 -0.0683 -0.1351  0.1177
18494W        W34755  18.514   6.842   2.255  0.1714 -0.0738  0.0794
18495W        W34756  18.737  15.478  12.832 -0.0369  0.0789 -0.0837
18496W        W34757   5.247   1.101   5.493 -0.0969  0.0595  0.0405
18497W        W34758   9.078  18.349  13.537  0.2779  0.0578  0.0168
18498W        W34759  12.223   8.626   3.254  0.0859 -0.0797 -0.1577
18499W        W34760   2.019  18.021   1.164  0.3256  0.2417  0.3055
18500W        W34761  11.643   4.221  12.224  0.3373  0.1837  0.1264
18501W        W34762   5.932  13.555  11.584 -0.0150  0.0284  0.1528
18502W        W34763  15.115  15.961   2.887  0.1404 -0.2716  0.1313
18503W        W34764   7.169   6.031  11.391 -0.3131 -0.0382 -0.3539
18504W        W34765  13.111   3.690   1.719 -0.2205 -0.1429  0.0000
18505W        W34766   1.174   1.935  13.058 -0.1443  0.1578  0.0898
18506W        W34767   5.932  11.557   1.005 -0.0620  0.2193 -0.1705
18507W        W34768   4.107  13.066   4.228 -0.1084  0.2051  0.0767
18508W        W34769   2.518   9.818   5.355  0.3931 -0.2507  0.3229
18509W        W34770   6.301   7.994   1.969  0.2876 -0.1088 -0.1511
18510W        W34771   2.538  11.448  13.865 -0.1216 -0.0894 -0.3685
18511W        W34772   5.400  15.726  14.944 -0.1764  0.0489  0.0301
18512W        W34773   2.571   3.534  12.965  0.1609 -0.1275 -0.1627
18513W        W34774  11.386  17.940   3.596 -0.2121  0.3617  0.0030
18514W        W34775   0.310   6.675   4.078  0.1376  0.1230 -0.0610
18515W        W34776  10.799   6.627   2.452 -0.2342  0.1774  0.0304
18516W        W34777   2.844  16.931   1.385  0.1326  0.1958  0.2012
18517W        W34778   6.686  15.928   4.357  0.1990  0.0575  0.1044
18518W        W34779  14.116  12.669  10.584 -0.1406 -0.1775  0.1625
18519W        W34780   0.214  15.746  12.543  0.0256  0.0441 -0.2392
18520W        W34781   5.567  11.683   1.982  0.0941  0.0848  0.1616
18521W        W34782   0.403   4.018  10.440  0.0040 -0.0013 -0.1199
18522W        W34783   7.592  10.638   2.561 -0.1986 -0.2888  0.1140
18523W        W34784   8.041  10.988   0.183  0.1182  0.2598 -0.3343
18524W        W34785   1.871  17.877   4.717  0.0283 -0.0857  0.3566
18525W        W34786   5.247  16.321  12.400  0.1818 -0.1750 -0.0997
18526W        W34787  12.165   8.535   0.216  0.1073 -0.0685  0.0831
18527W        W34788  15.302   5.895   3.964 -0.1611 -0.1909 -0.0254
18528W        W34789   2.362   5.191  13.803 -0.4336  0.0076  0.1245
18529W        W34790  18.625   3.621  14.380 -0.2496  0.1849  0.0657
18530W        W34791   4.010   8.381   1.650  0.0484  0.1033 -0.0728
18531W        W34792   0.386   0.658  15.391  0.0290 -0.2547 -0.1997
18532W        W34793  15.345  12.983  13.072  0.2455 -0.0068 -0.2302
18533W        W34794   6.674  13.419  12.723 -0.0127  0.0968  0.0275
18534W        W34795   5.685  11.278  12.405  0.2991  0.0253 -0.0222
18535W        W34796  11.908  16.373  15.393  0.0510 -0.1968  0.0660
18536W        W34797  11.640   7.768  13.656  0.0038  0.0835  0.0268
18537W        W34798  17.889   2.255  10.965 -0.0061  0.1549  0.1776
18538W        W34799  13.930   9.032   1.234  0.0097 -0.1931  0.0106
18539W        W34800  15.060   7.054   4.046  0.0215  0.1563  0.0188
18540W        W34801  18.191   2.299   1.466  0.2896  0.1441 -0.1694
18541W        W34802   7.469   0.848   0.458 -0.0203 -0.2551  0.1102
18542W        W34803   4.905   5.964  11.530  0.0516 -0.2611 -0.0273
18543W        W34804  13.778  16.384  12.746 -0.1279  0.1726  0.1481
18544W        W34805  12.675   0.903   1.418 -0.1635 -0.2336 -0.1823
18545W        W34806  16.434  12.117  12.291  0.0330  0.1095  0.2703
18546W        W34807  16.478  12.859   1.591  0.1867 -0.0640 -0.3364
18547W        W34808  11.401   2.576  11.877 -0.0791 -0.0881  0.3900
18548W        W34809   0.406  18.207  12.562 -0.2795  0.2852  0.0718
18549W        W34810  13.099  12.335  13.724  0.0434  0.0921 -0.1490
18550W        W34811   5.138   1.628  12.072 -0.3257  0.1162 -0.0554
18551W        W34812   9.208   0.966  15.398  0.3234 -0.0410  0.2978
18552W        W34813  11.863  17.632   3.781  0.0794 -0.0989 -0.1558
18553W        W34814  17.131   6.510   1.393  0.0783  0.2965 -0.1511
18554W        W34815  13.064   7.596   1.156 -0.1592 -0.0813 -0.0092
18555W        W34816  15.639  14.459  10.807 -0.2048  0.1085  0.0672
18556W        W34817  11.376   6.884   5.282 -0.1375 -0.0061  0.2501
18557W        W34818  10.345  13.233   3.602 -0.0628  0.1800 -0.0433
18558W        W34819   1.454   4.994   4.257 -0.3188 -0.4270  0.2194
18559W        W34820   3.238  17.300   2.441 -0.0454 -0.1237  0.2544
18560W        W34821  14.976   4.927   4.439 -0.0377  0.1741  0.2918
18561W        W34822  17.178  17.808   5.566 -0.0934  0.1310  0.1137
18562W        W34823   0.952   4.827  11.829 -0.2140 -0.0052 -0.2669
18563W        W34824  12.478   3.638  15.488  0.3662  0.0255 -0.0762
18564W        W34825   1.036  10.994  12.331 -0.2524  0.0545  0.2037
18565W        W34826  10.024  15.513  14.977 -0.4077 -0.0879 -0.1154
18566W        W34827  17.965  10.058  12.769  0.1987  0.0763  0.0592
18567W        W34828   2.152  12.710  12.858  0.0721 -0.0491 -0.3502
18568W        W34829   8.323   3.021   3.542  0.1564  0.1135 -0.1158
18569W        W34830   5.977  14.420   2.061 -0.3625 -0.1497  0.3497
18570W        W34831  13.071  17.074   0.557 -0.0211  0.2305  0.5106
18571W        W34832  14.404   4.648  11.762 -0.3888 -0.0938  0.0550
18572W        W34833   0.878   2.860   4.687  0.1438 -0.1772  0.4262
18573W        W34834   3.974   0.917   0.086  0.0300  0.2378  0.0499
18574W        W34835   9.762   4.481   0.834 -0.1061  0.1215 -0.1615
18575W        W34836  10.241  11.856   1.379  0.1237 -0.1073  0.0656
18576W        W34837   1.605   6.737   1.770  0.0915  0.0665  0.1075
18577W        W34838  14.132  16.896   3.996  0.2261  0.1313 -0.0707
18578W        W34839  10.256   1.871   1.954 -0.1351  0.2451  0.3769
18579W        W34840  14.087   3.669  14.097  0.0423 -0.0842  0.2305
18580W        W34841  18.313  11.791  15.041  0.1832  0.2306 -0.1590
18581W        W34842  14.211  18.509   2.745  0.1810 -0.1143  0.0259
18582W        W34843  13.505  18.355  15.479 -0.1745 -0.1345  0.0659
18583W        W34844  16.847   0.129   2.656 -0.1855 -0.0767 -0.2011
18584W        W34845   4.816  11.269   0.138  0.2467 -0.1479 -0.0385
18585W        W34846  11.702  13.048   3.090 -0.2115 -0.0431 -0.0064
18586W        W34847   2.921  15.706  14.769 -0.0154 -0.0389  0.0605
18587W        W34848   7.706  10.135   3.506 -0.1170 -0.0788  0.1257
18588W        W34849  10.471  10.717  11.735  0.2893 -0.1434  0.1127
18589W        W34850   1.032  18.434   3.162  0.0327  0.2048 -0.3298
18590W        W34851  16.129   6.158   3.761 -0.2245 -0.1279  0.1232
18591W        W34852  13.852   5.201  12.356 -0.0693  0.0036  0.1199
18592W        W34853  14.440  11.514  14.109 -0.1125  0.0812  0.1267
18593W        W34854   5.227   2.831  13.131 -0.0859  0.2136 -0.1773
18594W        W34855  14.759  11.494   3.462 -0.0251 -0.0596  0.1077
18595W        W34856  17.052   6.477  11.407 -0.0224 -0.1656 -0.0531
18596W        W34857   8.942  15.294  15.595 -0.0676  0.3120 -0.0277
18597W        W34858   4.988  14.651   2.224  0.1801 -0.3403 -0.1562
18598W        W34859  13.538  11.816   4.368  0.1593 -0.0504  0.0776
18599W        W34860  12.809   7.042  14.198  0.2368 -0.1278 -0.0507
18600W        W34861   0.155  12.947   4.604 -0.1239  0.0285  0.1855
18601W        W34862  17.556   5.661   0.072  0.1957  0.0459 -0.1428
18602W        W34863   8.292   9.668   2.962 -0.0422  0.1971 -0.1270
18603W        W34864  18.707  12.763  10.355  0.2448 -0.0330 -0.2281
18604W        W34865  11.093  14.860  11.027  0.0027 -0.0607  0.2024
18605W        W34866  14.334   9.062   0.783 -0.0647 -0.2629 -0.2388
18606W        W34867  11.478   8.572  14.581  0.3359  0.1587  0.1089
18607W        W34868  12.283   4.403  12.511 -0.0862 -0.1579  0.0502
18608W        W34869   1.287  16.594  15.343 -0.0377  0.1156  0.1319
18609W        W34870   3.237  12.907  13.475 -0.0866  0.1338  0.1159
18610W        W34871   0.764  16.942  11.395  0.0038  0.1586  0.1190
18611W        W34872  16.913   2.670   0.555  0.0323  0.0811  0.1287
18612W        W34873   3.622  10.013  12.064 -0.1237 -0.0139 -0.1218
18613W        W34874  17.248   9.125   2.400 -0.2162 -0.0070 -0.1721
18614W        W34875   7.483  18.623  14.556 -0.0793  0.0086 -0.1701
18615W        W34876   4.084  15.430  12.406  0.0952 -0.1500 -0.2994
18616W        W34877  10.085   3.848  13.765 -0.0240  0.0207  0.0533
18617W        W34878   1.885  12.468   4.614  0.0066 -0.1202 -0.0170
18618W        W34879  10.620  15.242  13.029 -0.0630  0.0775  0.0231
18619W        W34880   1.233   9.773  11.770 -0.1255  0.4100  0.2832
18620W        W34881  13.413   0.992  13.891 -0.1689  0.0980 -0.0001
18621W        W34882  17.595  14.618  14.600 -0.0104  0.3606  0.0152
18622W        W34883   4.148   8.273   4.212 -0.1092  0.0687 -0.0826
18623W        W34884   5.101  13.456   2.376  0.0840 -0.1165 -0.1921
18624W        W34885   0.075   5.599  13.847  0.4461 -0.0581  0.0418
18625W        W34886  17.914   6.942   4.837 -0.1351 -0.2293  0.1967
18626W        W34887   1.706  17.276  10.496  0.2182  0.0896  0.2103
18627W        W34888  12.899  10.154   1.782  0.3330  0.0035  0.3238
18628W        W34889   3.623  11.141   4.508 -0.0351 -0.0537  0.1892
18629W        W34890  11.470  13.728  11.232  0.0681 -0.3088  0.0578
18630W        W34891   6.112   9.777  12.947 -0.1657  0.1419 -0.0251
18631W        W34892  13.144  11.890   4.903 -0.1139  0.0515 -0.1101
18632W        W34893   9.160   8.179   5.180  0.0825  0.0689 -0.0384
18633W        W34894  18.520  15.832  13.172 -0.1045 -0.0702  0.0248
18634W        W34895   3.861  10.380  11.432  0.0038 -0.1421 -0.2765
18635W        W34896  10.225   9.118   4.226 -0.2203 -0.2091 -0.1568
18636W        W34897   3.571  13.681  13.156 -0.0756  0.0049 -0.0560
18637W        W34898   0.190   6.742   4.567  0.0225 -0.4393 -0.2636
18638W        W34899   1.343  18.586   1.171  0.0377  0.0739  0.1475
18639W        W34900  15.109  12.171   3.500 -0.3047  0.2304 -0.0947
18640W        W34901  13.766   5.758   3.458  0.5353  0.0360 -0.2571
18641W        W34902   3.321  12.853  10.933  0.0122 -0.0473 -0.2524
18642W        W34903  13.400   1.330  10.952 -0.1799  0.1336  0.3294
18643W        W34904   6.847   3.663  12.663  0.1341  0.3338  0.0607
18644W        W34905  15.955   1.712   4.371  0.1003 -0.0574 -0.2452
18645W        W34906  12.248   7.526  11.285  0.0021  0.1948  0.0938
18646W        W34907  13.791   3.335   2.060 -0.1725 -0.0261  0.2227
18647W        W34908  14.687  10.835  13.697 -0.0448  0.1689  0.2530
18648W        W34909   9.231   7.682  13.796  0.0353  0.2320  0.1120
18649W        W34910  14.637   1.188  11.720  0.1923  0.2386 -0.0676
18650W        W34911   9.877   5.514   4.933  0.2409 -0.2539 -0.1528
18651W        W34912  17.269   6.127   4.661 -0.2215  0.1582  0.0151
18652W        W34913   7.586   5.906  15.189  0.1277 -0.3590  0.1926
18653W        W34914   2.996   2.819   2.031 -0.0417  0.1483  0.0757
18654W        W34915  16.752   4.001  10.668  0.1321 -0.1604  0.0164
18655W        W34916  16.944  17.308  15.422 -0.0844  0.2248  0.1739
18656W        W34917   4.639  12.635  14.728 -0.0856 -0.0219 -0.2568
18657W        W34918   8.097   5.623  13.576  0.0161 -0.0378 -0.0645
18658W        W34919   8.573   2.651   1.972 -0.0414  0.0102 -0.1191
18659W        W34920  18.328  12.503   4.287  0.5698  0.0786 -0.0217
18660W        W34921   2.239  18.823  14.050 -0.3554  0.1400 -0.1525
18661W        W34922  18.757  11.783   4.745  0.0843  0.2349 -0.2614
18662W        W34923   0.871  18.385   0.524  0.3918  0.0842 -0.0898
18663W        W34924   5.685  14.798  13.542 -0.2731  0.0604  0.2380
18664W        W34925  16.038  13.983   1.056 -0.1271  0.2004  0.0190
18665W        W34926   6.131   6.476   0.065  0.0908 -0.1841  0.2622
18666W        W34927  11.610   1.023   0.306 -0.1132 -0.0318  0.1732
18667W        W34928  15.519   7.610   3.018  0.1584 -0.0995  0.1607
18668W        W34929   2.757   5.857  14.370  0.0166 -0.1308  0.0060
18669W        W34930   7.987   4.873  11.755 -0.0076  0.1946  0.5197
18670W        W34931   3.093   8.314  13.070 -0.0285 -0.1280 -0.1105
18671W        W34932  17.889   1.133  14.457  0.3433 -0.1436 -0.0291
18672W        W34933   2.530  11.718  11.454 -0.2064 -0.2860 -0.1412
18673W        W34934   2.128   3.249  12.203 -0.5716 -0.2956  0.2451
18674W        W34935  10.267  10.810  14.826 -0.1327 -0.1262 -0.1050
18675W        W34936   9.297   1.476   2.038  0.0553 -0.2983 -0.1095
18676W        W34937  14.431  14.266  15.040 -0.0570  0.0622  0.0598
18677W        W34938   9.051   0.077   2.289  0.0380 -0.4504 -0.2536
18678W        W34939   5.784   3.979   4.795  0.2974  0.1224  0.1636
18679W        W34940   6.575  14.234   3.194 -0.0711  0.4914  0.0429
18680W        W34941   5.768  14.807  14.059  0.1234 -0.0286 -0.1416
18681W        W34942   3.493  12.496   5.425 -0.1158 -0.0929 -0.0197
18682W        W34943   7.746   8.570   5.795  0.0686 -0.0470  0.0596
18683W        W34944   7.546  10.224   2.164 -0.1010  0.0020  0.5316
18684W        W34945   2.735  13.064   2.563  0.1666 -0.1515  0.1084
18685W        W34946   5.411  13.647   0.680  0.0921  0.1791  0.0533
18686W        W34947   4.056  16.382   3.122 -0.0883  0.1415  0.1685
18687W        W34948  14.224   6.274   0.233  0.1400 -0.1801 -0.1754
18688W        W34949   2.916  11.006   1.674  0.1485 -0.4773 -0.0720
18689W        W34950  13.916   3.271   4.721  0.0794 -0.1185 -0.0220
18690W        W34951   4.910   0.954   1.750 -0.1270  0.0293 -0.0174
18691W        W34952   7.672  12.872   4.419  0.0159  0.0340  0.0314
18692W        W34953   0.952   4.212  14.263 -0.2237  0.0828 -0.1010
18693W        W34954  14.771  17.125  11.471  0.0782 -0.2644  0.0637
18694W        W34955   4.712  14.877  11.219  0.4128  0.1420 -0.0007
18695W        W34956  10.628   1.179  11.684  0.1034  0.0975  0.3371
18696W        W34957   1.527  17.821  12.125 -0.1525 -0.1128 -0.1113
18697W        W34958  12.214   6.038   0.826 -0.0307 -0.0537  0.0869
18698W        W34959   6.058  13.258  15.010 -0.5278 -0.2213 -0.2019
18699W        W34960   1.876   8.261  13.446 -0.3710 -0.0733 -0.1474
18700W        W34961   0.310  13.656  15.070 -0.2997  0.0915  0.0467
18701W        W34962  13.767   9.752  15.244  0.0204  0.2346 -0.2616
18702W        W34963   2.175   1.879   3.873  0.1317  0.2786  0.0668
18703W        W34964   3.872   7.531   1.845 -0.0995 -0.1357 -0.0347
18704W        W34965   7.936  12.565   3.011  0.0953 -0.2648  0.0234
18705W        W34966   3.283  17.308  14.475  0.1888 -0.0383 -0.5165
18706W        W34967  12.216  14.530   2.871 -0.2133 -0.0658 -0.1233
18707W        W34968  17.840  13.216   3.304  0.0081 -0.0028  0.2462
18708W        W34969   8.138   1.362  14.810  0.0242  0.0695  0.1215
18709W        W34970  13.033  13.723  11.242 -0.0610  0.2101 -0.2505
18710W        W34971  16.942   8.749  12.869  0.0936  0.0167 -0.1442
18711W        W34972   3.373   5.265  12.920 -0.1361 -0.0739 -0.3231
18712W        W34973   2.317   2.730  13.972 -0.1697  0.2630 -0.2929
18713W        W34974  11.433  10.030   1.503  0.1320 -0.0342 -0.0266
18714W        W34975  12.199  18.676  11.991  0.0709  0.0663  0.1170
18715W        W34976  15.809  12.565   1.161 -0.0825 -0.0943  0.0697
18716W        W34977  10.616  17.037   2.906  0.0621  0.1468  0.0139
18717W        W34978   0.051   7.161   1.459  0.4056  0.3399  0.0515
18718W        W34979  14.662   7.259  11.595 -0.1110 -0.0591 -0.3547
18719W        W34980   4.015  15.679   2.326 -0.0766  0.3085 -0.1768
18720W        W34981  17.286  18.817  14.705 -0.1789 -0.0315  0.0070
18721W        W34982  11.203   6.028  12.396 -0.1515 -0.0281  0.2580
18722W        W34983   0.660   2.616  13.228  0.1427  0.1556 -0.2423
18723W        W34984   0.593  17.492   0.134 -0.0501  0.2327 -0.0124
18724W        W34985   7.296  17.395   0.429 -0.2104  0.1007 -0.0235
18725W        W34986  13.272   0.327   0.935 -0.0835 -0.3073  0.0288
18726W        W34987   3.529   9.074   4.019 -0.0793 -0.2026  0.1641
18727W        W34988   8.717  13.241  14.587  0.0478  0.0244  0.2885
18728W        W34989  16.979   2.066  11.590 -0.0401 -0.0196 -0.0368
18729W        W34990   8.374   2.018   4.520 -0.1493 -0.3140  0.3657
18730W        W34991   1.033  17.164   0.871  0.0704  0.1891  0.0666
18731W        W34992  16.241   8.950   1.183 -0.1630  0.1533 -0.0680
18732W        W34993  10.272   3.709   2.205  0.2551  0.0928  0.2767
18733W        W34994   7.990   1.768   0.515  0.0879 -0.3745 -0.1421
18734W        W34995  15.165  17.588  15.263  0.0266 -0.2764 -0.2472
18735W        W34996   1.057   9.298   2.995 -0.3329 -0.0229  0.1360
18736W        W34997   5.268   8.900  15.286  0.0315 -0.2701  0.0482
18737W        W34998   5.218  17.138   1.859  0.0813 -0.0020 -0.1370
18738W        W34999  15.502  10.207  15.265 -0.0669  0.1246 -0.1288
18739W        W35000  11.272   1.060   1.790 -0.1285  0.0140 -0.3176
18740W        W35001   3.503   6.463  12.636  0.0030  0.2397  0.1080
18741W        W35002   2.753  13.945  12.100 -0.0647 -0.0158  0.0111
18742W        W35003  11.288  18.369   1.724  0.0009 -0.1149  0.1672
18743W        W35004   6.213  18.703   3.891 -0.0597  0.3164 -0.4338
18744W        W35005  13.217  16.497  14.572 -0.1457 -0.0020  0.0543
18745W        W35006  11.918  16.510   1.450 -0.0703 -0.2345 -0.0203
18746W        W35007   3.419   5.962  13.493 -0.0493 -0.3263  0.0326
18747W        W35008   1.345  18.680   4.837  0.1092 -0.1728 -0.1516
18748W        W35009   0.942   7.301  11.905 -0.0486 -0.0886 -0.1166
18749W        W35010  10.965   2.630   1.539  0.1193  0.2973  0.0172
18750W        W35011  15.660   2.196  11.708 -0.0300  0.0301 -0.1640
18751W        W35012  15.533  10.416   4.621 -0.1797  0.2411 -0.0395
18752W        W35013  17.386   5.571   3.240  0.1624 -0.0365  0.3070
18753W        W35014   0.388   9.265   0.248  0.1928  0.0784 -0.1024
18754W        W35015  17.246   4.689   3.411  0.2275  0.1043  0.2353
18755W        W35016  13.528   4.226   4.870  0.0136  0.1745  0.0348
18756W        W35017  14.639   1.521   4.467 -0.2167  0.3246 -0.1339
18757W        W35018  14.802  10.292   1.947 -0.2019 -0.3760 -0.1995
18758W        W35019   0.855   2.924  11.520  0.2310  0.2253  0.1631
18759W        W35020  10.843   1.408   1.041  0.1129  0.2218  0.2098
18760W        W35021   9.089   2.204   3.964  0.2811 -0.1819 -0.1606
18761W        W35022   4.025  18.633  13.666  0.2406  0.2047  0.1335
18762W        W35023  16.927  11.426  10.815 -0.2632  0.0675 -0.1329
18763W        W35024  10.655   0.267   2.350  0.0963  0.1801  0.0349
18764W        W35025   6.925  17.714   1.018  0.2212  0.1578 -0.1891
18765W        W35026   1.417   3.724  14.316  0.1959  0.0353  0.3682
18766W        W35027   0.411   4.420   4.579 -0.0247  0.2578  0.0559
18767W        W35028  12.208   3.765   3.422 -0.0233 -0.0390 -0.0328
18768W        W35029  14.730   4.965   0.263 -0.0268  0.1770 -0.0375
18769W        W35030  11.343  18.445  15.434  0.1623 -0.1815 -0.0874
18770W        W35031   8.609  14.423   0.718 -0.3746 -0.1637 -0.0379
18771W        W35032  10.163  18.376   4.757  0.0243 -0.0448 -0.0722
18772W        W35033   8.117   1.732   4.863 -0.0442  0.1891  0.0162
18773W        W35034   8.236  15.572  12.514 -0.0558 -0.1704  0.1437
18774W        W35035   3.140  18.130   0.303  0.1559 -0.1082  0.2731
18775W        W35036   3.389   3.839  11.349  0.1001  0.1388 -0.0918
18776W        W35037   0.440   9.688   4.518  0.1590 -0.0840 -0.1438
18777W        W35038   2.129   3.048   4.843  0.2262 -0.0931 -0.3837
18778W        W35039   3.571   2.322   3.302  0.0691  0.2632  0.1996
18779W        W35040  13.358   1.399   1.681 -0.0998  0.2644  0.0864
18780W        W35041  16.991   3.562  11.683 -0.0530  0.1775 -0.1829
18781W        W35042   6.715   0.822   2.646 -0.0085 -0.0837 -0.0323
18782W        W35043  16.426  18.702   1.470  0.1952  0.0677  0.3817
18783W        W35044  17.881   1.264  10.514 -0.1355  0.2954  0.0586
18784W        W35045  11.880   1.497   1.312  0.1391 -0.1492 -0.0507
18785W        W35046   2.572   2.452  13.244  0.0983 -0.2858 -0.1968
18786W        W35047   6.223  11.192   3.999 -0.1287  0.0397 -0.1547
18787W        W35048   7.620   3.589  10.792  0.0425  0.1360  0.1870
18788W        W35049  14.866   5.815  14.794 -0.4191 -0.1535 -0.1573
18789W        W35050  16.713  17.360  11.992 -0.2295 -0.1387  0.3925
18790W        W35051   2.255   0.824   1.397 -0.5217  0.2443  0.2978
18791W        W35052  14.536  11.645   1.240  0.2305 -0.2062 -0.2214
18792W        W35053  15.741  15.617   4.328 -0.1948 -0.1118  0.1270
18793W        W35054  17.247  18.385  10.687  0.0477 -0.2173  0.0154
18794W        W35055  18.749  17.221  13.972 -0.1290 -0.0720  0.2106
18795W        W35056  13.219  11.573  13.464  0.0228  0.0771 -0.2586
18796W        W35057   5.758  10.185  13.939 -0.0120  0.3866 -0.1647
18797W        W35058   4.840  13.701   0.705 -0.0339  0.1559  0.0561
18798W        W35059  12.530  12.721  13.850  0.3701  0.0528 -0.3251
18799W        W35060  18.201  14.004   9.588  0.1035  0.0120 -0.1316
18800W        W35061  17.131   6.481   3.437  0.2177 -0.0987 -0.2765
18801W        W35062  13.424  15.828   0.020  0.1721  0.3267 -0.1775
18802W        W35063  13.877  12.054   1.440  0.1077  0.0730  0.4372
18803W        W35064   3.504  18.333  14.708  0.2514 -0.0732 -0.2149
18804W        W35065   4.279  16.025  14.664 -0.1254 -0.3092 -0.1647
18805W        W35066  13.733   2.087   0.241  0.3952  0.1356  0.1674
18806W        W35067  16.958   8.454   2.636  0.1293 -0.1354  0.1807
18807W        W35068   5.933   5.512   5.030 -0.1033  0.0291  0.2018
18808W        W35069  10.646  12.936   4.454  0.0423  0.1666  0.0173
18809W        W35070  12.780   8.251  12.772 -0.4283 -0.1771 -0.2592
18810W        W35071   8.942   5.302  14.584 -0.1616 -0.0159 -0.3395
18811W        W35072  10.320   5.418  14.879 -0.2560  0.0361  0.0046
18812W        W35073  13.146   9.464  10.821 -0.5134  0.3120 -0.1135
18813W        W35074   3.059   5.891   1.867  0.3758 -0.0657  0.3259
18814W        W35075   2.418   6.251  15.460 -0.0620  0.0486 -0.0587
18815W        W35076   6.132   8.708  13.549  0.2185  0.0449  0.1201
18816W        W35077   0.433  12.676   0.745  0.1782 -0.1340  0.0172
18817W        W35078   6.670   9.856   0.040  0.1719 -0.1209 -0.1200
18818W        W35079  10.023  14.907   1.233  0.0429 -0.0640 -0.2150
18819W        W35080  14.768   4.536  13.702 -0.1641 -0.2162 -0.0698
18820W        W35081  10.532  12.933  15.015  0.0807  0.1111 -0.4289
18821W        W35082   9.776  18.605  13.050 -0.2759  0.2653  0.0934
18822W        W35083   0.772   3.670   2.512  0.0480 -0.3687  0.1379
18823W        W35084  16.955  15.197  10.668  0.0791  0.2585  0.2058
18824W        W35085   0.097  12.877   3.471  0.0886 -0.0931  0.1250
18825W        W35086  18.363   4.343  10.319  0.1614  0.0991 -0.0365
18826W        W35087   0.406  13.336  13.165  0.1713 -0.0351 -0.1128
18827W        W35088  12.784  15.378   0.978 -0.1845 -0.0893  0.0548
18828W        W35089  16.972  12.261   4.000 -0.1744  0.3843 -0.0619
18829W        W35090  11.079  13.304   4.147  0.1249 -0.1036 -0.1828
18830W        W35091  11.638   8.621   2.896  0.0964 -0.1975  0.0846
18831W        W35092   8.383   4.514   4.640  0.1452 -0.1280 -0.2341
18832W        W35093   3.478  17.742   2.360  0.0921  0.0998 -0.2848
18833W        W35094  11.744  13.057   4.518  0.3518  0.3186  0.0751
18834W        W35095  17.353  18.014   1.939 -0.1359  0.0643  0.0145
18835W        W35096   7.328  11.067  12.629 -0.2018  0.0230 -0.1403
18836W        W35097  15.384   6.228   3.130 -0.1373 -0.0775 -0.0785
18837W        W35098  10.493   1.486   4.348 -0.3066 -0.0023  0.1167
18838W        W35099  16.431  13.230  14.747  0.1530 -0.0525  0.1360
18839W        W35100  14.601   6.938   2.228  0.0079 -0.1391  0.0395
18840W        W35101  12.576   7.980   3.735 -0.0548 -0.0891 -0.1423
18841W        W35102  10.788  15.810   1.778  0.1281 -0.2015 -0.1906
18842W        W35103  18.168  17.335  15.345  0.1388  0.0985 -0.1538
18843W        W35104   4.180   8.000  13.588 -0.2125  0.0356 -0.1916
18844W        W35105  15.014   1.885   2.150  0.2220  0.4907  0.4214
18845W        W35106  16.684   3.214  11.792 -0.0893 -0.0341 -0.1415
18846W        W35107  13.304   0.059  13.876  0.0962  0.1336  0.0941
18847W        W35108   6.758   3.800  15.139  0.0843 -0.0975 -0.1258
18848W        W35109  14.522   8.556  13.402 -0.2496 -0.0145 -0.2563
18849W        W35110   6.833  17.980  12.838  0.1329 -0.3569 -0.2690
18850W        W35111  13.455   8.413   3.100 -0.4701  0.0845 -0.2032
18851W        W35112  18.656   0.233  11.727 -0.2823 -0.1518  0.2389
18852W        W35113   3.509   1.115  14.369 -0.1240  0.0642 -0.2230
18853W        W35114   8.328  16.378   0.102  0.0226 -0.2863 -0.0268
18854W        W35115   9.932   1.214   2.784 -0.0404 -0.3161 -0.2069
18855W        W35116  16.446   6.830   5.208 -0.2644 -0.1447  0.1027
18856W        W35117  11.279  12.464  12.983 -0.0240 -0.0214  0.3332
18857W        W35118  12.741   0.638   5.402 -0.2516 -0.1356 -0.2214
18858W        W35119  15.699  15.874   3.305 -0.1672  0.3836  0.1840
18859W        W35120   7.906   1.852   6.148  0.1112 -0.2475  0.1900
18860W        W35121   5.566   0.684   4.132 -0.0181  0.2040  0.0809
18861W        W35122  10.454  17.851  13.121  0.1838  0.1579  0.2426
18862W        W35123   1.558   4.117  11.096 -0.4558  0.1456 -0.0004
18863W        W35124   0.275   2.424   3.821 -0.0150 -0.1063  0.1384
18864W        W35125   2.968   5.990  11.263 -0.0003 -0.1720  0.2300
18865W        W35126   6.565   9.463   3.621 -0.1448 -0.0429 -0.0127
18866W        W35127   2.595  12.755  14.141  0.0785 -0.0502 -0.0150
18867W        W35128  17.417  15.268  14.004 -0.0623  0.0210 -0.2367
18868W        W35129  14.218  18.266  12.536 -0.2280 -0.1495  0.0799
18869W        W35130   2.031   3.923  11.319  0.0073  0.1132 -0.0280
18870W        W35131  17.463   3.184  13.755  0.2286 -0.1236  0.2650
18871W        W35132   8.977  18.670  13.928  0.5477  0.1190 -0.1064
18872W        W35133   9.550   9.065  11.344  0.2076  0.0208  0.4372
18873W        W35134   7.237   4.509   0.410  0.1786  0.0812  0.0738
18874W        W35135  18.394   7.338   1.163  0.0208 -0.0447  0.0634
18875W        W35136   2.244   8.446  12.677 -0.1412  0.1180 -0.1025
18876W        W35137   6.095   2.265   2.344 -0.2482 -0.0788 -0.0469
18877W        W35138  16.558  12.298   3.616  0.0941  0.3222  0.3147
18878W        W35139  14.871  18.505  10.848  0.0931  0.1700  0.2334
18879W        W35140   9.727  18.087   2.907 -0.4095 -0.1784  0.0209
18880W        W35141   9.146   1.132  11.549  0.1701 -0.1055 -0.0403
18881W        W35142  14.584   7.469   5.448  0.1449  0.3381  0.1195
18882W        W35143   0.148   2.156  15.542  0.0091 -0.2845  0.1854
18883W        W35144   1.691   6.856   4.531 -0.2989 -0.0694  0.0038
18884W        W35145  18.173  16.927   4.618 -0.2206  0.1918  0.0853
18885W        W35146  13.059  13.319   2.950 -0.2413 -0.4078  0.0759
18886W        W35147   1.796  10.836   9.907  0.1134  0.3157  0.0167
18887W        W35148  10.009   4.915  12.455  0.1318 -0.1553  0.1229
18888W        W35149  10.485  18.218   2.223 -0.0995 -0.1154  0.1736
18889W        W35150   0.409  12.387   3.164  0.1764  0.3278 -0.2146
18890W        W35151   4.771   1.764   0.878 -0.2201  0.2647 -0.1627
18891W        W35152   6.312  11.805  14.443  0.0705  0.2151 -0.1445
18892W        W35153  16.113  16.077  11.948  0.0434  0.0961  0.5093
18893W        W35154   0.486   5.058  12.088  0.1010 -0.1902  0.1313
18894W        W35155   4.433   1.985  11.285  0.1635 -0.2367 -0.3304
18895W        W35156   7.698   6.117   3.771 -0.2607 -0.1817 -0.2342
18896W        W35157  12.937   0.081   1.324  0.0449  0.0171  0.2269
18897W        W35158   6.491  16.296  15.357  0.5123 -0.1554  0.1734
18898W        W35159  14.039  16.233   2.263  0.0629  0.1058  0.1714
18899W        W35160   8.119  12.498  14.763 -0.0629  0.2453  0.0435
18900W        W35161   4.353   0.233   3.468 -0.0824  0.1575 -0.1125
18901W        W35162   6.750   9.062   3.298 -0.1278  0.0778 -0.0309
18902W        W35163   5.285   4.994   0.208  0.3094  0.2963 -0.0480
18903W        W35164   7.612  14.764  14.080 -0.1724 -0.0581  0.0537
18904W        W35165   2.116   3.562   1.310  0.1810 -0.1429  0.0461
18905W        W35166  17.120   1.588  11.273  0.1933 -0.2107 -0.0644
18906W        W35167   3.426   6.133  14.470 -0.3199 -0.0332 -0.2828
18907W        W35168   0.770   3.186  14.777  0.1414 -0.0841 -0.1559
18908W        W35169   0.414   6.921  15.094 -0.4949 -0.0033  0.0969
18909W        W35170  16.452  18.625  11.074 -0.0118  0.1378 -0.1086
18910W        W35171   6.221  16.883   1.022 -0.2027 -0.1300 -0.0181
18911W        W35172  14.929   2.239  14.151  0.0771  0.4235 -0.2549
18912W        W35173  13.869  17.347  12.990 -0.1639 -0.3061 -0.0294
18913W        W35174  16.769  10.420  14.657 -0.0844 -0.1516 -0.0050
18914W        W35175  10.665   5.759  13.469  0.1065 -0.0109  0.0265
18915W        W35176  18.067   5.483  11.715  0.1933 -0.3097 -0.1939
18916W        W35177   0.590   1.339   1.709  0.1996 -0.2764 -0.3626
18917W        W35178   8.802   3.201  12.541  0.1201 -0.0405  0.1676
18918W        W35179   3.959   0.183  11.247  0.0558  0.0416  0.0383
18919W        W35180   3.961   4.223  13.515 -0.1948  0.0347  0.0501
18920W        W35181  14.076   2.708  11.896  0.2157  0.0246  0.3223
18921W        W35182  14.605  12.848   3.076 -0.0008 -0.0584  0.2019
18922W        W35183   5.407   8.122   3.076  0.4210 -0.0553 -0.0719
18923W        W35184  10.966  15.112   5.550  0.1280 -0.1331  0.2312
18924W        W35185   6.476  16.532   3.911  0.1272  0.6029  0.1363
18925W        W35186  11.718   4.449   1.308  0.2037  0.0536 -0.0071
18926W        W35187  16.198   6.288  11.765 -0.0965 -0.0969 -0.1024
18927W        W35188   4.081   0.458  15.344 -0.0754  0.3723  0.1262
18928W        W35189  15.913   1.114  14.051  0.0506 -0.1348 -0.1885
18929W        W35190  13.255  11.521  10.520  0.0827  0.1925  0.1900
18930W        W35191   9.075   0.891   3.796 -0.2775 -0.0190  0.2705
18931W        W35192  18.601   4.360   2.580 -0.0131 -0.1283  0.1039
18932W        W35193   0.763   6.565   4.538 -0.0753  0.2124  0.2267
18933W        W35194   4.864   3.199  11.666 -0.1130 -0.0070  0.2841
18934W        W35195  18.778  13.390   4.443  0.1513  0.0755 -0.0732
18935W        W35196   8.443   2.848  11.831  0.4201 -0.2845  0.1617
18936W        W35197   7.671  15.109   3.652  0.1919  0.1707  0.3247
18937W        W35198  13.093   1.655   1.286  0.1647 -0.0515  0.1141
18938W        W35199   1.163   7.660   2.004 -0.2275  0.0289 -0.1652
18939W        W35200   7.236   5.013  15.161 -0.1808  0.0422  0.1086
18940W        W35201  18.460  16.042   4.050  0.4134  0.0927 -0.0941
18941W        W35202   3.448  12.858  11.463 -0.2391 -0.1667 -0.2042
18942W        W35203   4.716   1.784   0.143  0.2722  0.1652 -0.1306
18943W        W35204   9.450   7.996   3.078  0.2072 -0.3696 -0.1617
18944W        W35205   8.677  10.754  14.757  0.1315 -0.4149 -0.0383
18945W        W35206   9.285  12.887   1.346 -0.0561  0.2171 -0.1516
18946W        W35207   9.925   3.789   4.861 -0.2587  0.2035  0.1019
18947W        W35208  11.405  15.786  13.887  0.3912  0.0146  0.1370
18948W        W35209   5.302   0.310   3.820  0.0398  0.0055  0.1095
18949W        W35210  16.025   7.361  15.315 -0.0289  0.2293 -0.1608
18950W        W35211   0.776  17.207  13.959  0.0310  0.3340 -0.0623
18951W        W35212  15.276   2.935   5.129 -0.2511  0.0948 -0.0208
18952W        W35213   5.223  11.528   2.371  0.1803 -0.1253  0.0531
18953W        W35214   5.870   8.136  12.599  0.2919 -0.0473 -0.0464
18954W        W35215   0.051  12.952  13.308  0.1415 -0.1000 -0.1132
18955W        W35216  10.410   8.180  12.312  0.2175 -0.3028 -0.0298
18956W        W35217  13.035   1.780  11.934 -0.2017  0.2026 -0.2510
18957W        W35218  11.041   9.560  14.245 -0.2479  0.0056 -0.2705
18958W        W35219  11.512   2.363  12.330 -0.0476  0.4109  0.1622
18959W        W35220   0.659  15.096   1.400  0.3207  0.4837  0.0526
18960W        W35221  16.168  17.080   1.823 -0.2114  0.0952  0.2680
18961W        W35222   9.552  12.263   4.045  0.0658 -0.1813 -0.2126
18962W        W35223   5.452  17.332   3.510  0.0879  0.3016  0.0664
18963W        W35224  18.751   4.966   3.320  0.4838 -0.0951  0.1035
18964W        W35225  13.454  11.358  11.739 -0.1532 -0.2304  0.0269
18965W        W35226   3.355  18.406   1.696 -0.0270  0.0536 -0.0640
18966W        W35227  12.455  13.351  13.166  0.0909  0.1870  0.0508
18967W        W35228   9.924   5.473   1.587 -0.1217 -0.2227  0.1135
18968W        W35229   1.962   9.712   0.180  0.0725 -0.0709 -0.0240
18969W        W35230   0.891  10.078   0.106 -0.0045  0.7965  0.0125
18970W        W35231  12.128   3.356  15.199  0.1331  0.1327  0.0230
18971W        W35232   5.007   0.645   1.290 -0.1229  0.0026  0.1175
18972W        W35233   2.870   8.821  10.978  0.0033  0.0901  0.0859
18973W        W35234  12.193  18.390   3.866  0.3604  0.4101  0.1425
18974W        W35235   3.882  17.588   3.151 -0.1001  0.2675  0.0690
18975W        W35236   5.047   2.590   5.392 -0.2155  0.1683 -0.1216
18976W        W35237   8.638  11.618   3.009 -0.3527  0.0493 -0.1091
18977W        W35238  17.155   0.431  14.750 -0.2546 -0.1814  0.1999
18978W        W35239   4.413   8.995  13.549  0.0373 -0.0797  0.1293
18979W        W35240   5.494   4.109   1.324  0.3514  0.3532  0.1073
18980W        W35241  10.589  17.490   3.029  0.0787 -0.0521  0.0670
18981W        W35242   5.984  12.641   1.913  0.1803 -0.2642  0.2269
18982W        W35243   7.485  17.629   2.813 -0.0109 -0.1506  0.1311
18983W        W35244   3.868   0.587   1.849  0.0377  0.2123  0.2507
18984W        W35245  10.366  12.920  10.980  0.0516  0.2457  0.1082
18985W        W35246  17.321   1.349   2.902  0.2324 -0.3012  0.2637
18986W        W35247  15.413  16.380  14.570  0.3381 -0.0649  0.0321
18987W        W35248  10.054   6.357  15.543 -0.1005 -0.3205 -0.1548
18988W        W35249   6.775   0.343   2.803 -0.3000  0.2059  0.0296
18989W        W35250   6.342   1.103   1.342  0.2077 -0.2524 -0.0876
18990W        W35251  11.645  10.643  11.159 -0.2299 -0.2122  0.0553
18991W        W35252   7.538  16.028  12.775  0.0736 -0.1598 -0.3329
18992W        W35253  17.592   1.279  12.145 -0.1703  0.1144 -0.1739
18993W        W35254  17.109   7.047   0.448  0.1393 -0.0605 -0.0651
18994W        W35255   1.553   2.062   0.739 -0.1818  0.0413 -0.0383
18995W        W35256  13.236  10.943  14.980 -0.2534  0.1607  0.0041
18996W        W35257  13.496  16.095   3.305  0.2246  0.0345  0.2366
18997W        W35258  13.566  18.722   4.188 -0.1244 -0.3418 -0.2328
18998W        W35259  14.795   3.122   4.973 -0.3705 -0.1070 -0.1012
18999W        W35260  17.883  16.014  15.571 -0.0565 -0.2778 -0.2606
19000W        W35261   1.747  12.445  13.066  0.3657 -0.0394 -0.0306
19001W        W35262  10.976   6.290   0.592 -0.1216  0.0691 -0.1430
19002W        W35263   4.233   5.543  12.176 -0.0084  0.0728 -0.4139
19003W        W35264  15.892   0.156  10.295 -0.2347 -0.3027  0.0434
19004W        W35265   6.153  13.521   0.191 -0.1312 -0.1938 -0.2215
19005W        W35266   6.747  10.692  11.426  0.0050 -0.0454 -0.0027
19006W        W35267  11.718  14.026   1.697 -0.1666 -0.0210  0.2846
19007W        W35268  10.480   5.341   2.373 -0.1121 -0.2220 -0.0050
19008W        W35269  18.617   6.380   0.391  0.2347  0.2242  0.1180
19009W        W35270  17.326   7.991  14.176 -0.0154  0.0697  0.0546
19010W        W35271   9.814   9.444  13.579  0.1489  0.0486 -0.1963
19011W        W35272  14.949   0.089   1.098  0.0498 -0.0383  0.1083
19012W        W35273  11.581  12.514  14.021  0.0461 -0.2326  0.0045
19013W        W35274   1.005   3.473   4.284  0.2414  0.1543 -0.0912
19014W        W35275   3.698  13.140   0.397 -0.2011 -0.0229 -0.2067
19015W        W35276   9.959   8.737   2.577 -0.1185  0.0719  0.0160
19016W        W35277  13.902   8.452   0.474  0.2615  0.0352 -0.3108
19017W        W35278  16.480  17.525  12.454  0.3926  0.1561  0.1344
19018W        W35279  16.165   8.632  13.973  0.2461  0.3090  0.4005
19019W        W35280   3.965  11.207  11.692  0.0743 -0.2804 -0.0956
19020W        W35281  17.918   5.377   0.871  0.0125  0.0588  0.0242
19021W        W35282  15.436   1.391   3.634  0.1358  0.0607 -0.2527
19022W        W35283  11.269   3.897   6.115 -0.3089 -0.2108 -0.1765
19023W        W35284  13.703   9.922   0.078  0.0344 -0.0789 -0.4755
19024W        W35285  17.287   6.636   0.096  0.1385  0.2269 -0.2652
19025W        W35286   9.626  13.737  14.961  0.2580 -0.0945  0.1928
19026W        W35287   7.660   6.882   1.102 -0.1065 -0.0774 -0.0331
19027W        W35288  17.125  18.101   3.505 -0.0992  0.2041 -0.1190
19028W        W35289  13.914   9.476   4.110  0.2011  0.1969 -0.0984
19029W        W35290   4.731  10.445   1.900  0.1842  0.0996 -0.1539
19030W        W35291   4.975  16.370  13.531 -0.3369  0.1145  0.1876
19031W        W35292  10.407  17.808   0.860  0.2487 -0.0465  0.3488
19032W        W35293   5.416  15.911   5.076 -0.1799  0.1012  0.2275
19033W        W35294   8.075  16.585  13.773  0.2458  0.1032 -0.2876
19034W        W35295  13.950  14.194   0.154  0.0443 -0.0815 -0.1248
19035W        W35296   3.917   6.520  14.024  0.0578  0.0304  0.1043
19036W        W35297  17.343  14.730  12.152 -0.0316  0.1326 -0.4544
19037W        W35298  15.431  13.329   0.952  0.0835  0.1808  0.3200
19038W        W35299  11.595   7.748   4.004  0.2318 -0.2617 -0.1150
19039W        W35300  17.667   4.923   1.698  0.0074  0.1783 -0.0523
19040W        W35301  14.363  15.599   0.001 -0.2448  0.3565 -0.1746
19041W        W35302   2.869  16.278  10.792 -0.0946 -0.3798 -0.3014
19042W        W35303   7.349   8.739   3.016  0.2254  0.1686 -0.6812
19043W        W35304  17.144   4.361   3.933 -0.1338  0.2021 -0.0593
19044W        W35305  10.991   7.366   5.204  0.1445 -0.0070 -0.3557
19045W        W35306  15.462   4.572  11.213 -0.0145 -0.0163  0.1649
19046W        W35307  12.289   1.676   3.438  0.1034  0.1329 -0.0747
19047W        W35308   2.564   9.372   0.901 -0.0379 -0.2233  0.1923
19048W        W35309  10.104   9.748  13.270 -0.0435  0.0940  0.2401
19049W        W35310   6.319   4.931   4.236 -0.0387  0.1212 -0.1703
19050W        W35311   5.142  15.166   4.057  0.1328 -0.1102  0.2058
19051W        W35312  10.916  17.696   3.445 -0.0701 -0.3073 -0.2241
19052W        W35313  15.288   8.117  15.085  0.1362  0.2560  0.1281
19053W        W35314  14.771  15.980   5.266  0.2600  0.0264 -0.2836
19054W        W35315  16.029   2.570   4.865 -0.2752  0.1583 -0.4189
19055W        W35316   6.825  10.349  12.938 -0.0039 -0.1942  0.0958
19056W        W35317  14.675   5.133  15.212 -0.4068 -0.0716  0.1299
19057W        W35318   2.591  18.516   0.355  0.2455 -0.2489 -0.3384
19058W        W35319   2.918  12.014  11.625  0.0759  0.1749  0.1963
19059W        W35320  13.482  10.405   2.172  0.1039  0.0480 -0.2598
19060W        W35321   5.456   5.478   5.031  0.5078  0.1662 -0.0709
19061W        W35322  10.432   4.530  14.390 -0.0710  0.1821  0.1298
19062W        W35323   4.671  12.627   2.839 -0.0104 -0.0597 -0.0854
19063W        W35324  16.372   1.034  13.939  0.0485 -0.0173  0.0554
19064W        W35325  10.756   1.681   3.175  0.0520 -0.1555 -0.0399
19065W        W35326  15.989  14.961  10.941 -0.1727 -0.0184  0.1838
19066W        W35327  10.806   1.433   5.780 -0.0836 -0.0478 -0.3080
19067W        W35328   9.806  12.389  12.576 -0.0179  0.1279 -0.4832
19068W        W35329  15.283  10.660  15.395 -0.1294  0.2155  0.2985
19069W        W35330   1.789   3.842   4.408 -0.3505 -0.1620 -0.1786
19070W        W35331  17.338  10.890  13.579 -0.0110 -0.1519  0.0595
19071W        W35332  12.840   7.287   4.449 -0.1900 -0.0525  0.1910
19072W        W35333   2.589   6.653   4.216  0.0033  0.0446 -0.0997
19073W        W35334  10.211   8.520   1.174  0.2949  0.1700 -0.4188
19074W        W35335  12.848  16.203  14.567 -0.4841 -0.2014  0.0677
19075W        W35336  18.509   5.990  14.727 -0.0283 -0.0501  0.4560
19076W        W35337  13.477   4.422   3.553 -0.0430 -0.0863  0.1684
19077W        W35338   1.532   4.247  14.236  0.5049  0.0072  0.0438
19078W        W35339  16.781   0.979   2.240  0.3995  0.0161 -0.0355
19079W        W35340  11.825  16.067  12.666 -0.0326  0.0403 -0.2142
19080W        W35341  10.049   7.744   2.435  0.0700  0.2197 -0.2692
19081W        W35342  10.854   6.856   5.280 -0.3755 -0.2264  0.4114
19082W        W35343  13.051  14.057  15.226 -0.0834  0.1253  0.1356
19083W        W35344   4.243   1.801  14.284 -0.2369 -0.0054  0.2647
19084W        W35345  17.436  15.290   5.476 -0.2112  0.0314 -0.1273
19085W        W35346  13.597  10.305   1.160  0.1304  0.0731 -0.1154
19086W        W35347  17.501  13.209  13.796  0.2329 -0.0756  0.0967
19087W        W35348  17.182  15.971  14.888 -0.1445 -0.2084 -0.0594
19088W        W35349   9.341   2.423   4.637 -0.2073 -0.0634 -0.0679
19089W        W35350   1.156  14.353   1.577 -0.0469 -0.0988  0.1832
19090W        W35351  13.621   0.188   2.126 -0.1520  0.2588 -0.2089
19091W        W35352   9.248   0.606   4.303 -0.1230  0.2452 -0.2593
19092W        W35353  13.941  18.428   0.841  0.0617  0.0627 -0.1063
19093W        W35354   6.015  13.338  12.036  0.2215  0.0584 -0.1043
19094W        W35355   8.326  11.228   2.941 -0.0987  0.1526 -0.1524
19095W        W35356   4.512   3.001   2.162  0.1473 -0.1192  0.1148
19096W        W35357  17.628   9.344  14.179 -0.2757 -0.5520  0.3226
19097W        W35358   8.278   5.341   4.706  0.1313 -0.1307  0.2273
19098W        W35359   4.184  18.241   0.828 -0.0533  0.3655 -0.2970
19099W        W35360  18.759   5.969  11.691  0.1136  0.2003  0.0681
19100W        W35361  16.799  12.615  12.979 -0.1982 -0.0088 -0.0536
19101W        W35362  15.301  11.899   5.799 -0.0327 -0.1464 -0.0373
19102W        W35363  16.944   1.904  14.973  0.2715 -0.0317 -0.1731
19103W        W35364   4.018   5.875  11.256  0.1313  0.2512  0.1830
19104W        W35365   7.373  17.327  12.480  0.0370 -0.2180  0.0252
19105W        W35366  17.417  14.640  10.037 -0.3538 -0.1049  0.2614
19106W        W35367  13.249   6.024  13.193 -0.2360  0.0704 -0.1354
19107W        W35368   2.606   3.475   1.413 -0.1997 -0.1294  0.0654
19108W        W35369   6.185   5.411   3.930 -0.3097 -0.0732 -0.2493
19109W        W35370  17.346  18.497  15.129 -0.1785  0.0249 -0.3602
19110W        W35371   1.090   9.646   3.713 -0.0911 -0.1302 -0.1511
19111W        W35372   5.425  18.203   3.724  0.2092  0.1430 -0.0676
19112W        W35373  15.098   0.753   4.244 -0.1263  0.0633 -0.0085
19113W        W35374  16.479   4.605  11.539 -0.1670  0.3242  0.0778
19114W        W35375   2.883   5.678   3.503 -0.0489  0.3833  0.2990
19115W        W35376   4.453   6.690  15.088  0.3317 -0.0755 -0.6222
19116W        W35377   7.449  17.019  14.520 -0.3387  0.1767  0.0423
19117W        W35378  13.489   5.201   2.073  0.0943 -0.1878  0.1404
19118W        W35379  17.908  14.720   0.725 -0.1177  0.1304  0.0611
19119W        W35380  10.010  10.860  13.615 -0.0087 -0.1374 -0.0506
19120W        W35381  15.744  14.246  12.723  0.4220 -0.1447  0.1298
19121W        W35382  14.680  18.318   2.732 -0.1054 -0.2173  0.0815
19122W        W35383  11.634  11.492   3.199 -0.0223  0.4007  0.1542
19123W        W35384   0.530  15.316  15.344 -0.2308  0.3087 -0.0546
19124W        W35385  10.221  17.133  14.929 -0.2163 -0.2076  0.0574
19125W        W35386  12.313   9.725  15.322  0.0701 -0.1730  0.0843
19126W        W35387   9.358   8.785  12.167 -0.0778  0.0575 -0.0776
19127W        W35388  16.454  18.699   0.985  0.3243  0.0769  0.3139
19128W        W35389   4.751   1.917   1.767 -0.1505  0.0212 -0.0028
19129W        W35390  13.861   2.949   2.377 -0.1447 -0.0764  0.2214
19130W        W35391   8.278   3.850   2.538 -0.2179  0.0311 -0.2564
19131W        W35392   2.943  11.781  12.314  0.1237 -0.0878  0.1368
19132W        W35393  17.032  16.163  12.563  0.3896  0.0332  0.0911
19133W        W35394   3.916  10.232  13.266 -0.5241 -0.1312 -0.4421
19134W        W35395   4.943  15.399   0.974 -0.0133 -0.1283  0.0326
19135W        W35396   5.287  11.429  15.503 -0.0078 -0.2005 -0.2408
19136W        W35397   2.282   0.556   1.804  0.1747 -0.1968  0.1681
19137W        W35398   3.642   1.189   0.302  0.3271  0.0594  0.0199
19138W        W35399  12.070  13.465   0.208  0.2287  0.0889  0.2056
19139W        W35400  14.512  12.676  13.897  0.0004 -0.1876  0.2207
19140W        W35401   1.190  15.036   9.855 -0.0731  0.1491 -0.1845
19141W        W35402  10.256  15.377   0.125 -0.0352 -0.1657  0.1138
19142W        W35403   4.814   7.310   3.860  0.0403  0.2130  0.0139
19143W        W35404   2.467   3.302  14.302  0.4165  0.3978  0.2670
19144W        W35405  14.606   8.735   2.343 -0.1064 -0.0299 -0.0093
19145W        W35406  15.100  13.602   3.097 -0.0161 -0.0679 -0.3232
19146W        W35407   5.223   9.069   4.029  0.0036  0.0812 -0.0290
19147W        W35408   4.032  10.747  11.056 -0.0174 -0.1832  0.1553
19148W        W35409   4.615  13.933   4.167 -0.1039 -0.1753 -0.2413
19149W        W35410   8.754  16.156   1.178 -0.2670 -0.2372 -0.2008
19150W        W35411   7.202  14.095   3.112 -0.0396  0.1660  0.1035
19151W        W35412   2.806   0.950   3.805  0.0858  0.0324  0.1687
19152W        W35413  14.800  12.410   2.914  0.0236  0.3224 -0.1513
19153W        W35414  16.824  11.743  15.336 -0.0961  0.0212  0.1383
19154W        W35415   5.816  17.929   5.344  0.0426  0.2593  0.0792
19155W        W35416  13.180   4.996  12.534 -0.0753 -0.2756 -0.1302
19156W        W35417   5.819  13.616  14.757 -0.1463 -0.0519 -0.2131
19157W        W35418  12.662   0.292   4.438 -0.1962 -0.0148  0.0939
19158W        W35419   7.070   8.022   2.436 -0.1187  0.2604  0.0528
19159W        W35420  11.367  13.516  12.400  0.1671  0.0885  0.0834
19160W        W35421   2.063  10.648  12.520 -0.3586  0.3233 -0.0640
19161W        W35422  17.192  18.537  14.287  0.1349 -0.1134  0.1322
19162W        W35423  12.045  11.510   2.243 -0.1304  0.1544  0.0667
19163W        W35424  16.704  13.773  15.497 -0.0921 -0.2440  0.1523
19164W        W35425  18.627   2.906  12.591  0.2122 -0.3290  0.0150
19165W        W35426  17.851  11.926   5.265 -0.1989  0.2419  0.4247
19166W        W35427  10.654   8.102  12.879 -0.0789  0.0289 -0.1341
19167W        W35428   0.627   8.296   3.105  0.0546  0.3264  0.1475
19168W        W35429   5.794  11.410   3.979 -0.0377 -0.0540 -0.1033
19169W        W35430   4.526  18.366  13.818  0.0590 -0.0585 -0.1520
19170W        W35431  10.167  15.857   2.362 -0.2199  0.0750  0.1606
19171W        W35432   4.810  18.252  14.697  0.0944  0.0581 -0.1555
19172W        W35433   7.178  16.028  11.311 -0.1641  0.1681  0.0529
19173W        W35434  13.575  11.777   1.794  0.0542 -0.1051  0.0613
19174W        W35435   8.451   6.685  12.395  0.0850 -0.1475  0.2796
19175W        W35436   9.615   7.658   6.044  0.1093 -0.1410  0.2361
19176W        W35437  17.148  14.662   3.200  0.3244 -0.0954  0.0759
19177W        W35438   9.632   1.111   5.565 -0.2484  0.0150 -0.1498
19178W        W35439  17.274  14.472  12.573  0.3671  0.2858 -0.2582
19179W        W35440   4.122   6.329  15.199 -0.0958  0.0939 -0.1069
19180W        W35441  17.449  16.658  14.417 -0.1078 -0.1789  0.2805
19181W        W35442   6.831  16.878  12.289  0.3261 -0.1760 -0.0219
19182W        W35443   3.935  14.851   4.077 -0.3437  0.1518  0.0694
19183W        W35444  18.613  10.860  10.972  0.0236 -0.0982 -0.0647
19184W        W35445   6.407  12.551  11.895  0.1473 -0.0706 -0.0446
19185W        W35446  16.956   3.260   4.110  0.3405  0.1906  0.1464
19186W        W35447   2.455  12.947   5.058  0.0452  0.2479  0.1366
19187W        W35448   2.987   4.213  15.119  0.0055  0.1819  0.1651
19188W        W35449   8.208  11.448  15.520  0.2289 -0.2637 -0.0278
19189W        W35450  10.249  12.698  14.534 -0.1541  0.3983 -0.2809
19190W        W35451   5.305   2.957  14.883 -0.0945 -0.1085  0.0934
19191W        W35452  11.743   0.299   1.006 -0.1587 -0.3486 -0.1566
19192W        W35453   0.033  17.721  15.012 -0.1321  0.3018 -0.3616
19193W        W35454  16.577   3.402  15.531  0.1155 -0.1592 -0.3776
19194W        W35455  11.415   2.361  14.041  0.0473  0.0975  0.1191
19195W        W35456  15.031  15.861   1.959  0.3074 -0.0130  0.2467
19196W        W35457  15.686   0.505  11.201  0.0535  0.1391 -0.1196
19197W        W35458   6.829   8.720   4.882 -0.1530  0.0840  0.1393
19198W        W35459   9.265   9.538   1.701  0.0717  0.1726 -0.1893
19199W        W35460   9.261   3.257   0.910 -0.1429 -0.0573 -0.0013
19200W        W35461   4.721   4.041   5.735 -0.0337 -0.2146  0.1460
19201W        W35462   3.369   9.319   2.205  0.1069 -0.2171  0.2247
19202W        W35463  18.565   7.405   3.739 -0.1509  0.0236 -0.2689
19203W        W35464  14.032   8.989   0.383  0.0746 -0.0987  0.0205
19204W        W35465   8.318  13.737   3.739  0.3328 -0.1021 -0.1277
19205W        W35466   5.215   3.610  11.565 -0.1269  0.2809  0.1418
19206W        W35467  11.181  11.441   9.635  0.2398 -0.0905  0.0276
19207W        W35468   8.877   1.545  11.801 -0.0185  0.0713  0.1015
19208W        W35469  15.158   3.380   5.388  0.3388  0.0131 -0.0388
19209W        W35470  14.882   2.756  13.048  0.2836 -0.3027  0.0047
19210W        W35471  12.180  11.112  13.556  0.1959 -0.2076  0.3294
19211W        W35472   3.162   1.167  11.325  0.1030  0.0029  0.2761
19212W        W35473  13.120  17.673  12.503  0.2424 -0.1296 -0.5956
19213W        W35474   3.613  18.751  14.892  0.2366  0.0353 -0.2418
19214W        W35475   3.267  16.886   1.741 -0.1511  0.3018  0.3353
19215W        W35476  12.120  10.143   1.943  0.2159 -0.4789  0.0871
19216W        W35477  14.469  15.071   4.671  0.1058  0.3004  0.0042
19217W        W35478  10.082   8.711  13.256  0.1701 -0.0835 -0.1179
19218W        W35479  15.397   4.715  14.703 -0.3166 -0.1091 -0.0072
19219W        W35480   8.635   9.215  15.250  0.0520  0.2770  0.3218
19220W        W35481   6.916  14.121  13.150  0.0553  0.1540 -0.1076
19221W        W35482  11.781  15.661   5.597  0.2425  0.0530  0.0428
19222W        W35483   7.409  12.533   1.320 -0.3821  0.1755  0.1677
19223W        W35484  16.882   4.140  15.297 -0.1976 -0.1793  0.1588
19224W        W35485  14.006  11.551   2.071 -0.4574 -0.1923  0.4185
19225W        W35486   6.147   7.539   3.078  0.0193  0.0479  0.0344
19226W        W35487   4.861  17.046   1.488 -0.1941 -0.2891 -0.4277
19227W        W35488  18.030   7.372  15.085 -0.3085  0.0997  0.1697
19228W        W35489  15.981   2.382  13.319 -0.0284  0.0390  0.1194
19229W        W35490   6.690   2.311   1.155  0.0198 -0.0963 -0.4595
19230W        W35491  15.801  16.591  11.202 -0.2105  0.2019 -0.2628
19231W        W35492  15.588  16.992   3.032  0.1322 -0.0483 -0.0389
19232W        W35493  18.616   6.594  11.896  0.1166 -0.2909  0.2169
19233W        W35494   1.184   6.129  12.985 -0.3282  0.0631 -0.1916
19234W        W35495   0.921   5.885   3.463 -0.0641 -0.1864 -0.2281
19235W        W35496   3.792  14.261   4.715 -0.2919  0.1750  0.0044
19236W        W35497  13.353   8.181   4.017 -0.2309  0.3403  0.2614
19237W        W35498   6.295  11.056   1.913 -0.1291  0.2360  0.0910
19238W        W35499  11.737  18.338  14.472 -0.3698 -0.2363 -0.1020
19239W        W35500  10.076  12.215   1.082  0.1165  0.0749 -0.0071
19240W        W35501   0.734   0.330   1.585  0.0644  0.1324 -0.1495
19241W        W35502  13.501  10.860  15.383  0.0563 -0.0150  0.2134
19242W        W35503   2.457   2.513  15.394 -0.2271 -0.0402 -0.0347
19243W        W35504  15.222  12.413   1.193  0.0842 -0.0363  0.2211
19244W        W35505   3.931   3.467   2.801  0.1907  0.2560  0.3625
19245W        W35506  17.421   2.008   1.932  0.0096 -0.0220 -0.0266
19246W        W35507  15.757   1.145  12.779 -0.0873  0.2097 -0.1961
19247W        W35508   7.531   7.685   4.893 -0.2281  0.3161  0.1339
19248W        W35509   2.677  18.144  15.537 -0.1796  0.1571  0.2676
19249W        W35510  14.629   5.221   1.892 -0.0754  0.3656  0.0154
19250W        W35511  12.999  12.895   3.478 -0.2798  0.2850  0.2483
19251W        W35512   7.281  15.977   3.485 -0.0039  0.1670 -0.1243
19252W        W35513  13.944   2.744  14.295 -0.3004  0.0097  0.1453
19253W        W35514   3.232   7.338  15.569  0.0167  0.0543 -0.0835
19254W        W35515  10.426   1.367   5.441  0.0661 -0.0146 -0.2715
19255W        W35516  11.694   3.784  13.851 -0.1710  0.1163  0.2361
19256W        W35517  12.029   4.379   3.663 -0.3026  0.0826 -0.3356
19257W        W35518  14.052  14.394  11.177  0.1010  0.0007 -0.0467
19258W        W35519  13.590   4.503  15.577  0.0010 -0.1820 -0.1244
19259W        W35520  17.519   3.192  15.520  0.1512 -0.2640 -0.0807
19260W        W35521  18.752  12.464   3.043  0.2373 -0.2945  0.0898
19261W        W35522  12.135   6.227  15.017 -0.0008  0.3496  0.1543
19262W        W35523   2.603  15.168   5.901  0.3873  0.0005  0.0164
19263W        W35524  12.408  13.212   3.033 -0.1954 -0.0158  0.3327
19264W        W35525   3.529  15.138   4.301  0.2665 -0.0178 -0.1004
19265W        W35526  12.586  17.838  15.559  0.0230  0.0338 -0.3073
19266W        W35527  16.245  11.752  13.482  0.2055  0.3697  0.2890
19267W        W35528  14.680   4.369   2.764  0.0325 -0.0189 -0.1168
19268W        W35529   0.214   9.277   9.993  0.3490 -0.2315 -0.1739
19269W        W35530  11.559   0.618   2.719 -0.1335 -0.1686 -0.0941
19270W        W35531  12.125   4.922   4.956 -0.1403  0.0745  0.1842
19271W        W35532   3.351   8.046   2.554 -0.0248  0.2985  0.2033
19272W        W35533   8.876   8.290  15.647  0.1441  0.0931 -0.1292
19273W        W35534  14.051  18.503   3.249 -0.1330  0.1687  0.1188
19274W        W35535   9.312  11.413  13.541 -0.1169 -0.0662 -0.1322
19275W        W35536  15.779   0.458   0.404  0.3493  0.2812 -0.2010
19276W        W35537  18.123   0.692   0.713  0.0405 -0.0165  0.3649
19277W        W35538   7.035  13.117  11.515 -0.0652 -0.1718 -0.2079
19278W        W35539   9.488  13.984   1.056 -0.2324 -0.0246  0.0729
19279W        W35540   2.901  13.207  14.315  0.1475  0.2448 -0.1602
19280W        W35541   2.329  18.504   2.106 -0.1391 -0.0631 -0.1991
19281W        W35542   2.446  13.042  12.499 -0.0134  0.1447 -0.4554
19282W        W35543   4.511  10.274   4.662 -0.0610 -0.0115 -0.2688
19283W        W35544   8.300  15.400   1.380  0.3405  0.1141  0.0734
19284W        W35545  18.082   1.025  11.475 -0.2917 -0.0360  0.1710
19285W        W35546  17.177  11.789   1.268  0.0429 -0.1745 -0.1820
19286W        W35547  13.750  13.648   2.220  0.1373  0.1265  0.1154
19287W        W35548   2.080   4.339  11.044  0.1737  0.1624 -0.0057
19288W        W35549  11.872   5.528  12.793  0.1663 -0.2018  0.1216
19289W        W35550  15.978   2.481   0.786 -0.1434 -0.1979 -0.1510
19290W        W35551  12.703   6.559  14.232  0.6000 -0.0374  0.0170
19291W        W35552   7.297   8.527   4.554 -0.0167 -0.1995  0.1568
19292W        W35553   8.248  16.347   3.755 -0.3783  0.1212  0.4473
19293W        W35554   3.517  15.438  15.533 -0.0134  0.2430 -0.1045
19294W        W35555  11.220  16.599  13.251 -0.0571  0.2048  0.1239
19295W        W35556   3.730   1.940   1.310 -0.0144  0.3998 -0.1599
19296W        W35557  12.042  12.224   3.927  0.2371 -0.2285  0.1886
19297W        W35558  12.582  18.411  12.908  0.2683  0.0668  0.1666
19298W        W35559   5.513   1.392   3.432  0.1216  0.3484  0.2393
19299W        W35560   5.549   9.369   4.205 -0.1472  0.2126  0.1966
19300W        W35561  16.257  13.249  13.240  0.0089  0.1035 -0.3998
19301W        W35562  11.693   4.737  12.201  0.0268  0.3229  0.4667
19302W        W35563  10.741   9.647  13.471  0.0161 -0.3582  0.1282
19303W        W35564  12.564  11.671   3.190 -0.1804  0.2169  0.0163
19304W        W35565  15.775   3.526  15.484 -0.0687  0.2096 -0.2546
19305W        W35566  18.655   5.549   2.702  0.0692  0.1763  0.1281
19306W        W35567  11.809   6.953  13.597  0.2062 -0.1400 -0.0884
19307W        W35568   3.064   1.671  10.581  0.1780  0.0133  0.1109
19308W        W35569  18.784  18.025  12.764  0.4404  0.1398  0.1106
19309W        W35570   6.816  13.312  13.281 -0.1654 -0.1447  0.0530
19310W        W35571  17.373   2.842   1.710  0.2196 -0.2617  0.1640
19311W        W35572  12.473   7.696  13.362 -0.1881 -0.1994 -0.3579
19312W        W35573   6.051  17.205   4.665 -0.0435 -0.2845 -0.4354
19313W        W35574  11.861  18.443  15.365  0.1872  0.0808  0.1478
19314W        W35575  16.017  10.445   3.034 -0.0552  0.1290  0.2440
19315W        W35576   7.486  11.079   0.351  0.0078 -0.0589 -0.0900
19316W        W35577  12.885  13.870  12.898  0.0104 -0.0281  0.1254
19317W        W35578  17.327   3.247  11.823 -0.0500  0.1145  0.0777
19318W        W35579   7.463  15.006  12.606 -0.0100  0.0560  0.0462
19319W        W35580  14.949  14.872   3.266 -0.2884 -0.0234 -0.3066
19320W        W35581   6.667   9.571   1.060 -0.0826 -0.1813 -0.0011
19321W        W35582  17.720  17.714   4.016  0.1021  0.2537  0.1941
19322W        W35583  10.039   4.437   4.231  0.0236  0.1754 -0.1584
19323W        W35584   8.318  13.175  10.564 -0.1910  0.3307 -0.0451
19324W        W35585   8.190   6.807   4.026 -0.1709  0.1240 -0.1706
19325W        W35586  10.837  16.218   3.660  0.0700  0.1729  0.0041
19326W        W35587  14.592   0.840   1.396 -0.1620 -0.1043 -0.1458
19327W        W35588  13.137   0.948   1.815  0.0496 -0.1910 -0.1611
19328W        W35589  13.546  16.698   9.237  0.1255 -0.1587  0.1774
19329W        W35590  18.736  13.160   2.504  0.1572  0.0320 -0.1906
19330W        W35591  15.766  17.942   1.921  0.0830 -0.0970  0.1073
19331W        W35592   3.791  13.186   1.651 -0.5094  0.1766 -0.2212
19332W        W35593   6.229   5.541   0.148 -0.0506 -0.0383 -0.0475
19333W        W35594  14.940  17.481  12.404 -0.0957 -0.0662 -0.2014
19334W        W35595  18.365   8.893  14.130  0.0753 -0.1908 -0.1783
19335W        W35596   7.097  11.969   5.368 -0.3915 -0.0244  0.2495
19336W        W35597   9.502   6.021   5.066 -0.1765  0.0230 -0.0431
19337W        W35598  18.244   3.369  15.083  0.0387 -0.1747  0.2903
19338W        W35599  10.499   8.733   3.255  0.1822 -0.4980 -0.1096
19339W        W35600   3.744   7.906  11.376 -0.2159  0.1341 -0.2394
19340W        W35601   7.903  18.314   2.674  0.0897 -0.2740 -0.0137
19341W        W35602   5.281   2.529  14.612  0.3095  0.3143  0.1509
19342W        W35603   4.113   8.239   0.124  0.1054 -0.2877 -0.0196
19343W        W35604   5.615   7.552   5.263 -0.3889  0.1227 -0.0619
19344W        W35605   3.510   1.886  11.713  0.0461 -0.2672 -0.0978
19345W        W35606  17.407  10.179   2.647  0.2279 -0.1924  0.0779
19346W        W35607  15.083   9.551  15.373  0.0390  0.1381 -0.2210
19347W        W35608   3.142   4.915   4.242 -0.0965 -0.0251  0.1083
19348W        W35609   1.478   6.345  13.438  0.3325 -0.1495 -0.2932
19349W        W35610   4.780  17.822   3.310  0.0673 -0.1065 -0.1161
19350W        W35611  10.997  11.350   5.058 -0.6218  0.2423 -0.0242
19351W        W35612  15.232  18.142   4.566  0.4144  0.1440 -0.1397
19352W        W35613  13.183   0.861   5.424 -0.1776 -0.0863 -0.2418
19353W        W35614  17.741  13.483   2.847  0.1444  0.0420  0.1469
19354W        W35615   5.827  17.634   2.510 -0.1925  0.0735 -0.2047
19355W        W35616   0.790   9.563  12.434  0.2373 -0.1069 -0.0766
19356W        W35617   0.619  16.847  12.643 -0.0151 -0.0490  0.3556
19357W        W35618   7.855   2.826   0.743  0.0645 -0.1549  0.1293
19358W        W35619  17.013   3.520   0.102  0.1657 -0.1486 -0.0747
19359W        W35620   4.431   4.679   2.403  0.1435  0.0651  0.3356
19360W        W35621  16.902   4.895  12.988  0.0547  0.0896  0.0892
19361W        W35622  11.599  10.233   3.539  0.0844 -0.0276  0.2415
19362W        W35623  13.547   5.192  12.856  0.0201  0.1447  0.0709
19363W        W35624   3.805  18.825   3.843  0.2932 -0.0063  0.2324
19364W        W35625  11.175   5.745  14.985  0.0139 -0.3127  0.2509
19365W        W35626  12.343   3.676  11.744  0.0938  0.1960  0.0344
19366W        W35627  15.903  14.706  13.011  0.4503 -0.1000 -0.0216
19367W        W35628   1.510  13.094  14.961  0.1049  0.0090 -0.0278
19368W        W35629  12.582   8.200   5.205  0.2071 -0.0200 -0.1133
19369W        W35630  11.725   2.589   5.940  0.3101  0.2007  0.2518
19370W        W35631   0.295   0.147  12.607  0.2200  0.1483 -0.2411
19371W        W35632   5.820  10.393  11.497  0.1390 -0.1284  0.3362
19372W        W35633  16.107  10.486   1.495 -0.0744  0.0164  0.1473
19373W        W35634  15.781   2.126   0.413 -0.1113 -0.1683 -0.1208
19374W        W35635  14.663  13.714   0.075 -0.4154  0.1242  0.1328
19375W        W35636   7.900  10.030  11.622  0.0185 -0.0149  0.1580
19376W        W35637   3.172   5.708   2.533  0.1892 -0.0639  0.0277
19377W        W35638   9.568   5.516   3.510  0.2190 -0.0690  0.2111
19378W        W35639   6.326   1.971  11.877  0.1042  0.3198  0.0506
19379W        W35640   5.492  17.793  11.051 -0.1649  0.1110 -0.1799
19380W        W35641   9.347   3.920  15.173 -0.3369  0.1647 -0.0568
19381W        W35642   7.733  13.445  12.813  0.4165 -0.4527  0.1878
19382W        W35643   3.698   9.927   4.011  0.0602  0.0812  0.2362
19383W        W35644  16.442  12.742   2.151  0.0291  0.0687 -0.1072
19384W        W35645   1.782  18.036   5.713  0.2033 -0.1876 -0.1583
19385W        W35646   7.348  10.534  13.780  0.0185 -0.0985 -0.2385
19386W        W35647   1.210   3.560   5.216 -0.1012 -0.0144  0.1866
19387W        W35648  11.210   9.164  10.295  0.3642 -0.2455 -0.0298
19388W        W35649   9.355   6.809  15.036  0.0575  0.3120  0.0586
19389W        W35650   8.902   0.873  15.031 -0.2066  0.0857  0.0886
19390W        W35651  17.529   5.711  10.832  0.1144  0.0401 -0.1883
19391W        W35652  18.272  13.732  11.547 -0.1781  0.3785 -0.2849
19392W        W35653   0.142   2.815   5.156  0.2106  0.0551  0.1356
19393W        W35654  10.399   6.885  13.016 -0.2845  0.1505 -0.0090
19394W        W35655   5.525   1.985   0.368 -0.1174  0.0443  0.2995
19395W        W35656   6.875  15.583  12.835  0.2781  0.0327 -0.0388
19396W        W35657   2.129   2.727   3.073 -0.0969 -0.2618 -0.0737
19397W        W35658  13.835  10.303   2.622  0.1537  0.3548 -0.0434
19398W        W35659  14.933  16.416  14.352 -0.2192 -0.1383 -0.0072
19399W        W35660   7.784   9.414   1.033 -0.0663 -0.3235  0.0737
19400W        W35661  16.453   8.524   2.553  0.1917  0.0255  0.1059
19401W        W35662  14.222   4.915   1.138  0.0267 -0.1621  0.1277
19402W        W35663   9.433  15.828  12.157 -0.3844  0.1884 -0.0725
19403W        W35664   9.924   0.778  13.081 -0.0319 -0.0030 -0.1244
19404W        W35665  12.431   8.071  13.896 -0.0522 -0.0576 -0.0828
19405W        W35666  15.933   2.661  12.841  0.2872  0.2225 -0.0521
19406W        W35667  18.652   3.937   0.942  0.0745 -0.0360 -0.1751
19407W        W35668  18.357   7.433  12.628  0.2531 -0.0118  0.2678
19408W        W35669  13.188   6.495   0.998 -0.3383 -0.0430  0.1759
19409W        W35670  13.393  17.390   2.683 -0.0885 -0.0569  0.0195
19410W        W35671   5.989   0.696   0.969  0.0424  0.1258 -0.1713
19411W        W35672  10.297  14.531  10.387 -0.0998  0.1591  0.1073
19412W        W35673   9.559   6.273  11.525 -0.0192 -0.2345 -0.2827
19413W        W35674  10.505   6.846   0.888  0.1401 -0.2370  0.1472
19414W        W35675  18.714   8.371   3.778  0.2450  0.1770 -0.0488
19415W        W35676   5.495   0.523   2.301 -0.0293  0.0286  0.1391
19416W        W35677  12.651  11.194   3.440  0.0476  0.1965  0.2934
19417W        W35678  13.258   0.825  11.567 -0.1501 -0.2898  0.0298
19418W        W35679   1.517   7.630   4.812 -0.0795 -0.0437  0.1429
19419W        W35680   0.252   6.134   3.462  0.0369  0.0865 -0.2951
19420W        W35681  11.021  16.144  13.325  0.1065  0.0432 -0.2413
19421W        W35682  10.466  14.503  13.574  0.0388 -0.2761 -0.1683
19422W        W35683   7.537   1.453   5.462 -0.0172 -0.1779  0.2539
19423W        W35684   5.339  17.499   4.513  0.0319  0.4177 -0.1389
19424W        W35685   1.875  13.608   3.729 -0.1791 -0.2334 -0.1889
19425W        W35686   3.439   0.663   2.707  0.1164 -0.2658  0.0156
19426W        W35687  11.942   5.637   1.184 -0.2702  0.1317 -0.4455
19427W        W35688  15.131   0.105   4.441  0.0696 -0.1984  0.1161
19428W        W35689   0.904  14.731   4.237 -0.2777  0.3031 -0.0791
19429W        W35690   4.470  13.314  15.563  0.0842  0.1473  0.0709
19430W        W35691   0.445  16.569   5.023 -0.0041  0.1255  0.0711
19431W        W35692   0.280   3.548  13.158 -0.1021  0.1668 -0.0172
19432W        W35693   1.265  11.913  12.345 -0.1633  0.2603  0.1855
19433W        W35694   8.983  13.134  11.150  0.0044 -0.1992 -0.1911
19434W        W35695   7.965   1.910   1.236 -0.0415 -0.0958  0.1061
19435W        W35696  16.688   5.938  14.750  0.2524 -0.0514  0.0584
19436W        W35697  15.087  12.666   0.673 -0.4794  0.0899  0.1105
19437W        W35698   0.873  13.677   4.344  0.1895  0.0278  0.1628
19438W        W35699  16.105  16.987   3.101 -0.1316  0.1554  0.1280
19439W        W35700   2.766   5.533  10.970  0.0005  0.2885 -0.0387
19440W        W35701   2.038   2.994   2.665  0.1374 -0.2062  0.0420
19441W        W35702  11.660   5.496  13.519 -0.0869 -0.2990  0.1846
19442W        W35703  15.376   4.450  14.316 -0.3894  0.1090  0.1363
19443W        W35704  15.570  13.158   2.812 -0.1613 -0.1267  0.0564
19444W        W35705   4.154  15.744  13.002  0.0123 -0.5943 -0.1122
19445W        W35706  11.193  11.878   2.124 -0.1494 -0.1403 -0.0585
19446W        W35707   2.732  16.790  13.108  0.5304 -0.0062 -0.0244
19447W        W35708   5.717   8.709  11.851  0.1494  0.0829  0.2241
19448W        W35709   3.955   8.792  15.210  0.1340  0.4724  0.1098
19449W        W35710  10.116   6.707  13.919  0.2125 -0.2391 -0.1975
19450W        W35711  16.753  12.338  12.553  0.0993  0.2543 -0.4678
19451W        W35712  13.166   6.586  12.924 -0.0997  0.0929  0.3825
19452W        W35713   0.052  16.659  13.653 -0.2033  0.0925  0.2571
19453W        W35714  17.166  12.115  14.373 -0.0059  0.0669 -0.1142
19454W        W35715   7.890   2.521   6.091 -0.1891 -0.0310 -0.0950
19455W        W35716   3.690  12.035   4.215  0.2791 -0.4229 -0.0494
19456W        W35717  11.031  17.299   1.034 -0.5171 -0.4412 -0.0522
19457W        W35718  16.761   7.417   0.189  0.0262 -0.2816 -0.2286
19458W        W35719   7.917   5.682  14.098  0.0165  0.0629  0.2867
19459W        W35720  18.370   8.623  15.471 -0.0947  0.1897  0.1465
19460W        W35721   6.030  17.836  11.692  0.0550 -0.1929  0.1889
19461W        W35722  14.822   3.618   2.338 -0.1496 -0.0453 -0.3694
19462W        W35723  13.933  16.800  11.460 -0.1322  0.0899  0.1129
19463W        W35724   7.827  15.283   4.518 -0.0919  0.1913  0.1742
19464W        W35725   4.021   1.249   0.678 -0.1265 -0.1543  0.0468
19465W        W35726  11.015  11.511   2.455  0.0706 -0.0115  0.0488
19466W        W35727  10.850   6.544  13.687 -0.0292 -0.1776  0.3390
19467W        W35728   5.381  17.484  14.985  0.0284 -0.2856  0.0411
19468W        W35729  13.646   3.452   3.562 -0.2795 -0.2173 -0.0514
19469W        W35730   9.293   7.987  14.865 -0.0382 -0.1556  0.2750
19470W        W35731  18.022   1.705   3.841  0.1350 -0.2157  0.0075
19471W        W35732   5.228  18.327  11.724  0.0686 -0.1861 -0.0192
19472W        W35733  15.063   9.684  10.622 -0.0672  0.2190 -0.0266
19473W        W35734  15.848   9.282  13.922  0.1687  0.3573  0.0046
19474W        W35735   8.067   2.529  12.089  0.2500  0.1403 -0.0696
19475W        W35736  15.650   8.366   0.120  0.2387  0.1475 -0.0788
19476W        W35737   4.677   9.358  11.003  0.2402  0.2685  0.1598
19477W        W35738  18.010  12.047  15.430  0.0280 -0.1672 -0.3424
19478W        W35739  16.317  12.112   0.025 -0.1029  0.1589 -0.3265
19479W        W35740  15.813  15.605   4.835  0.2131 -0.0005 -0.0824
19480W        W35741   6.227   0.348   0.195 -0.0916  0.1126 -0.0203
19481W        W35742   7.916   9.469   5.390 -0.0643 -0.0269 -0.3317
19482W        W35743  14.980   9.628  14.859  0.0656  0.0385 -0.0442
19483W        W35744  18.580  18.453  14.639 -0.0476  0.2186  0.1348
19484W        W35745   5.511   0.895   3.184  0.0606 -0.3389 -0.3283
19485W        W35746  14.728   1.854  14.416  0.1651 -0.0070  0.0888
19486W        W35747  11.795  12.646   0.959 -0.0792  0.1805 -0.2906
19487W        W35748  12.017   5.497  10.586  0.0646 -0.3041 -0.2162
19488W        W35749  15.249  10.614   4.161 -0.2071 -0.0085  0.2903
19489W        W35750   7.082   7.027   5.299 -0.1346 -0.0486  0.2801
19490W        W35751   9.314   8.691  12.745  0.0478  0.0493 -0.1791
19491W        W35752   2.440   9.517  13.452 -0.0688 -0.1292 -0.1555
19492W        W35753   5.521  15.032   2.659  0.2428 -0.3737 -0.0091
19493W        W35754  10.448   4.027  12.668 -0.0614  0.3170  0.0925
19494W        W35755   5.276  14.250   1.750  0.2407  0.2134 -0.0380
19495W        W35756  16.376  18.780   2.082 -0.2214  0.2562 -0.3375
19496W        W35757   7.473  17.965  14.700  0.3740 -0.1124  0.3981
19497W        W35758   1.965   4.594   1.010 -0.1670 -0.2152  0.2031
19498W        W35759  15.600   8.144   1.650  0.1724  0.2627  0.3424
19499W        W35760  14.179   4.957  10.936 -0.1097 -0.1051 -0.2297
19500W        W35761  12.400  11.166  12.298  0.2061  0.1131 -0.2501
19501W        W35762   7.638   4.211  14.842 -0.0394 -0.0362  0.0333
19502W        W35763  11.685   3.267   0.580  0.0776 -0.0059 -0.1688
19503W        W35764  13.991  14.289   4.785 -0.1574 -0.1618  0.0371
19504W        W35765   9.972  12.506  11.161 -0.2774  0.0332 -0.1270
19505W        W35766   7.527  12.651   2.644 -0.1253  0.0120 -0.1282
19506W        W35767   5.303   9.387   2.356 -0.2329 -0.0180  0.0664
19507W        W35768  12.534   9.631  14.842  0.1217 -0.2668  0.1998
19508W        W35769   9.240   1.380  14.993  0.1259 -0.0159  0.1430
19509W        W35770  14.636   7.699   3.009  0.2059 -0.2920  0.3534
19510W        W35771  13.281  17.491   4.580  0.2210  0.1107  0.0184
19511W        W35772  16.081  15.649  15.547 -0.0431  0.1214 -0.0193
19512W        W35773  12.118  13.857   1.924 -0.2346 -0.2397 -0.0035
19513W        W35774   3.271   7.855   1.108 -0.1803 -0.0873  0.1982
19514W        W35775   6.563  14.164  12.159 -0.2651 -0.1069  0.0307
19515W        W35776   9.904  13.292   3.408 -0.2561  0.2466 -0.1791
19516W        W35777  13.868  11.069   1.895 -0.1083  0.0863 -0.2828
19517W        W35778   8.386   9.723   4.553  0.2755  0.0962 -0.0773
19518W        W35779  15.494  15.638   2.860  0.1647  0.4105  0.0649
19519W        W35780   4.410   1.932  15.274  0.0978  0.0692  0.0476
19520W        W35781  13.004   9.051  12.077  0.2373  0.1099 -0.2926
19521W        W35782   1.767   7.008   0.973 -0.1268 -0.1934 -0.3368
19522W        W35783   9.044  11.262  12.419 -0.3520  0.2398  0.1134
19523W        W35784   3.743   5.627  13.002 -0.1666 -0.1502  0.2757
19524W        W35785   2.094  12.568   3.771  0.0394 -0.2657 -0.0178
19525W        W35786  16.313   5.436   2.214  0.0129  0.2755 -0.3356
19526W        W35787   0.479   6.852  10.766 -0.1140  0.1468  0.3838
19527W        W35788  10.959  16.763   2.610  0.0600  0.1280 -0.0614
19528W        W35789   9.790   5.985  13.689  0.4951  0.0176 -0.1407
19529W        W35790  17.674   7.787   2.808  0.0427 -0.1808 -0.0057
19530W        W35791   4.989   7.516  11.470 -0.0494  0.0486 -0.0397
19531W        W35792   2.810   7.946   1.977  0.0446 -0.4194 -0.0016
19532W        W35793   9.959  15.520   4.857 -0.1490  0.0058 -0.1656
19533W        W35794   1.039   2.921  11.028  0.3276 -0.3360 -0.2841
19534W        W35795  11.339   3.186   4.263 -0.0989 -0.0484  0.1223
19535W        W35796   9.973   8.144  14.164  0.1482  0.0160 -0.2935
19536W        W35797  16.665   8.570   4.153  0.0070  0.2492  0.0289
19537W        W35798   3.625  15.754  13.990  0.2384 -0.1073  0.5461
19538W        W35799   1.944   1.376  12.069  0.1258 -0.3719  0.3520
19539W        W35800   3.073   0.700  13.038 -0.0111  0.1345 -0.0610
19540W        W35801   1.527   4.604   1.965 -0.3341  0.3840 -0.5409
19541W        W35802  16.871  14.005   2.698 -0.0791  0.2624  0.1477
19542W        W35803   8.947  12.005   1.751 -0.2725 -0.1262  0.2502
19543W        W35804   0.764  17.292   1.768  0.1379 -0.3929 -0.0543
19544W        W35805   0.308   5.074  11.239 -0.4440  0.0579  0.3762
19545W        W35806  11.579   0.990  15.428 -0.0347 -0.0786 -0.1359
19546W        W35807   7.704   6.658   3.282 -0.2577 -0.0594 -0.1720
19547W        W35808  17.629   6.968   2.473 -0.1889 -0.1348 -0.2303
19548W        W35809  13.434  14.970  14.658  0.2900  0.3375 -0.1108
19549W        W35810  18.472   4.435  15.461 -0.1038  0.1651 -0.0280
19550W        W35811  12.691   6.926   3.157 -0.0176 -0.0236 -0.0091
19551W        W35812  12.057  11.556  13.919 -0.3141 -0.0880  0.3737
19552W        W35813   4.409   3.326   1.283 -0.1237  0.2687  0.0930
19553W        W35814  14.326   1.840   4.254  0.0105  0.2409  0.1340
19554W        W35815   6.480   5.018   0.055 -0.2564  0.0954  0.1209
19555W        W35816  15.618   6.033  12.921  0.0671 -0.0855 -0.1113
19556W        W35817   5.890   2.138   5.877 -0.1183 -0.0693  0.1481
19557W        W35818  16.572  11.181  14.558  0.3907  0.0111  0.0673
19558W        W35819  17.347   6.667   3.865 -0.0689  0.1841 -0.0284
19559W        W35820   4.393   0.596   0.040  0.0197 -0.1524 -0.1278
19560W        W35821   5.423  10.571   4.912 -0.3396  0.2001 -0.2390
19561W        W35822  18.644  11.467   3.280  0.1118 -0.2103 -0.0752
19562W        W35823   8.059   5.940   4.121 -0.1557 -0.4070 -0.2026
19563W        W35824   3.745  15.574   3.616 -0.1438 -0.2867  0.1251
19564W        W35825  14.286  16.912   0.566 -0.0976 -0.1270  0.1302
19565W        W35826   9.105   4.390   2.598  0.1403 -0.2014 -0.2415
19566W        W35827  18.170   7.752  15.493  0.6032  0.1253 -0.1343
19567W        W35828  15.771  13.863  10.067  0.1932 -0.1611  0.3688
19568W        W35829   5.930  12.124  11.510  0.1901 -0.3692 -0.1492
19569W        W35830   1.331   3.496   2.814 -0.0300  0.3425 -0.0076
19570W        W35831   3.184  18.718  11.701  0.0170 -0.1317 -0.1673
19571W        W35832  12.655   2.606  10.875 -0.2702 -0.0015  0.0713
19572W        W35833  13.412   5.531   2.738  0.1936 -0.1412  0.1918
19573W        W35834  16.264   0.053  13.921 -0.2541  0.2151  0.0206
19574W        W35835   5.504   7.795   0.674  0.1024 -0.1376  0.0380
19575W        W35836   2.389  10.387  10.820  0.2718  0.0029  0.0479
19576W        W35837   2.689  13.128   1.164 -0.1716 -0.0862 -0.0211
19577W        W35838  10.187  16.187  14.054  0.1172  0.0075  0.0318
19578W        W35839   1.016   4.671  15.530 -0.3535 -0.3621 -0.1717
19579W        W35840  15.344  17.665  10.596  0.0917  0.1055 -0.2009
19580W        W35841  15.315  10.321   1.021  0.0914  0.0173 -0.0891
19581W        W35842   3.279  11.993  10.722  0.3104 -0.2233  0.0512
19582W        W35843  14.036  16.300  10.466  0.1328 -0.0094 -0.7247
19583W        W35844   4.330  15.099   0.285  0.1230  0.2048 -0.1891
19584W        W35845  14.151  11.531  12.630  0.3175  0.0238  0.2419
19585W        W35846  16.786  12.003   0.187  0.0943  0.0541 -0.1100
19586W        W35847   4.624  13.774   4.744 -0.1116 -0.1967 -0.3959
19587W        W35848   1.686   6.802  13.606  0.0205 -0.0427 -0.2925
19588W        W35849   3.281   9.786   3.670 -0.0920  0.2058 -0.4164
19589W        W35850   0.103   3.650  13.611 -0.1826 -0.1463 -0.2637
19590W        W35851  17.821   9.963  14.446  0.0254  0.1494  0.3195
19591W        W35852   9.224   7.282   4.006 -0.1420 -0.2900 -0.1367
19592W        W35853   0.864   3.568   1.738 -0.3722 -0.1626 -0.1086
19593W        W35854  11.142   8.640   1.375  0.0374 -0.1796 -0.1972
19594W        W35855   2.862   8.621  13.596 -0.0018 -0.1778 -0.0799
19595W        W35856   3.899   0.867   2.276 -0.0488 -0.1380 -0.1282
19596W        W35857  11.338   6.736  11.796  0.1882 -0.2839  0.2315
19597W        W35858  14.134  13.402  13.253  0.0515  0.0829 -0.5311
19598W        W35859  12.806   6.257  13.084 -0.0513 -0.0869  0.2977
19599W        W35860  18.525  16.862   4.308  0.1868 -0.2373  0.0084
19600W        W35861   7.628   8.975   1.255 -0.1531  0.2554  0.0415
19601W        W35862  13.365  10.165   5.723  0.3997  0.1424  0.2127
19602W        W35863   1.951  13.729  15.396 -0.3370 -0.2157  0.0443
19603W        W35864  14.952  11.796   3.885 -0.0368 -0.2153 -0.1193
19604W        W35865   6.814  16.831   5.848  0.2942 -0.1185 -0.2322
19605W        W35866   8.169  17.954  14.345 -0.2493 -0.1180 -0.0804
19606W        W35867   2.718   5.545  11.437  0.2258  0.1348 -0.1233
19607W        W35868  11.386  12.854   2.272 -0.0750 -0.0314 -0.0207
19608W        W35869   7.708   6.079   2.206 -0.1461  0.3300  0.0765
19609W        W35870   6.133  18.296   0.677  0.0251  0.1362 -0.0677
19610W        W35871  11.227  15.452  15.622 -0.1223 -0.4174  0.1695
19611W        W35872  12.843  15.593  12.520  0.1534  0.0199  0.1043
19612W        W35873  11.202   9.914  14.616 -0.0131 -0.0206  0.1311
19613W        W35874  17.752  12.045   0.602  0.0432 -0.3036 -0.3153
19614W        W35875  11.482   8.953  13.606 -0.0653  0.2625  0.1326
19615W        W35876   2.445  14.357  15.066  0.0494 -0.0224  0.1734
19616W        W35877  11.990  17.154   0.435  0.2009 -0.2561 -0.2841
19617W        W35878  16.008   7.670  14.231 -0.0058  0.0851  0.0084
19618W        W35879  13.748   1.738   3.786 -0.1711 -0.3122  0.2080
19619W        W35880   4.161   0.926   1.465  0.1853 -0.2221 -0.1462
19620W        W35881   3.994  15.935  12.506 -0.5538 -0.1586 -0.0657
19621W        W35882  14.661   7.695   1.258  0.1615 -0.0549 -0.0154
19622W        W35883  12.589  11.404  10.958 -0.0047 -0.4353 -0.1026
19623W        W35884  17.438  11.992  12.637 -0.0835  0.2485 -0.1038
19624W        W35885  10.109   2.156   0.595  0.0280  0.0558  0.1953
19625W        W35886  17.620   7.021   0.333  0.0244  0.1615  0.1494
19626W        W35887  12.547  16.177   3.777 -0.1009 -0.3607 -0.1410
19627W        W35888  12.921   2.442   0.228 -0.1071 -0.2618  0.1414
19628W        W35889   1.516   5.055   5.100  0.0480 -0.1105 -0.1865
19629W        W35890   8.032  10.092   3.037  0.0023 -0.1238 -0.0538
19630W        W35891  10.201  11.607   0.142 -0.0072 -0.3738  0.1738
19631W        W35892  14.922  18.436  15.536 -0.3107 -0.0407  0.1619
19632W        W35893  17.604   9.363  11.783 -0.0411 -0.0794 -0.0334
19633W        W35894  17.827  18.765  11.865  0.1745 -0.1271 -0.2011
19634W        W35895   9.146   6.061  15.610 -0.1326 -0.1731  0.3507
19635W        W35896   6.632  17.615   1.401 -0.2223  0.0481 -0.0458
19636W        W35897  15.287  14.110  12.605  0.2132  0.0021 -0.1560
19637W        W35898  11.754   5.630   1.632 -0.3312 -0.2928  0.3202
19638W        W35899   8.332  11.400   0.340 -0.1084 -0.0423  0.1137
19639W        W35900  13.027  16.207   3.601  0.0073  0.1807 -0.0135
19640W        W35901   4.104   2.298  10.994  0.1764 -0.3099  0.3252
19641W        W35902   0.373  18.426   0.485 -0.3619  0.0322 -0.1165
19642W        W35903   6.346  16.677  12.186  0.0681  0.0958 -0.2041
19643W        W35904  16.318   1.664  12.163 -0.2719 -0.0234 -0.1642
19644W        W35905  12.822  11.743  12.836 -0.0295 -0.0121  0.3758
19645W        W35906  16.850   7.189   0.975 -0.0971  0.1551  0.1655
19646W        W35907   2.221  11.241   4.913  0.1628 -0.0077 -0.1944
19647W        W35908  10.248   3.010   4.581 -0.0290  0.1034  0.1253
19648W        W35909  16.402  15.259  13.574  0.0435  0.2782  0.2243
19649W        W35910  18.424  12.692   3.374  0.1602  0.3581  0.0457
19650W        W35911  12.000   3.819   0.699  0.1116  0.0734  0.0210
19651W        W35912  13.237  13.194   1.233 -0.1000  0.2277 -0.0842
19652W        W35913  12.644   1.006  14.462 -0.0418 -0.2320 -0.1601
19653W        W35914  15.148  11.973   2.856 -0.1036  0.0565 -0.5048
19654W        W35915   0.974   4.832  15.008  0.3404  0.1833  0.0159
19655W        W35916   1.938   5.403   1.317 -0.2557  0.2218  0.1947
19656W        W35917   6.134  14.373  11.876  0.1936  0.4252  0.0399
19657W        W35918   1.718   2.323   9.849 -0.0212  0.1807 -0.1763
19658W        W35919   5.908  15.707  13.424  0.3184 -0.0986 -0.0390
19659W        W35920  14.368   1.004   3.812 -0.1356  0.0871 -0.2562
19660W        W35921   9.427   0.370  11.980 -0.1785  0.0422  0.2674
19661W        W35922  15.941  11.446  10.858 -0.1187  0.0724  0.0477
19662W        W35923   1.630  17.958   3.329  0.2237  0.0574  0.0666
19663W        W35924   8.779   3.973   4.019 -0.1592  0.2268 -0.1147
19664W        W35925  10.964  14.823   4.123  0.2439  0.2337 -0.1258
19665W        W35926   8.844   5.760  14.780  0.1691  0.1811 -0.0875
19666W        W35927   8.553   9.013   0.974  0.1367 -0.1482 -0.0174
19667W        W35928  10.214  11.512  14.845 -0.0146  0.2204 -0.0561
19668W        W35929   1.929   6.703   1.369  0.2202  0.2512 -0.1771
19669W        W35930  17.680  16.963  13.428 -0.0361  0.1647 -0.2753
19670W        W35931  13.099  17.698  11.019 -0.0926  0.3586  0.1369
19671W        W35932   0.820  16.685  10.923 -0.1558  0.0823  0.3876
19672W        W35933  18.806   8.144   2.175  0.1510  0.1156 -0.2265
19673W        W35934   6.282  12.205   2.012 -0.1532  0.0897 -0.0128
19674W        W35935   9.258   5.870   3.141 -0.0751  0.3416 -0.0452
19675W        W35936   0.511   9.124  12.500  0.0956 -0.0234 -0.1269
19676W        W35937  18.824  13.727  15.536  0.2259  0.0946  0.2420
19677W        W35938   3.556  17.642  15.399 -0.0718 -0.0232 -0.1528
19678W        W35939  10.858  16.124   4.214  0.0356  0.0258 -0.1091
19679W        W35940   1.063   0.931   4.444 -0.1434  0.4658  0.0742
19680W        W35941  11.858  13.625   2.415 -0.2039  0.2343  0.2270
19681W        W35942   2.319   7.620   2.644 -0.0781  0.0253 -0.3210
19682W        W35943   8.419   4.275  14.125 -0.3238 -0.0234  0.0683
19683W        W35944  17.658  18.132  11.515  0.2495  0.3413  0.0302
19684W        W35945  12.984  10.569  13.527 -0.0128  0.2380 -0.4955
19685W        W35946   7.913  11.855   5.930  0.0465  0.1680 -0.0702
19686W        W35947   4.205  10.820  13.825 -0.3501 -0.2453 -0.1517
19687W        W35948  16.314   1.367  15.079 -0.0083 -0.0401 -0.1801
19688W        W35949  10.838   1.397  15.078  0.0628  0.0846  0.2306
19689W        W35950   6.633  14.752   3.910 -0.0677  0.0574 -0.0329
19690W        W35951  13.021  18.528  13.166 -0.0254  0.3880  0.2344
19691W        W35952   9.603   2.045  13.103  0.3553 -0.0590 -0.3707
19692W        W35953   9.196   5.520   5.617  0.1317 -0.0652 -0.0838
19693W        W35954  16.415   4.069  14.543  0.0935 -0.0419 -0.0624
19694W        W35955  18.689   1.748  14.598  0.3574 -0.2760  0.0115
19695W        W35956   3.429   3.204   4.003 -0.3484 -0.3148  0.1529
19696W        W35957   0.682  16.076   1.299 -0.1307  0.1977  0.1840
19697W        W35958   1.494   8.636   4.840  0.5129  0.0094  0.1087
19698W        W35959  10.770   2.760  15.507  0.0033  0.0154  0.1111
19699W        W35960  14.013   2.190  14.253  0.1977 -0.0173 -0.2411
19700W        W35961   3.206   5.424   4.275  0.0860 -0.0358 -0.3279
19701W        W35962   5.610   9.353  12.427 -0.0775  0.0085 -0.0048
19702W        W35963  18.296   8.749  13.104 -0.1076  0.0257  0.3859
19703W        W35964   3.035  18.219  11.745  0.3315 -0.0646  0.2761
19704W        W35965   0.350  10.465  12.771 -0.2542 -0.1291 -0.2881
19705W        W35966  11.000  15.211  10.688 -0.1092  0.1776  0.2754
19706W        W35967   3.434  13.915  11.826 -0.0978  0.0481  0.3327
19707W        W35968  10.156   8.685   4.478  0.1664 -0.0108  0.2779
19708W        W35969  12.861   8.581  10.773  0.0876  0.0234 -0.0600
19709W        W35970  14.875   0.967   3.770 -0.0711 -0.0138 -0.0794
19710W        W35971   4.959  17.327   3.367  0.3186 -0.2482  0.2872
19711W        W35972   1.968  17.861   2.102  0.3270  0.2086  0.1291
19712W        W35973  12.918   8.013   0.422  0.0581 -0.1436 -0.1414
19713W        W35974  18.465  13.079  13.638 -0.1600  0.1339 -0.0133
19714W        W35975  14.613  12.435   1.016 -0.1140  0.0744 -0.1853
19715W        W35976   2.114   0.820   2.313 -0.1250  0.2600  0.0708
19716W        W35977  11.716   5.315  14.761  0.2920 -0.3402 -0.3490
19717W        W35978  16.869   5.010  10.483 -0.2269  0.0798  0.1210
19718W        W35979  11.484   6.356  11.452 -0.1531  0.3231 -0.2301
19719W        W35980  12.436   7.390  15.613  0.2052  0.0523  0.1250
19720W        W35981   2.634   7.750   3.141 -0.3111 -0.1970  0.1433
19721W        W35982   6.620   2.674   0.274 -0.2439 -0.1740 -0.0749
19722W        W35983   7.888  17.890   2.980  0.0368  0.0269  0.0224
19723W        W35984  12.787   8.376  14.920 -0.0778  0.0037 -0.0303
19724W        W35985   3.787  18.050  11.319 -0.0229 -0.2204  0.2181
19725W        W35986   8.541   1.764  14.964  0.2098  0.1186  0.1781
19726W        W35987  11.120   4.325  15.387  0.2314 -0.2113 -0.0439
19727W        W35988  11.643   9.027   2.572 -0.0070 -0.4132 -0.1561
19728W        W35989   4.428   1.289   0.335  0.0965 -0.0425 -0.0797
19729W        W35990  17.419  16.124   0.179 -0.1880 -0.2551 -0.0708
19730W        W35991  16.882   4.221  14.385  0.0671 -0.1523  0.3553
19731W        W35992   6.524  14.029   1.662  0.2696 -0.2123 -0.1092
19732W        W35993  10.986   5.106   1.824  0.0094 -0.1599  0.0070
19733W        W35994  14.910   5.539   0.736  0.0592  0.0921  0.0455
19734W        W35995   9.673   8.358  11.932  0.6079 -0.0385 -0.0272
19735W        W35996   6.224   8.569  11.594  0.4564 -0.0089  0.2248
19736W        W35997  13.026   8.127   5.424 -0.3058  0.2783  0.1494
19737W        W35998   7.098   6.438  12.583 -0.2664  0.1069  0.0591
19738W        W35999   1.378  13.812  12.300  0.0664  0.0670 -0.3123
19739W        W36000   8.846   2.784   2.567 -0.1435 -0.1813  0.0206
19740W        W36001  17.884   0.468  11.672 -0.1193 -0.2225 -0.0180
19741W        W36002  13.654   1.504  12.692 -0.2027  0.0622  0.0464
19742W        W36003  12.125  14.590  14.666 -0.0895  0.2291  0.3212
19743W        W36004   8.325  12.625   3.718 -0.1658 -0.1760 -0.2037
19744W        W36005   2.934  14.074   0.501 -0.0677 -0.0912 -0.4873
19745W        W36006   1.482  15.687   0.464  0.0563  0.0937  0.3249
19746W        W36007  16.757   9.073  11.984  0.0078  0.0428  0.2188
19747W        W36008   4.225  10.778   5.695 -0.2184 -0.1948 -0.0142
19748W        W36009  11.253  14.062  12.123 -0.4455  0.0592 -0.0416
19749W        W36010  12.599  12.972   3.800  0.3606 -0.1886  0.1191
19750W        W36011  18.227   0.577   1.318  0.1492  0.3547 -0.0173
19751W        W36012  11.594  13.364   4.170 -0.1100  0.1452  0.0425
19752W        W36013  13.796  17.822   2.161  0.4098  0.1986 -0.0955
19753W        W36014  15.053  18.005  11.644 -0.2172 -0.0401 -0.1226
19754W        W36015   9.440   7.553  14.659  0.0305 -0.1079 -0.2143
19755W        W36016   9.161  17.440  11.935  0.0466 -0.4090 -0.0605
19756W        W36017  10.747   7.870   0.806 -0.2363 -0.2282  0.2699
19757W        W36018   9.190   3.917   5.558 -0.2683  0.0651 -0.0251
19758W        W36019  13.471   6.075   2.672  0.1760 -0.2624 -0.3689
19759W        W36020   0.323   1.338   2.880  0.1694  0.2220 -0.0765
19760W        W36021   8.638   9.175  11.391 -0.1724  0.0516  0.0216
19761W        W36022   7.588   2.959   3.172  0.2217  0.2029 -0.0548
19762W        W36023  14.579   2.051   4.627 -0.0417 -0.0848 -0.0264
19763W        W36024   8.882  12.350  12.815 -0.4128  0.1797  0.0406
19764W        W36025   8.707   0.777  14.477 -0.0509 -0.0002  0.1285
19765W        W36026   9.898   9.291  14.904  0.0050 -0.1110  0.0730
19766W        W36027   8.832  12.797  14.079 -0.2810 -0.1984 -0.0934
19767W        W36028   8.524  13.775  13.069  0.0034 -0.0206  0.0789
19768W        W36029  17.154   7.491  14.501  0.1674  0.3610 -0.0009
19769W        W36030  11.214  12.110   3.646  0.1606 -0.0962 -0.0564
19770W        W36031   5.473   9.910   1.822 -0.1144 -0.4009 -0.0929
19771W        W36032   0.118  13.280  14.135  0.3331  0.1022 -0.2110
19772W        W36033  15.343   6.786  12.792 -0.4251  0.3919  0.1729
19773W        W36034  16.703  18.074  14.438 -0.3435 -0.1800 -0.0711
19774W        W36035  12.268  16.210   4.986  0.0565  0.0480  0.2338
19775W        W36036   1.435  18.605  11.783  0.3917  0.1732 -0.0843
19776W        W36037  13.306  15.758  11.384  0.0547 -0.1194  0.1273
19777W        W36038   6.918  12.581   4.573 -0.0646  0.0412 -0.0131
19778W        W36039   5.018   0.153  12.220  0.1145 -0.0824  0.0081
19779W        W36040   2.106   5.214  12.606  0.0595  0.1607  0.0830
19780W        W36041   3.094   7.121  14.302  0.0536 -0.2585  0.1430
19781W        W36042  10.639   8.987   3.772 -0.1082 -0.0835  0.1217
19782W        W36043   9.758   2.453  13.832  0.1450 -0.1178  0.1144
19783W        W36044   8.223   4.120  15.098  0.0599 -0.1767  0.2575
19784W        W36045   7.237  17.347  11.590  0.0650  0.1236 -0.2978
19785W        W36046  10.639   4.822   2.365 -0.2009  0.0364  0.0957
19786W        W36047  12.482   6.437  15.401  0.3303  0.3345  0.2102
19787W        W36048  12.370  10.899   4.342 -0.4395  0.1108 -0.2020
19788W        W36049  17.544  10.396   3.866 -0.1376 -0.1944 -0.3422
19789W        W36050  18.688  12.328   1.365 -0.0306 -0.0987  0.3427
19790W        W36051  12.304  14.695   0.412  0.0962  0.0739 -0.2268
19791W        W36052  16.836  14.615  12.199 -0.1663  0.3407 -0.0437
19792W        W36053  10.101  17.160  10.944  0.0526  0.1759  0.0187
19793W        W36054   3.588  18.590   2.147 -0.2210 -0.0383  0.0146
19794W        W36055  13.758  13.366  12.880 -0.0974  0.0426 -0.2071
19795W        W36056  14.124  10.140  14.279 -0.2703 -0.1221 -0.3334
19796W        W36057  16.199  11.298  13.680  0.0094  0.0928  0.1513
19797W        W36058   0.370   5.285  13.411 -0.3540  0.2626 -0.1047
19798W        W36059   7.493  14.313  14.246  0.0318  0.2843 -0.2539
19799W        W36060   5.426  17.781   5.033 -0.0198 -0.0491  0.3159
19800W        W36061  10.550  18.052  12.122 -0.0658 -0.3035 -0.2630
19801W        W36062   9.548   6.262   0.151  0.0709  0.0596 -0.0565
19802W        W36063  16.583  15.080  10.981  0.3256  0.0747  0.3890
19803W        W36064  11.534   9.348   0.884 -0.0831  0.2153 -0.0993
19804W        W36065  17.782  18.718  12.416 -0.0607 -0.0763 -0.0039
19805W        W36066  16.717  14.690  15.433 -0.1474  0.0808  0.0268
19806W        W36067   7.469   1.604   4.897 -0.0998  0.0959  0.1005
19807W        W36068   8.586   2.268   4.149  0.2728 -0.1682 -0.2345
19808W        W36069  14.787   2.309   3.488 -0.3638 -0.1037  0.1845
19809W        W36070   7.621  15.959   0.487  0.1172  0.1150 -0.2927
19810W        W36071  12.185   7.175   3.217 -0.2183 -0.0881 -0.1209
19811W        W36072   6.856   1.698   0.328 -0.0044  0.1081 -0.0118
19812W        W36073  16.397  10.836  12.426  0.1015  0.2966  0.1840
19813W        W36074  17.580  14.469  15.069 -0.2546 -0.2106 -0.2497
19814W        W36075  16.518  13.146  13.696 -0.3276  0.0614 -0.0939
19815W        W36076   1.886   4.335   4.492  0.4746 -0.0640  0.1344
19816W        W36077   2.290  12.205   2.188 -0.0807 -0.0334  0.0053
19817W        W36078   0.086  15.648   3.021 -0.3094  0.2286 -0.1217
19818W        W36079  14.464  13.291   5.804 -0.0097  0.0327  0.1080
19819W        W36080  10.888  10.749  12.585  0.0525 -0.0750 -0.1979
19820W        W36081  17.545  10.461   2.187  0.0947 -0.3486 -0.2374
19821W        W36082  12.800   9.839  12.646 -0.2858  0.1540  0.2556
19822W        W36083   4.157   3.536   5.269  0.0157  0.0319  0.3734
19823W        W36084   4.273  13.727   0.183 -0.2529 -0.1296  0.2129
19824W        W36085  10.884   6.999  13.782 -0.0856 -0.3186 -0.1216
19825W        W36086  17.548   0.711   5.798 -0.1388 -0.1761  0.0271
19826W        W36087  12.883   9.930  15.032 -0.1269  0.2024 -0.0279
19827W        W36088  17.927  11.904   3.786  0.0986 -0.0501  0.0206
19828W        W36089   9.995   0.705   2.676  0.0234 -0.0658  0.0528
19829W        W36090  14.678  13.273  11.700  0.0414 -0.3056  0.1173
19830W        W36091   3.352  13.241   0.735  0.0288 -0.0158 -0.0001
19831W        W36092   5.634   1.049   3.797  0.0944 -0.2251 -0.2088
19832W        W36093  12.884  14.795  11.184 -0.1126 -0.2965 -0.2854
19833W        W36094   8.674  17.110   2.896  0.1053  0.3255  0.0765
19834W        W36095   7.615  18.442   3.899  0.0192  0.1586 -0.1255
19835W        W36096  17.886   0.256  13.201  0.2601 -0.1185 -0.0027
19836W        W36097   9.935  17.943  14.670 -0.0365 -0.2235  0.5347
19837W        W36098  15.443  12.572  10.789 -0.0069 -0.0370  0.0963
19838W        W36099   8.356   9.595  13.355  0.1525  0.2556 -0.2055
19839W        W36100   6.433   6.420   3.919 -0.0916  0.3627 -0.0050
19840W        W36101   0.618   3.089  12.933  0.1436 -0.2153 -0.3093
19841W        W36102  14.289   9.457   0.412 -0.0678 -0.1750  0.1984
19842W        W36103  16.501   0.717  13.435 -0.0796  0.0925 -0.0538
19843W        W36104   4.336  18.620   1.085  0.2565  0.0872  0.1797
19844W        W36105  13.608   7.528   3.069 -0.0765  0.1840 -0.3463
19845W        W36106   2.184  15.992   2.717  0.0885 -0.0543  0.3429
19846W        W36107   0.283   4.794   5.695  0.0736  0.0512  0.4724
19847W        W36108   3.254   0.972   1.067 -0.4657  0.1851  0.1776
19848W        W36109   6.145  15.660   1.448  0.2892  0.0046  0.1923
19849W        W36110   8.627  13.388   1.002  0.2120  0.1851  0.0572
19850W        W36111   9.859  14.985   2.038 -0.0447  0.4907 -0.1622
19851W        W36112   8.314   9.477  12.886  0.1478  0.2137  0.0489
19852W        W36113   4.723  12.304  14.364 -0.1490 -0.0111  0.0422
19853W        W36114   1.746  16.147   1.391  0.1619  0.1263 -0.0644
19854W        W36115  13.456  14.150  10.415 -0.1046 -0.0259 -0.1111
19855W        W36116   4.443   3.797  12.218 -0.1339 -0.0050 -0.1005
19856W        W36117   8.538  10.933  11.654  0.2846  0.0009 -0.0482
19857W        W36118  13.805  14.825  15.006 -0.0258 -0.2408  0.2929
19858W        W36119  15.062  12.347   4.572  0.2644 -0.2220  0.2269
19859W        W36120   7.772   8.168   1.492  0.0554  0.0561  0.1664
19860W        W36121  11.747  17.838   1.413  0.2853  0.0085 -0.0129
19861W        W36122   3.784  10.735   2.189 -0.1535 -0.1569 -0.2993
19862W        W36123   3.767  14.817  13.585  0.3389  0.0491  0.1778
19863W        W36124  11.843  18.150   3.610 -0.2083 -0.1652 -0.2931
19864W        W36125   7.011  10.252  11.100 -0.0823  0.1149 -0.0084
19865W        W36126  14.968   5.253  12.336 -0.0703 -0.2110  0.1239
19866W        W36127   2.857  18.022  12.664  0.0192 -0.0600  0.0167
19867W        W36128  12.744  10.037   1.104 -0.1854 -0.0351 -0.1101
19868W        W36129   3.215  17.538  12.237  0.1903 -0.0011 -0.0519
19869W        W36130  13.907  10.787   2.355  0.0373 -0.0861  0.1937
19870W        W36131   5.427  12.724  12.573  0.0408  0.0083  0.0511
19871W        W36132  16.887  13.916  13.503 -0.2905 -0.1223  0.0326
19872W        W36133   7.565   4.326   6.559  0.3168 -0.0541  0.0225
19873W        W36134  18.375   2.261  12.805  0.1922 -0.5480 -0.1281
19874W        W36135   8.703  16.779   5.493 -0.2458  0.0587  0.1849
19875W        W36136   3.901   0.871   1.054 -0.3173 -0.0732  0.0412
19876W        W36137  11.745   4.368   4.476 -0.1450 -0.3702 -0.0963
19877W        W36138   2.193   8.596   5.338  0.2739  0.2760  0.0744
19878W        W36139   7.833   7.535  13.209  0.0345  0.0483 -0.1625
19879W        W36140  16.455  12.472   5.842  0.0740 -0.0131 -0.2554
19880W        W36141   0.093  12.771  11.911 -0.1697 -0.1684  0.0566
19881W        W36142  18.561  18.277   3.725 -0.0912 -0.0341 -0.0730
19882W        W36143  17.077  14.721   3.703  0.2353 -0.2484 -0.0372
19883W        W36144   6.731  10.633  15.357  0.0096  0.0419  0.4064
19884W        W36145  11.107   9.402  15.386 -0.1478  0.1125 -0.0089
19885W        W36146  12.045   6.636  15.340 -0.0191 -0.2780  0.2481
19886W        W36147  16.324  16.248  13.756 -0.0114  0.1202 -0.0691
19887W        W36148   1.814  13.125   1.626  0.2432  0.1905  0.0195
19888W        W36149  11.591   9.596  11.005 -0.3254 -0.1547  0.2594
19889W        W36150  11.802   6.534  13.300 -0.0155 -0.0782  0.0904
19890W        W36151  11.968  10.668   4.646  0.3242 -0.0583  0.0783
19891W        W36152  10.342   9.833   2.389  0.1171 -0.1308  0.0001
19892W        W36153   9.009   2.983   3.948 -0.2162 -0.1064  0.2052
19893W        W36154  16.514   9.611  12.842  0.1147  0.1757 -0.3954
19894W        W36155   8.249   2.989  12.259 -0.2552  0.0785  0.3001
19895W        W36156   4.142  16.079   2.768 -0.0510  0.1696  0.0489
19896W        W36157  12.082   8.424   5.342 -0.2309  0.0138  0.0810
19897W        W36158  13.257  12.512  11.334 -0.0832  0.0719  0.0258
19898W        W36159   0.911  16.319   4.845 -0.1589  0.0546 -0.2869
19899W        W36160   8.578   7.168  10.237  0.2658 -0.0137 -0.0681
19900W        W36161   8.210   8.169   4.519 -0.0139 -0.0187 -0.0941
19901W        W36162  14.610   7.111  14.175  0.0826 -0.2356  0.2272
19902W        W36163  13.037  13.643  14.434 -0.0354  0.1913 -0.2973
19903W        W36164  16.495   7.206   4.474  0.1515  0.2653  0.3793
19904W        W36165   3.806  16.637   0.825  0.1339 -0.0249 -0.0315
19905W        W36166  14.276  16.957  13.245 -0.2044  0.1495  0.3602
19906W        W36167  18.220  12.950  13.238 -0.3570 -0.1145 -0.2615
19907W        W36168  10.765  17.153   4.163  0.0645 -0.1721  0.1230
19908W        W36169  12.091   4.601  13.431  0.1680  0.2778 -0.0539
19909W        W36170   4.575   6.765   4.076  0.2245 -0.1655 -0.2459
19910W        W36171  14.453   2.582   3.202  0.0136 -0.0953 -0.0566
19911W        W36172   6.628  12.030  12.399  0.0910  0.1838  0.2058
19912W        W36173   3.700  13.821   3.385 -0.0933  0.2826 -0.1850
19913W        W36174   9.667  11.782  13.478 -0.0307 -0.0468  0.0507
19914W        W36175  17.609  11.048  11.386 -0.5560  0.1206  0.1081
19915W        W36176  10.887  14.314  11.861 -0.1479  0.3820  0.2927
19916W        W36177   7.667   3.548   0.524  0.1490 -0.0925 -0.0229
19917W        W36178   3.632  10.272   2.882 -0.0238  0.2382  0.2742
19918W        W36179   7.725   3.712  15.128  0.0326 -0.2266 -0.1136
19919W        W36180   2.468  16.061  10.916 -0.0455 -0.2134  0.0307
19920W        W36181   8.654   0.692   0.293 -0.2517 -0.3234  0.1112
19921W        W36182   5.207   3.409   4.279  0.0574  0.1379 -0.3188
19922W        W36183  16.442  11.937   2.551 -0.0511  0.4105  0.0861
19923W        W36184  18.030   6.882  13.577  0.1177  0.1539  0.3281
19924W        W36185   0.528   4.192   2.184 -0.1109 -0.0776  0.3005
19925W        W36186   8.113  17.722   3.894 -0.2180 -0.0302 -0.4128
19926W        W36187   7.484   7.004  15.386  0.1478 -0.0223  0.0580
19927W        W36188   2.042  13.583   0.619 -0.0709 -0.0142 -0.3955
19928W        W36189  15.108   3.574   0.654  0.1400 -0.0597  0.0608
19929W        W36190  17.621   3.548   0.242 -0.1152 -0.0589 -0.2660
19930W        W36191   1.775   1.405  10.893  0.0160  0.1522  0.0207
19931W        W36192   8.430   5.014   3.007 -0.2498  0.2748  0.2479
19932W        W36193  15.036   3.760  13.289  0.0748 -0.0184 -0.3092
19933W        W36194  18.710  10.540  10.615  0.2396 -0.0159 -0.2497
19934W        W36195  18.678  12.422  12.402  0.1007  0.1350  0.1190
19935W        W36196  17.016   8.639  15.570 -0.1126 -0.1463 -0.3118
19936W        W36197   2.218  11.536  12.367  0.1149  0.2724 -0.3352
19937W        W36198  11.957   0.774  15.151  0.2386  0.1321  0.1490
19938W        W36199   6.434   7.136   3.181 -0.1399  0.1941 -0.0430
19939W        W36200   4.180   8.964   5.558 -0.0229 -0.2053  0.2308
19940W        W36201   1.094  12.762   4.212  0.1315 -0.0560  0.1011
19941W        W36202  14.668   7.783  12.934  0.0310  0.3575 -0.0516
19942W        W36203   8.472   5.227  13.369  0.0980  0.1335 -0.0063
19943W        W36204   4.464  12.054  15.476  0.0949 -0.1108 -0.1102
19944W        W36205   1.665   0.379  11.904  0.4092  0.1401 -0.2696
19945W        W36206  12.405   6.789  13.850 -0.0405  0.0315  0.0528
19946W        W36207  17.366  13.489  11.255  0.0137 -0.0852 -0.1419
19947W        W36208   7.554   6.356   0.880  0.1334 -0.2930  0.1207
19948W        W36209  12.128  14.940   4.099  0.2439  0.0482  0.1193
19949W        W36210  13.588  15.166   4.528  0.2251 -0.0666  0.1252
19950W        W36211   5.743  16.540   4.492  0.1743  0.2259  0.2185
19951W        W36212  14.936  15.572   3.233  0.2647 -0.1674 -0.0643
19952W        W36213   6.878  16.412   3.437  0.0925  0.1188  0.1760
19953W        W36214   3.109  13.820  10.798  0.0765  0.2045 -0.0453
19954W        W36215   8.088  11.666   0.715  0.1016  0.0230  0.0696
19955W        W36216   5.353   2.647  13.579 -0.3613  0.0845  0.1226
19956W        W36217  17.509   6.169   0.167  0.0420 -0.0061  0.0164
19957W        W36218   2.046   0.484  14.027  0.0485  0.2281  0.1138
19958W        W36219  10.360  18.095   4.371  0.3593  0.0718 -0.2269
19959W        W36220   4.273   5.948   0.444  0.0670  0.4332  0.0421
19960W        W36221  10.370  10.658  15.546 -0.0392 -0.1285  0.0321
19961W        W36222  18.729   3.447   0.354  0.3257 -0.0109 -0.0233
19962W        W36223  16.198  10.921   2.990 -0.1716 -0.0511  0.0673
19963W        W36224   2.225   4.594  15.127 -0.0425 -0.2803 -0.0957
19964W        W36225   1.370  12.034   1.327 -0.2101 -0.1489  0.2116
19965W        W36226   2.978   3.623   3.725  0.0968  0.1404 -0.0738
19966W        W36227  15.006   8.317  14.764 -0.2845  0.0599 -0.0048
19967W        W36228   2.592   1.001  11.179 -0.1872  0.2642 -0.0362
19968W        W36229  17.642   6.520   3.535  0.2992 -0.2991 -0.1048
19969W        W36230  16.921   0.643  12.525  0.0626 -0.0640 -0.1705
19970W        W36231  15.222  18.825  13.313  0.0648  0.0794  0.3027
19971W        W36232  13.761  13.549   3.856  0.0450 -0.1593 -0.0545
19972W        W36233   7.831  11.526   0.228 -0.0030  0.3392 -0.1652
19973W        W36234   5.325   6.219  11.646  0.0519  0.2159  0.5568
19974W        W36235  13.770   4.379   1.779  0.0723 -0.0600 -0.1019
19975W        W36236  12.028   7.481  13.535 -0.1728 -0.1382 -0.2498
19976W        W36237   1.008   0.963  11.548 -0.0834  0.1382 -0.0008
19977W        W36238  18.561  17.281  12.208  0.1210  0.0710  0.0253
19978W        W36239  15.598  13.625   3.021 -0.2942  0.0800  0.0151
19979W        W36240  16.852  17.220  14.219 -0.2193  0.2822  0.2449
19980W        W36241   0.619   2.284   0.124  0.3257  0.0143  0.2000
19981W        W36242   6.521  10.555   1.531  0.0795  0.2329 -0.0342
19982W        W36243   9.948  17.352  15.318 -0.0722 -0.1759 -0.0057
19983W        W36244  10.384   9.970  15.459 -0.1791  0.3162 -0.4450
19984W        W36245  11.382  15.775  13.374  0.2549 -0.0580  0.1635
19985W        W36246  12.806  14.085  14.536  0.0580  0.1491 -0.0018
19986W        W36247  11.528   4.839   1.090  0.1142 -0.2572  0.0464
19987W        W36248  15.344  11.500   4.538  0.3796 -0.2732  0.0524
19988W        W36249   8.662  18.071   1.318  0.0142  0.2719  0.1028
19989W        W36250  10.824  12.335   2.766  0.0043 -0.1655 -0.2353
19990W        W36251   8.949  14.503   3.362  0.1410 -0.2958  0.1361
19991W        W36252  13.346   6.562   3.542  0.2859 -0.3228 -0.1070
19992W        W36253   6.463   7.446   2.268 -0.3914 -0.1303  0.0583
19993W        W36254   0.070   4.169   4.985  0.1933  0.0451  0.1663
19994W        W36255   1.618  11.942   0.443  0.2601 -0.1217  0.0643
19995W        W36256  12.906  18.414   1.256  0.0527 -0.0482  0.3189
19996W        W36257  17.176   0.390   5.534 -0.4837  0.3066 -0.0163
19997W        W36258   4.532   9.359  14.982 -0.0080 -0.2224 -0.0954
19998W        W36259  17.645   6.254   1.683 -0.1364 -0.0156  0.2076
19999W        W36260   4.614  18.032  14.242  0.0563  0.0115  0.0397
20000W        W36261   5.594   8.327   5.584 -0.0635  0.1401  0.0607
20001W        W36262  10.050  10.877   0.847  0.3523  0.2930  0.5760
20002W        W36263   1.380   9.077   5.270 -0.2262 -0.0908  0.2653
20003W        W36264  11.626   3.357  15.641  0.1053 -0.1327  0.2058
20004W        W36265  16.935  13.888   1.079 -0.2259  0.3389 -0.3118
20005W        W36266  16.922  14.893  12.604 -0.0400 -0.1702 -0.0536
20006W        W36267  16.419   3.879  11.048  0.3608 -0.3187 -0.4378
20007W        W36268   4.089  15.272  14.894 -0.3378  0.1219  0.2293
20008W        W36269   6.661  10.410   3.497  0.1065 -0.0128 -0.1935
20009W        W36270   0.336  11.287  13.574  0.2243  0.2608  0.1199
20010W        W36271  18.608  16.898   3.555  0.0624 -0.4160 -0.1889
20011W        W36272  18.239   8.345   4.870 -0.3811 -0.0062 -0.0317
20012W        W36273  16.845   9.023  13.961  0.0460 -0.0279  0.2783
20013W        W36274   3.911   6.008  13.762  0.1182  0.0590 -0.2719
20014W        W36275  10.482  17.464   1.708  0.1164  0.4622  0.3410
20015W        W36276  10.968   4.842   3.917 -0.1376 -0.0956 -0.0776
20016W        W36277  14.555   3.491  12.320  0.1750 -0.1843  0.0989
20017W        W36278   7.745   2.121   0.142  0.4799 -0.2239 -0.0940
20018W        W36279   3.024   9.194  11.315 -0.1588 -0.0624  0.3056
20019W        W36280   6.396   6.816  13.275  0.1781 -0.1334 -0.0704
20020W        W36281  11.928   1.002   2.686 -0.0873  0.1065 -0.3260
20021W        W36282  18.510  18.629   1.559  0.0009  0.3191 -0.0151
20022W        W36283   2.918   9.959  13.254  0.2179  0.2763 -0.0329
20023W        W36284   9.958  11.510   2.380  0.1264 -0.0299 -0.0371
20024W        W36285  12.421   1.073  15.299 -0.3493 -0.1099  0.0963
20025W        W36286   2.620   8.937   2.682 -0.2133 -0.2073  0.1904
20026W        W36287   0.654  15.972  12.860  0.1462  0.1187 -0.1564
20027W        W36288  15.466   1.284  12.247  0.1882  0.1880  0.0627
20028W        W36289   0.442  18.426   2.632 -0.1605 -0.0764  0.0685
20029W        W36290   4.069  13.905   3.886  0.1673 -0.0291 -0.1399
20030W        W36291  17.249  11.681  11.161  0.0952  0.0659  0.1310
20031W        W36292   1.697   0.391  10.571 -0.0061 -0.4296 -0.1143
20032W        W36293   1.023  10.125  13.127 -0.0264  0.2745 -0.1663
20033W        W36294   2.351  11.654   4.528 -0.0728  0.3242 -0.0915
20034W        W36295   0.796   3.070  12.360  0.5089 -0.1771  0.1127
20035W        W36296   3.176   3.516   4.248  0.3263 -0.2424 -0.2086
20036W        W36297   9.322  12.491   1.022  0.1768 -0.2213  0.1599
20037W        W36298   3.713   9.012   4.533 -0.0886 -0.1321 -0.2496
20038W        W36299   7.380   7.822  13.313 -0.0986  0.0709 -0.2440
20039W        W36300   5.771  11.903  11.907  0.1239 -0.1118 -0.0851
20040W        W36301  12.627   5.057  12.237  0.2423 -0.1113  0.1311
20041W        W36302   8.246  11.464  14.556  0.2188  0.2044 -0.3190
20042W        W36303  15.316  11.495   2.052  0.1752 -0.0124 -0.2141
20043W        W36304   3.248  10.835   2.137  0.0936  0.2080 -0.2091
20044W        W36305  12.421  12.267   2.844  0.0422  0.0888  0.0503
20045W        W36306  10.019  10.421  12.682  0.0301  0.0752 -0.3605
20046W        W36307   4.943   8.148  12.043  0.0193 -0.1277  0.1483
20047W        W36308  16.986  17.547   2.088 -0.1644  0.1348 -0.2439
20048W        W36309   6.876   0.717  11.794  0.0382  0.2420 -0.3001
20049W        W36310  18.617  12.943   4.286  0.1400  0.0983 -0.0494
20050W        W36311  13.444   7.110  15.419 -0.0070  0.1754 -0.0464
20051W        W36312   8.416   6.631  13.274  0.1231  0.3399 -0.1032
20052W        W36313  14.264  12.050  10.551  0.1533  0.2155  0.0792
20053W        W36314   5.918   7.920  14.015  0.0107  0.2109  0.0774
20054W        W36315   8.708   7.187  13.474  0.2536  0.2451  0.1227
20055W        W36316  12.020   1.101   4.307  0.0237  0.1414 -0.2988
20056W        W36317  10.507  14.804   1.352  0.0398 -0.0222  0.0991
20057W        W36318   9.663  12.749   2.048 -0.0353  0.3719  0.1386
20058W        W36319  18.370  12.651  10.719 -0.2115 -0.3310  0.0509
20059W        W36320  11.904   8.098  13.969 -0.0143 -0.1051 -0.0755
20060W        W36321   2.748  13.062   3.061 -0.3531 -0.1718  0.0467
20061W        W36322  12.098   2.294   1.314  0.1738  0.1282  0.0578
20062W        W36323  11.984   2.488  12.161  0.1835 -0.0218 -0.1503
20063W        W36324  13.677  14.442   1.223  0.1403 -0.3282  0.0647
20064W        W36325   6.526  15.645   0.885  0.3505  0.0993 -0.0458
20065W        W36326  16.258  17.379  15.044  0.0439 -0.0896  0.1203
20066W        W36327  12.788  17.236   3.667  0.1409  0.1612 -0.0350
20067W        W36328   2.930  18.023  11.313 -0.1286  0.0623  0.0329
20068W        W36329  13.305   9.594   0.023  0.0153 -0.2718  0.1624
20069W        W36330   1.460   7.709   4.280  0.0172 -0.3743 -0.0200
20070W        W36331   0.746   5.809  15.203  0.1622  0.2181  0.0018
20071W        W36332  17.441  16.245   3.084  0.1792 -0.0952  0.3685
20072W        W36333  17.204  16.503   2.744  0.3126 -0.0334 -0.2035
20073W        W36334   9.479  16.227   4.595 -0.1578 -0.1342 -0.1491
20074W        W36335  18.640   0.097  15.330 -0.2260  0.1025  0.2112
20075W        W36336  17.891  16.295  14.290  0.1774  0.0184  0.1055
20076W        W36337   9.006  15.419  10.966  0.2927 -0.1372  0.0996
20077W        W36338  14.964   8.782  13.496  0.2055 -0.4118  0.1835
20078W        W36339  10.402  13.112   1.140 -0.2557 -0.1087 -0.0533
20079W        W36340  10.300  11.456  13.341 -0.2724 -0.0368  0.1340
20080W        W36341   4.306  17.910  11.829 -0.1729 -0.0514  0.0886
20081W        W36342   6.288   6.611  14.530  0.1996  0.0076  0.1481
20082W        W36343  15.796   4.240   3.258 -0.2236 -0.0391 -0.2713
20083W        W36344  18.637  16.769   2.060  0.0744  0.1425 -0.1277
20084W        W36345   5.746  16.621  14.375 -0.0159  0.0600 -0.0533
20085W        W36346  13.915   1.727   3.015 -0.1664  0.4000  0.0696
20086W        W36347   6.492  14.642   0.182  0.3096 -0.1157 -0.1488
20087W        W36348   0.271   2.085   1.217  0.1010  0.3804 -0.0506
20088W        W36349   2.171   6.879   5.900 -0.0333  0.3477 -0.2254
20089W        W36350  13.268   5.985  11.481  0.2828 -0.0093 -0.2794
20090W        W36351  17.118  12.930   4.704 -0.1087  0.0931 -0.0884
20091W        W36352   5.098  15.003   4.917  0.3749  0.1179  0.1491
20092W        W36353  11.437  16.012  11.212  0.0226 -0.1228 -0.2056
20093W        W36354   3.315   7.416   3.214 -0.0912  0.1709 -0.0037
20094W        W36355   9.496  17.405   4.817 -0.0316  0.1930 -0.2094
20095W        W36356  10.221  11.558   4.032 -0.3022  0.5659  0.1848
20096W        W36357  11.107  12.634  14.187 -0.0820  0.0716 -0.1586
20097W        W36358  12.801  17.679  14.586 -0.0524 -0.3560 -0.0165
20098W        W36359  11.346   9.663   3.758  0.1642 -0.1189 -0.2339
20099W        W36360   9.299   6.278   3.833  0.2669  0.1753 -0.1291
20100W        W36361   8.308   6.521   4.915 -0.0088 -0.0100 -0.1827
20101W        W36362   9.705   7.559   3.179 -0.1069 -0.1593 -0.3600
20102W        W36363  16.857   7.884  14.983 -0.1957  0.0036 -0.0449
20103W        W36364   7.655   5.745  13.696 -0.3188 -0.1230  0.2441
20104W        W36365   8.557  17.516   6.261 -0.0599 -0.0920 -0.0778
20105W        W36366   8.078  16.333   1.567 -0.0567 -0.1050  0.0149
20106W        W36367  12.304   4.828   3.265  0.0190  0.0813  0.0199
20107W        W36368  11.646   2.060   4.814 -0.0649 -0.1458  0.0362
20108W        W36369  16.919   7.968  11.913 -0.4126 -0.1011  0.1757
20109W        W36370  18.019  10.950   4.742 -0.1148 -0.1458  0.0953
20110W        W36371  10.902   3.550   3.867  0.1559 -0.2321  0.2293
20111W        W36372   4.625  11.603  15.347  0.0529 -0.1638  0.3972
20112W        W36373  12.850  12.765   2.169 -0.0508 -0.2207 -0.0596
20113W        W36374   5.662  10.707  13.890  0.1792 -0.0695  0.1640
20114W        W36375  11.535   6.676   4.668  0.1465 -0.1700 -0.4620
20115W        W36376  14.643   5.698  13.584 -0.2184  0.1619 -0.0750
20116W        W36377   0.085   3.051  12.989 -0.3212  0.2026  0.1910
20117W        W36378   5.003   8.155   2.780  0.3546 -0.1410  0.1945
20118W        W36379  15.433   7.649  15.113 -0.0648  0.1592 -0.1278
20119W        W36380   7.829   1.178  11.941  0.0308 -0.1256  0.2277
20120W        W36381   6.724   1.643  11.461 -0.1914  0.1370  0.1702
20121W        W36382  17.842   4.287  14.319 -0.0305  0.0189  0.0631
20122W        W36383  18.342   7.860  11.915 -0.0868 -0.2112 -0.1168
20123W        W36384  10.839  18.585   1.573  0.0141 -0.1906  0.0315
20124W        W36385  11.163   2.689   3.459  0.0677  0.3003 -0.4409
20125W        W36386   9.503  12.031  14.516 -0.2642  0.0858 -0.1153
20126W        W36387  16.192   7.141   4.863 -0.2901  0.2396  0.0495
20127W        W36388  10.743  18.717  12.113 -0.0323 -0.2257 -0.3117
20128W        W36389   6.553   8.746   6.371 -0.0714  0.1071  0.0062
20129W        W36390  15.753  12.911  10.535 -0.1929 -0.1308 -0.0443
20130W        W36391  16.702   9.560  13.834  0.0977 -0.1168  0.1275
20131W        W36392  15.053   4.986  14.935 -0.1077  0.4098 -0.1656
20132W        W36393   1.962  15.190  15.507  0.0528 -0.3342 -0.2323
20133W        W36394   4.244  12.730  13.514  0.1566  0.2491 -0.3891
20134W        W36395  16.268   4.471   1.090 -0.0295 -0.2163 -0.1101
20135W        W36396  15.513  10.369   2.916 -0.0058  0.1006 -0.0330
20136W        W36397   6.300  13.165   3.312  0.0710 -0.0223  0.0729
20137W        W36398  17.730   3.116   0.366 -0.3092 -0.1584  0.2305
20138W        W36399  14.666   6.825   0.851  0.0261 -0.1067  0.0971
20139W        W36400  10.235  13.246  14.737 -0.1318  0.0165 -0.4266
20140W        W36401   4.428  11.262  13.936 -0.0542  0.0120 -0.0822
20141W        W36402  11.192  10.109   4.435  0.0887 -0.0443 -0.5396
20142W        W36403  12.523  14.694   3.286  0.0240  0.0023  0.3638
20143W        W36404   7.620  16.241  11.241 -0.4273  0.0407  0.4495
20144W        W36405  14.334   5.633   3.693 -0.0779  0.0713 -0.1740
20145W        W36406   6.212   5.777  13.462 -0.0194 -0.0043  0.1792
20146W        W36407   4.704   7.691   1.374  0.1160 -0.1368  0.1515
20147W        W36408  13.390   3.918  13.937  0.2799 -0.4981  0.0741
20148W        W36409  17.096   2.662   1.308 -0.1242 -0.4869 -0.0575
20149W        W36410  16.147   9.264  11.805  0.0875 -0.1852 -0.1911
20150W        W36411  18.585  10.280   0.030  0.1800  0.2373 -0.2534
20151W        W36412  15.242  18.748  15.370  0.1981 -0.1383  0.0353
20152W        W36413   2.082   0.621  11.294 -0.0824  0.0449 -0.2637
20153W        W36414  18.248   6.028  13.251 -0.1622  0.2286 -0.2272
20154W        W36415   7.966  10.032   4.395 -0.2829 -0.2698  0.1175
20155W        W36416  13.350   0.905  15.399 -0.0525  0.4359 -0.0309
20156W        W36417   7.702   2.776  15.359 -0.2862  0.0219 -0.1205
20157W        W36418   4.063   6.670   5.019 -0.0026 -0.0080  0.2465
20158W        W36419  17.266   6.529   2.212 -0.0956 -0.1313 -0.1226
20159W        W36420   0.604  15.308   2.278 -0.0237  0.2230 -0.0070
20160W        W36421   7.169  13.556   4.234 -0.0621  0.1761  0.0391
20161W        W36422  13.840  18.705  12.649  0.2154 -0.0508  0.0224
20162W        W36423   8.700  17.958  14.374 -0.2646 -0.1632  0.1563
20163W        W36424   7.385  15.489   4.891  0.1655 -0.1488 -0.0398
20164W        W36425  17.907   7.500  11.105 -0.1557 -0.1042  0.2163
20165W        W36426   6.997   6.574   5.065  0.1545 -0.3489  0.0112
20166W        W36427   9.232  10.703   1.672 -0.0011 -0.0492  0.1743
20167W        W36428   0.484   5.159  14.113  0.0164  0.0469  0.2702
20168W        W36429   3.423   0.692  10.718 -0.1723  0.0196 -0.4235
20169W        W36430   4.694   5.580  12.375 -0.2639 -0.0301  0.2962
20170W        W36431  11.942   9.491   4.834 -0.1723  0.0086  0.0730
20171W        W36432   5.070   9.971  12.298 -0.0991  0.0979  0.0024
20172W        W36433  14.205  17.115  10.788 -0.1373 -0.0468  0.1323
20173W        W36434  17.588   8.346  14.974 -0.1310  0.0055  0.0443
20174W        W36435  13.932  16.858  12.756 -0.0237  0.1750  0.0885
20175W        W36436   8.860  10.919   4.128  0.1091 -0.2632  0.2368
20176W        W36437   9.619   2.783   0.208 -0.3076 -0.1527 -0.1302
20177W        W36438   7.351  17.929  14.014  0.3199  0.0863 -0.2233
20178W        W36439   4.057   2.066   2.171 -0.0867 -0.0283 -0.0241
20179W        W36440   2.509  12.144   3.602  0.0815  0.2454  0.2951
20180W        W36441  15.743  17.100   5.774 -0.2315  0.0482  0.0042
20181W        W36442   0.544   2.091   0.760 -0.0536 -0.0375 -0.1470
20182W        W36443  16.389   8.018   4.523 -0.1583 -0.0117 -0.2999
20183W        W36444  18.484   5.541   3.835  0.2500  0.1111  0.3075
20184W        W36445   5.834   2.318   4.719 -0.1055 -0.3201 -0.1428
20185W        W36446  15.293  16.241   9.811 -0.3527 -0.0216 -0.2561
20186W        W36447   8.245   5.633  14.473  0.1957  0.1724 -0.1568
20187W        W36448   9.461   8.672   2.396 -0.0983  0.0729  0.2704
20188W        W36449  14.238   7.919   4.214 -0.1449  0.1443  0.2299
20189W        W36450  15.652   5.241  15.221 -0.1470  0.1800  0.1414
20190W        W36451   8.671  17.229  13.691  0.1498  0.0072  0.0409
20191W        W36452   4.173  10.074   2.551 -0.0965 -0.3161 -0.0847
20192W        W36453   3.770  12.977   5.442  0.4005  0.0184 -0.2215
20193W        W36454   4.192   5.191  11.622  0.1212 -0.1934  0.3547
20194W        W36455  15.798   0.497   1.053  0.1110 -0.3036 -0.0299
20195W        W36456  16.029   4.900   2.342 -0.4307 -0.0366 -0.2099
20196W        W36457   5.925  17.706   2.043 -0.3007  0.3911  0.0851
20197W        W36458   6.167  13.308  14.453 -0.2067 -0.1399  0.0615
20198W        W36459  13.844   3.499   5.131  0.3000 -0.0766 -0.3596
20199W        W36460  15.788   1.308   4.012  0.3417 -0.0757  0.2719
20200W        W36461   9.967   5.990   1.687 -0.1550 -0.0045  0.2613
20201W        W36462  18.221   1.472  14.593 -0.0106  0.0303  0.2954
20202W        W36463   4.425  15.849  12.288  0.4843 -0.1183  0.2770
20203W        W36464   6.771   4.610  11.985 -0.0114 -0.1260 -0.0496
20204W        W36465   7.260   6.384  14.023 -0.3212  0.2261 -0.0910
20205W        W36466   1.646  15.340   3.032 -0.4651 -0.1189 -0.0352
20206W        W36467   8.013   7.916   5.390  0.0269  0.1243 -0.2985
20207W        W36468   8.003  13.874   4.701  0.0095 -0.0610  0.1698
20208W        W36469  14.547   7.401   4.178 -0.1134 -0.0340 -0.0836
20209W        W36470  18.541   4.474   3.151  0.1235  0.1951 -0.2253
20210W        W36471  13.580   9.643  11.021 -0.2392 -0.3050  0.0298
20211W        W36472  11.793  11.106   2.040 -0.4397  0.2453 -0.1763
20212W        W36473   1.658  11.607   1.193 -0.1925  0.0550  0.2544
20213W        W36474  11.495   2.313   2.214  0.0053 -0.0695 -0.0462
20214W        W36475   3.692   0.747   0.520  0.0913 -0.0518  0.0403
20215W        W36476   8.566   1.994   3.084 -0.3593  0.1071 -0.2169
20216W        W36477   1.318   6.849   3.852 -0.0284 -0.1151  0.2856
20217W        W36478  10.347   8.768  14.055 -0.1101  0.1618  0.0003
20218W        W36479   8.349  15.656   9.791 -0.0791  0.0584  0.2671
20219W        W36480   5.133  14.528   0.502 -0.1028  0.3590 -0.1045
20220W        W36481  14.611   5.729  10.643  0.1625 -0.1547  0.0124
20221W        W36482   7.032  13.428  11.996 -0.0157  0.1299 -0.1743
20222W        W36483  17.911   9.163   4.171 -0.4035 -0.1100 -0.4557
20223W        W36484   1.888  17.532   3.388 -0.1645 -0.0695  0.2826
20224W        W36485  10.073  16.182  10.975  0.1026 -0.1695 -0.0516
20225W        W36486  14.805   5.224  13.179  0.1074  0.2582  0.0789
20226W        W36487  12.125   1.875   1.620 -0.0066  0.3840  0.0729
20227W        W36488  16.054   2.705   4.130 -0.2181  0.1158  0.1497
20228W        W36489  14.670  12.873  15.251 -0.2918 -0.0527  0.1588
20229W        W36490   8.852   4.130  15.118 -0.0335 -0.2932 -0.1245
20230W        W36491   6.329   3.485  13.853  0.1343 -0.1436 -0.1391
20231W        W36492  15.115  10.184  10.552  0.1916 -0.0201  0.2876
20232W        W36493  10.741   8.460   2.469  0.1488 -0.0584  0.0206
20233W        W36494   4.183  11.327  14.708  0.0491 -0.0100 -0.0837
20234W        W36495   4.902   7.908   1.824 -0.2039  0.2573 -0.0630
20235W        W36496  10.494  14.458   1.851  0.1096  0.3284  0.1652
20236W        W36497  10.286  14.840  11.345 -0.2258  0.0382  0.1506
20237W        W36498  18.418  10.127   2.506  0.0665 -0.4279  0.2649
20238W        W36499   0.387  13.006   5.906  0.1726  0.0670  0.0412
20239W        W36500   7.944   8.298  11.214 -0.0163  0.0882  0.2400
20240W        W36501   7.313  14.550   1.604 -0.1871 -0.3182 -0.0250
20241W        W36502   3.375   9.395   1.403 -0.0771 -0.4451 -0.0417
20242W        W36503  16.245   3.600  12.930 -0.1143 -0.1679  0.1872
20243W        W36504  15.333   0.120   5.626 -0.1504 -0.3322 -0.1596
20244W        W36505  17.454  14.510   1.044  0.1632 -0.0521  0.3151
20245W        W36506  15.089   8.465   4.821  0.1733  0.0399 -0.0032
20246W        W36507  16.790   5.369  12.790  0.0135  0.0115  0.2135
20247W        W36508   6.367  10.734   3.081  0.3239 -0.5523 -0.0372
20248W        W36509   7.397   2.799  12.683 -0.0663  0.0036  0.2119
20249W        W36510   3.461  15.782   3.157 -0.2211  0.2835  0.1557
20250W        W36511  15.369  11.048   4.666  0.1917 -0.1152 -0.1263
20251W        W36512  14.012  12.541   0.436  0.1321 -0.1202  0.0297
20252W        W36513  14.931   5.056   5.729  0.3004 -0.1255 -0.1567
20253W        W36514  13.395   8.197  12.481 -0.2171  0.1859 -0.2654
20254W        W36515  17.190   4.244  10.967  0.1136  0.2226  0.0717
20255W        W36516   2.217   8.955   5.854  0.0734  0.3394 -0.1430
20256W        W36517  11.476   7.274   2.650 -0.3050 -0.1975 -0.2512
20257W        W36518  14.276  10.037   2.244  0.0589 -0.1582 -0.1929
20258W        W36519   2.901  13.465   0.673  0.3844  0.0411  0.0893
20259W        W36520  14.981   3.378  15.412  0.4474  0.2259 -0.0086
20260W        W36521   6.568  12.660  15.028 -0.0896  0.2262  0.3182
20261W        W36522   8.796  17.383   4.302  0.0721 -0.1717  0.1087
20262W        W36523  16.936   3.477  13.376 -0.0095 -0.1515 -0.0516
20263W        W36524   1.229   5.725  11.695  0.2514  0.0329  0.2645
20264W        W36525  16.310  11.374   2.774  0.0250  0.0592 -0.0094
20265W        W36526  11.602   8.939  11.680 -0.1555 -0.1212  0.0466
20266W        W36527   1.232   9.114  11.713 -0.0100 -0.0609  0.2073
20267W        W36528   5.823  13.422   5.098 -0.0969  0.0009  0.0489
20268W        W36529   4.702   3.066   2.966 -0.3711 -0.0262  0.1011
20269W        W36530  15.937   6.926   3.601  0.0510  0.0883  0.2934
20270W        W36531   1.014   9.926   3.154 -0.1594  0.0969  0.0341
20271W        W36532  17.103   2.382   4.167  0.1475 -0.0743 -0.1230
20272W        W36533   9.590   3.158   4.560 -0.0223  0.0886 -0.3255
20273W        W36534  16.572  12.371  10.158  0.0685 -0.0622  0.2060
20274W        W36535  12.072  14.773  13.051  0.0061  0.1047  0.0696
20275W        W36536   4.528   7.393  11.465 -0.0179  0.1469 -0.1169
20276W        W36537   6.408   2.936  13.995  0.0518  0.1336  0.1698
20277W        W36538  15.326   2.507  13.444  0.0484  0.0639 -0.1740
20278W        W36539   4.916  16.694   2.717 -0.2950  0.2293  0.0417
20279W        W36540  11.333  16.351   4.962 -0.0770 -0.0959  0.0779
20280W        W36541  15.314  16.341   0.383  0.2532  0.2152 -0.2259
20281W        W36542  13.285  15.296   0.853 -0.3184 -0.0226 -0.0505
20282W        W36543   9.950   3.787  11.991 -0.1926  0.0544  0.0393
20283W        W36544  10.782   2.526  12.114 -0.2099  0.2927  0.1758
20284W        W36545   1.780  14.084  14.627 -0.0834 -0.1520  0.3706
20285W        W36546  10.815   8.934   5.544 -0.1411  0.0627 -0.2384
20286W        W36547   5.221   6.689  13.101 -0.4204 -0.0120  0.0156
20287W        W36548  11.089   2.059  11.491  0.0086  0.1876  0.1017
20288W        W36549   8.102   8.703   5.153 -0.1246  0.1307  0.2151
20289W        W36550  15.588  18.575   5.906 -0.0646  0.0800  0.2637
20290W        W36551  18.159  14.133   3.051 -0.1277  0.2334 -0.3707
20291W        W36552  13.939   0.154   4.775  0.0724 -0.1256  0.1891
20292W        W36553  14.937   4.156   2.342 -0.0344  0.1191  0.2332
20293W        W36554   2.622  13.629  10.796  0.0197  0.0328 -0.0184
20294W        W36555   6.626  18.189  14.477 -0.1668 -0.1946  0.0200
20295W        W36556   5.305   8.024   5.251 -0.1993  0.0976 -0.1144
20296W        W36557  18.406  10.654  13.314  0.1604  0.1913  0.1977
20297W        W36558  14.832  17.242  13.780  0.1142  0.1021  0.1062
20298W        W36559  13.777   7.815   4.329  0.6825  0.1758  0.2890
20299W        W36560  12.658  16.722  10.962 -0.3573  0.5837  0.4059
20300W        W36561   2.083  15.730  14.693  0.2842  0.2467  0.0823
20301W        W36562   6.882   1.786  13.640  0.4150 -0.0847 -0.1467
20302W        W36563   7.933  11.930   4.224  0.1861 -0.0506  0.0464
20303W        W36564  18.053  14.140  12.197  0.1003  0.0814 -0.0136
20304W        W36565  15.013  17.426  14.177 -0.1295 -0.0246  0.0525
20305W        W36566   6.820  16.138   2.143 -0.0305 -0.3568  0.0326
20306W        W36567  10.897   3.173   5.288  0.1978  0.2024  0.0052
20307W        W36568   6.137  16.614  11.404 -0.0726  0.1873  0.1349
20308W        W36569  13.503  15.334   3.985 -0.1303 -0.2317  0.0295
20309W        W36570  12.535  14.265   5.254 -0.0401 -0.1047 -0.2114
20310W        W36571   6.086   7.873  13.006  0.0262 -0.2488 -0.0805
20311W        W36572  15.334   9.984   3.178  0.2831 -0.2058  0.2913
20312W        W36573  16.141  10.973   1.418 -0.0761 -0.2975 -0.0179
20313W        W36574  18.469   7.010  13.327 -0.3513 -0.0262  0.0011
20314W        W36575  16.473   3.173   2.415  0.0827  0.2633  0.0282
20315W        W36576   8.533  12.477   2.853  0.2153 -0.2064  0.0507
20316W        W36577  13.307  14.731   4.660 -0.1485  0.1906 -0.2795
20317W        W36578   2.940   4.518   1.284  0.0773  0.0344  0.0068
20318W        W36579   9.899   4.086   2.270 -0.0411 -0.0574  0.2850
20319W        W36580   6.155  16.828   0.450 -0.4616 -0.1300  0.0793
20320W        W36581   1.698   3.443  11.331  0.1852  0.0931  0.0171
20321W        W36582  16.794  13.471  11.946 -0.1328 -0.0584 -0.2472
20322W        W36583  13.109   7.943  14.695 -0.0679  0.0739  0.1511
20323W        W36584   7.183   0.301   3.711 -0.1146 -0.2682  0.1053
20324W        W36585  16.246  10.347  12.614  0.2449  0.1954  0.1917
20325W        W36586   9.384   3.764   1.019 -0.1979 -0.1179  0.1290
20326W        W36587   1.211   5.527  15.602 -0.0384  0.0692 -0.0575
20327W        W36588   2.945  13.653   1.994  0.3009  0.2371 -0.1718
20328W        W36589  17.945  13.705  13.686 -0.0788  0.1142  0.0292
20329W        W36590   6.349   1.252   0.315 -0.0854 -0.2793  0.0519
20330W        W36591  15.147   8.403   1.431  0.1300 -0.3096  0.0596
20331W        W36592   3.125   1.259   0.161 -0.2577  0.0186  0.0494
20332W        W36593  16.029   4.507   2.091  0.4726 -0.0693  0.2744
20333W        W36594  15.238   3.900   1.013  0.0594 -0.2090  0.0192
20334W        W36595  13.571  11.954  12.501  0.1867  0.0760 -0.1862
20335W        W36596   5.584   8.688   4.576  0.0190  0.0017  0.0204
20336W        W36597   9.771  10.051  14.359 -0.1409  0.3748 -0.0749
20337W        W36598  17.672   3.795  14.386  0.2625 -0.1698 -0.2765
20338W        W36599   7.060  17.849  11.533  0.0489 -0.2409  0.0547
20339W        W36600  18.326  17.522  14.060  0.2826 -0.1655 -0.2695
20340W        W36601  16.572   8.642  13.173  0.0462  0.0878 -0.1323
20341W        W36602   8.096   3.970  14.264 -0.2314  0.0886  0.2509
20342W        W36603  11.147   2.461   0.765  0.2960  0.1539  0.2521
20343W        W36604  16.926  10.630  11.610 -0.0075 -0.3547  0.0478
20344W        W36605  10.391   3.646   4.050  0.0235 -0.0926 -0.1742
20345W        W36606  17.792  12.560   4.306  0.0108 -0.0605 -0.2146
20346W        W36607   3.126  13.493   5.454 -0.1447 -0.0692  0.1411
20347W        W36608   8.362  18.300   2.456 -0.1405  0.3702  0.1101
20348W        W36609   2.127   9.622   2.221 -0.2716 -0.0194  0.1075
20349W        W36610   3.713   2.142   0.291 -0.0865  0.1148 -0.0285
20350W        W36611  18.002  14.249  14.860  0.1376  0.0977 -0.1622
20351W        W36612   2.022  16.251  12.790 -0.3207 -0.1678 -0.0919
20352W        W36613   6.408   4.898  12.488  0.0814 -0.1653 -0.1324
20353W        W36614  17.835  13.621   1.524 -0.0363  0.1123 -0.0482
20354W        W36615   9.224   4.020  13.297  0.1127 -0.0796 -0.1932
20355W        W36616   8.636   0.707   5.745  0.0279  0.1186  0.1710
20356W        W36617  18.563   5.077   2.426 -0.1322 -0.2013 -0.0688
20357W        W36618  17.862  13.565  14.724  0.0016 -0.2021 -0.2914
20358W        W36619   4.710   5.914   6.255  0.1012  0.2753  0.3123
20359W        W36620   9.937  16.065   4.490 -0.0481 -0.3456 -0.0174
20360W        W36621   1.004   6.529  12.194  0.1792  0.2486 -0.0898
20361W        W36622  16.935  16.099   3.126 -0.0752 -0.0928  0.2715
20362W        W36623   0.774   5.703  13.237  0.0324  0.0879 -0.0246
20363W        W36624   6.690   6.237  12.260  0.3301 -0.0347 -0.0871
20364W        W36625   3.032  16.041   4.958  0.1473  0.0606 -0.4443
20365W        W36626  14.345   7.639   1.664 -0.2654 -0.0292 -0.0310
20366W        W36627  16.675  17.700  11.038 -0.0362 -0.3848 -0.1086
20367W        W36628  11.497  12.119  12.225  0.1721 -0.0466  0.0799
20368W        W36629  11.847   4.738   2.297  0.0065  0.3559 -0.0619
20369W        W36630  12.690  18.091   4.470  0.1624 -0.1493  0.0456
20370W        W36631   6.851  18.821   4.637  0.0862  0.1836  0.1686
20371W        W36632  16.299   9.134  12.874  0.6560 -0.4304 -0.4434
20372W        W36633  18.756  13.126   3.014 -0.1083 -0.1483  0.1303
20373W        W36634  12.917   6.235  14.568  0.2548  0.1982  0.1315
20374W        W36635  12.425   1.308   4.540 -0.1753  0.4799 -0.1982
20375W        W36636  16.062  13.446  11.635  0.3582  0.0370  0.0397
20376W        W36637   1.614  10.513  12.499 -0.1816 -0.1530  0.1803
20377W        W36638   3.668   0.485   3.632 -0.1714  0.1737  0.2095
20378W        W36639   2.551   4.614  14.592  0.0048  0.0701  0.1872
20379W        W36640   0.959   1.406  13.376  0.1411 -0.1240 -0.2904
20380W        W36641  17.411   1.893  13.080 -0.3601 -0.2407  0.0765
20381W        W36642   9.765   0.785  15.459 -0.2514 -0.1906 -0.2769
20382W        W36643  18.689  17.175   3.950 -0.1491  0.0585  0.1285
20383W        W36644   0.476   0.928  10.435 -0.2880  0.2370  0.1853
20384W        W36645  17.361   9.813  15.593  0.0753  0.0715  0.1265
20385W        W36646   9.751  11.150  13.220  0.1444 -0.3410  0.2056
20386W        W36647  17.194  13.683   2.871  0.1281 -0.2290  0.2409
20387W        W36648  15.891  12.929   1.661 -0.1395  0.0782  0.1277
20388W        W36649   6.430   4.757  11.512 -0.3310  0.0877 -0.3752
20389W        W36650  14.711   7.248  12.975  0.2519 -0.1019 -0.0690
20390W        W36651  17.781   2.019   1.383  0.0520  0.2234 -0.3544
20391W        W36652   3.444  16.976   4.856 -0.0342  0.2841 -0.2009
20392W        W36653   9.735   4.633   5.051 -0.2290  0.2180 -0.0074
20393W        W36654  10.669   9.519  13.938  0.0138  0.0342 -0.0746
20394W        W36655  13.589  14.504   0.265  0.1278  0.2858  0.2521
20395W        W36656  16.297  12.647  13.203 -0.3087  0.1713 -0.1000
20396W        W36657   5.404   8.111  12.327  0.2716 -0.2188  0.0281
20397W        W36658  13.058  16.366   4.485 -0.0724 -0.0345 -0.1229
20398W        W36659   2.198  13.913  14.871 -0.1108 -0.0758 -0.1478
20399W        W36660  18.418  16.922  10.593  0.0653  0.1746  0.1192
20400W        W36661   9.169  12.480  14.396 -0.0756  0.0627 -0.0941
20401W        W36662   7.197   7.422   0.378 -0.0375 -0.1992  0.3668
20402W        W36663  13.697  15.917   4.796 -0.3718 -0.0295  0.0437
20403W        W36664  10.963   3.203   3.393 -0.5615 -0.2338 -0.1928
20404W        W36665  18.587  17.845  15.482  0.3465 -0.0237 -0.0063
20405W        W36666   9.744  16.271  12.096  0.0099  0.3735 -0.0881
20406W        W36667  13.297   0.177  14.885 -0.1349 -0.1719 -0.2573
20407W        W36668  12.245  17.855  12.276 -0.2832  0.1636 -0.1537
20408W        W36669   5.001  12.208  12.229  0.0032 -0.1798  0.0589
20409W        W36670   8.664   9.877  11.404  0.0653  0.1926  0.1611
20410W        W36671   6.565  16.621   4.391  0.1585  0.1183  0.3454
20411W        W36672  10.635   3.254  15.257  0.2595 -0.0453 -0.1191
20412W        W36673  14.868   0.056   3.974 -0.0540 -0.1239 -0.2165
20413W        W36674  15.813   8.972   1.442  0.0591  0.0396  0.2210
20414W        W36675  16.999  13.111  13.964 -0.0330 -0.2130  0.2375
20415W        W36676  13.312   5.803   0.675  0.0140  0.1528 -0.1351
20416W        W36677   7.364   6.121  15.559  0.0836  0.1536 -0.0682
20417W        W36678  18.588   8.682   3.291  0.2288 -0.1080  0.0652
20418W        W36679   9.205   6.786   3.788 -0.3125 -0.1783  0.0467
20419W        W36680   1.726  18.167  10.612  0.0316  0.0976 -0.0275
20420W        W36681   0.331   5.590  14.296  0.2361 -0.1876 -0.0177
20421W        W36682  10.826  14.286   2.193 -0.0604 -0.3010 -0.1446
20422W        W36683   4.291   3.261  15.524  0.1519 -0.5351 -0.0450
20423W        W36684   8.853  12.270  13.994 -0.0890 -0.0585 -0.3051
20424W        W36685   6.205  17.931   4.393 -0.0676 -0.0008 -0.1817
20425W        W36686  16.105   7.891  10.156  0.0273 -0.0561  0.1567
20426W        W36687   1.392  11.074  15.224 -0.1136  0.0068  0.1755
20427W        W36688   3.548  13.854   3.868  0.2755 -0.1054 -0.2532
20428W        W36689   8.354  14.383   1.886 -0.0694 -0.1054 -0.0997
20429W        W36690  13.040  18.525   4.665 -0.0334 -0.0798  0.0960
20430W        W36691   8.556  15.151  14.109  0.2808 -0.1110  0.0088
20431W        W36692  17.681   9.328  11.063 -0.1676  0.0735  0.1345
20432W        W36693   1.025   8.752   0.153  0.0058  0.0693 -0.0162
20433W        W36694   0.602  14.428   1.839 -0.1040 -0.0494 -0.0190
20434W        W36695   0.087  14.466   1.786 -0.1639 -0.2485  0.0767
20435W        W36696  15.887   8.141  11.712 -0.4623  0.1953  0.1471
20436W        W36697  10.097  10.157   3.681  0.0244 -0.1240  0.0368
20437W        W36698  11.730  17.002  14.137 -0.1208 -0.0555 -0.1521
20438W        W36699   0.477   2.321  11.036  0.0984 -0.3996 -0.3181
20439W        W36700   5.965   1.943   3.803  0.0256 -0.1150  0.0096
20440W        W36701  12.492   1.544  12.730 -0.0071  0.0239 -0.1553
20441W        W36702  15.920   5.638  12.987 -0.1070 -0.0246  0.3336
20442W        W36703  18.442   4.461  11.053 -0.3284  0.0733 -0.0043
20443W        W36704   4.479   7.134   2.834 -0.2480 -0.1910  0.0111
20444W        W36705  18.297   9.015  12.134 -0.4048 -0.0610  0.0271
20445W        W36706   8.992  16.125  10.699 -0.0200  0.4226  0.0025
20446W        W36707   2.648  10.524  14.165 -0.1012  0.1300 -0.2079
20447W        W36708   1.168  15.143  10.323 -0.0861 -0.2774  0.0861
20448W        W36709   0.576   9.907  11.366  0.1929 -0.0044 -0.2327
20449W        W36710  16.342  15.219   3.420  0.2134  0.1395 -0.1353
20450W        W36711   6.749  11.843   0.485  0.1557  0.0042  0.0893
20451W        W36712  18.275   1.619   4.316  0.0520 -0.1247  0.0420
20452W        W36713  13.081  12.154   4.414 -0.2278  0.0665  0.0607
20453W        W36714   1.665  14.131  11.981 -0.1491 -0.0967  0.0099
20454W        W36715  12.095  18.113  14.685  0.4286 -0.1890 -0.3051
20455W        W36716  12.635  14.784   4.047  0.1440  0.2976 -0.1356
20456W        W36717   2.889  12.182  11.154 -0.0464  0.1980 -0.1805
20457W        W36718  18.653   8.666   4.187 -0.1247  0.3442  0.0268
20458W        W36719   8.508   0.187   1.977 -0.2061  0.1007 -0.0932
20459W        W36720  15.790   4.870  12.011 -0.0196  0.1555  0.2643
20460W        W36721   4.393   9.221  11.472 -0.0118 -0.4029 -0.0794
20461W        W36722  16.372   8.115   3.445  0.1471  0.1111 -0.0483
20462W        W36723   8.338   2.652   6.284 -0.0188 -0.1681 -0.0826
20463W        W36724   3.944   0.587   2.642  0.0209  0.0389 -0.1062
20464W        W36725   5.780  18.503  14.006  0.0529  0.3665  0.0233
20465W        W36726   0.021  12.008   3.909  0.4096 -0.2623  0.2091
20466W        W36727  10.299  15.253  13.599 -0.2554  0.1469 -0.0790
20467W        W36728   2.357   8.268  14.181  0.0860  0.0628 -0.1686
20468W        W36729   8.220   8.414  14.645 -0.1625  0.1840 -0.0046
20469W        W36730   8.598  16.462   4.098  0.1195 -0.3468 -0.3242
20470W        W36731  15.780   0.825   3.604 -0.4300 -0.1113  0.1963
20471W        W36732  16.656  11.782   0.632  0.2045 -0.1622 -0.0551
20472W        W36733  12.674   3.249   0.842 -0.3368 -0.0111 -0.0498
20473W        W36734  15.277  14.860  14.889 -0.2412 -0.0373 -0.0552
20474W        W36735   5.910  11.149  14.290 -0.1762  0.1693  0.1470
20475W        W36736  18.087  13.642   3.204 -0.1990  0.0021  0.1475
20476W        W36737  15.633  14.793  13.424  0.1287  0.2429 -0.3621
20477W        W36738   1.961   8.613   4.860 -0.0957  0.0508  0.1829
20478W        W36739  13.722  10.483  15.033 -0.1391  0.2628  0.2103
20479W        W36740   1.383   8.606  15.462  0.2472 -0.0117  0.1640
20480W        W36741   0.898   3.068   6.206  0.1812  0.1196 -0.0473
20481W        W36742   6.242   6.252   2.679 -0.0306  0.0452  0.0152
20482W        W36743   1.007   3.298   4.770 -0.0060 -0.1283 -0.1164
20483W        W36744  10.887  13.897  10.117  0.1002 -0.1772  0.2617
20484W        W36745   4.446  18.451  11.896 -0.0417  0.0918  0.1840
20485W        W36746   1.663   7.679  11.421  0.0648 -0.2034 -0.1051
20486W        W36747  11.435  18.369   3.265  0.2485 -0.1322 -0.0627
20487W        W36748  16.362  18.220   5.084  0.4015  0.0386 -0.0314
20488W        W36749   3.046   2.626   0.572 -0.0695 -0.1046 -0.1727
20489W        W36750   7.045   3.328  15.333 -0.2054 -0.1362 -0.0870
20490W        W36751   0.168  17.744   0.842 -0.0661 -0.0404 -0.2227
20491W        W36752   8.928  10.141   5.325  0.2130 -0.1465  0.1931
20492W        W36753   5.966   8.241   5.228 -0.0965 -0.1584  0.1272
20493W        W36754   8.643  12.709  14.502 -0.2065 -0.2813  0.3145
20494W        W36755   8.701   4.805   1.913  0.1028  0.1142  0.0153
20495W        W36756  18.088  18.711   1.974 -0.2054 -0.2108  0.5033
20496W        W36757  15.321   1.471   5.280 -0.4224 -0.0747 -0.1019
20497W        W36758   9.398   0.222   3.131  0.0245  0.0739 -0.3325
20498W        W36759  18.007  12.101   4.243 -0.1218  0.0855  0.0595
20499W        W36760   8.936   6.711  13.301  0.0565 -0.0384 -0.1077
20500W        W36761  18.108  17.777  14.658 -0.2658 -0.1987  0.1650
20501W        W36762  11.070   4.121   5.327 -0.1453 -0.1759 -0.0594
20502W        W36763  14.698  12.661  12.723 -0.0677 -0.0456  0.1131
20503W        W36764  11.028   2.163   5.422 -0.0121  0.1537  0.0943
20504W        W36765  15.816  12.130   5.876  0.2392 -0.1210  0.0726
20505W        W36766   6.778  15.168   0.935  0.0180  0.2615  0.1301
20506W        W36767   3.520   8.931  15.433 -0.0098  0.0527 -0.2668
20507W        W36768   6.903   7.770   5.445  0.2739 -0.2379  0.1871
20508W        W36769   8.686  16.778  15.590  0.0339 -0.3081  0.1752
20509W        W36770   8.782   6.436   4.996  0.2341  0.0123 -0.1374
20510W        W36771  16.955   0.089  15.028 -0.1101 -0.4477  0.0573
20511W        W36772   7.898   0.835   4.722 -0.0008 -0.0432  0.0876
20512W        W36773  11.942  12.458   4.383  0.1810  0.0498 -0.4677
20513W        W36774   3.727  18.159   1.307 -0.0563 -0.2041 -0.1110
20514W        W36775   5.440  10.147   5.675  0.0106 -0.2929 -0.0731
20515W        W36776   2.069  11.834  11.269  0.1949  0.1187  0.2412
20516W        W36777  17.966   6.787   3.831 -0.1154  0.1026 -0.2524
20517W        W36778  15.549   8.190   2.163 -0.1641 -0.0197 -0.1595
20518W        W36779  10.115   3.422  12.264  0.0351  0.1925 -0.1135
20519W        W36780  16.943   8.781   3.792  0.3485  0.0265  0.1080
20520W        W36781   9.192  11.199  11.892 -0.0484 -0.2120 -0.1435
20521W        W36782  13.164  10.496   1.417 -0.1350 -0.0108  0.0810
20522W        W36783   5.328  13.815  10.608  0.2748 -0.1460 -0.4296
20523W        W36784   7.358   1.678   3.304 -0.1948  0.1913  0.2247
20524W        W36785   8.555   0.727  15.348  0.0936  0.0777  0.3551
20525W        W36786   7.437   6.503  15.206  0.3008  0.1293 -0.0237
20526W        W36787  15.062   6.064  12.020 -0.2399 -0.1835 -0.0827
20527W        W36788   0.286   4.891   1.445 -0.0606  0.2211 -0.3422
20528W        W36789   0.656  12.140  15.539 -0.1418  0.1419 -0.2553
20529W        W36790  16.590  11.355   0.864  0.2569 -0.0695 -0.2764
20530W        W36791  13.702   6.340   0.156  0.0401  0.1089 -0.2160
20531W        W36792  11.757  18.183   4.714  0.0304 -0.0805  0.1540
20532W        W36793   2.683  11.329  12.369 -0.0075 -0.0846  0.0528
20533W        W36794  13.026  10.138   4.004 -0.2626 -0.0088 -0.0391
20534W        W36795  11.577  11.538  14.063 -0.0058  0.1240 -0.2053
20535W        W36796  18.221  12.573  15.454 -0.3276  0.0232  0.0779
20536W        W36797   2.423  10.170   3.065  0.0965 -0.1997 -0.2434
20537W        W36798  16.064   9.962   3.666  0.1088 -0.2690 -0.1670
20538W        W36799  10.437   3.794  14.193  0.1984 -0.2113 -0.3965
20539W        W36800  10.926  13.738  14.947 -0.1232  0.0891  0.0733
20540W        W36801   0.879   3.947   5.394  0.1162 -0.0658 -0.0831
20541W        W36802   6.101  12.735   3.386 -0.0146  0.4070 -0.0531
20542W        W36803  14.868   8.209   2.931 -0.0002 -0.2314  0.0216
20543W        W36804   8.138   0.976  15.551 -0.3425 -0.3099  0.0216
20544W        W36805   1.667   0.493   1.056  0.1613  0.3575 -0.0080
20545W        W36806  17.986   9.375   3.052  0.3131  0.0327 -0.2493
20546W        W36807   4.478   2.002  12.573  0.3098 -0.0213  0.0683
20547W        W36808   3.409  14.004   2.396  0.0076 -0.2385 -0.0297
20548W        W36809  18.599   7.846  11.431  0.0096 -0.1290  0.2600
20549W        W36810  12.016   3.054  13.007  0.0989  0.0757  0.0673
20550W        W36811  11.054  12.148  14.170 -0.1581  0.2799 -0.0091
20551W        W36812   0.159  18.194  13.770  0.1358 -0.4314  0.1048
20552W        W36813  15.479  13.134  14.749 -0.6134  0.0054 -0.0238
20553W        W36814  14.319   8.219  13.134  0.1042  0.1086  0.1532
20554W        W36815   0.954   7.515   1.574 -0.2944 -0.0018  0.2477
20555W        W36816  11.954  13.907  15.150 -0.0292 -0.0612  0.0616
20556W        W36817   8.315   1.053   3.176 -0.1873  0.0290 -0.1794
20557W        W36818   2.371   2.255  12.224 -0.1119 -0.4781 -0.0426
20558W        W36819   2.624  14.317  14.547 -0.0085  0.0208  0.1106
20559W        W36820  11.070  11.829  13.687 -0.0115 -0.0159 -0.0345
20560W        W36821   5.210  16.594   4.312  0.1229  0.2958 -0.1744
20561W        W36822   5.811   9.256   3.246  0.1076  0.4627 -0.1414
20562W        W36823  14.223   1.128   2.614  0.0667 -0.0914 -0.0483
20563W        W36824   1.367  15.604  15.586 -0.3197  0.1680  0.0830
20564W        W36825  13.235   9.546  15.081 -0.2321 -0.0283  0.0499
20565W        W36826   1.554   3.770   4.863 -0.1254  0.0314  0.0855
20566W        W36827  17.883   5.354   1.854 -0.0521  0.0545 -0.2255
20567W        W36828  16.938  13.276   4.343  0.0000  0.1038  0.0629
20568W        W36829  11.564  11.157  12.780 -0.0327 -0.1991 -0.4953
20569W        W36830  14.096   2.904   2.836 -0.0585  0.0354 -0.4590
20570W        W36831   7.620   0.652  13.586  0.3098 -0.3596  0.0401
20571W        W36832  14.722   0.012   0.137 -0.0670  0.0803  0.1311
20572W        W36833   0.494   1.551  11.577 -0.1987 -0.1415  0.0155
20573W        W36834   7.248  16.424  12.744  0.0452 -0.1916 -0.2420
20574W        W36835   3.635  18.184   0.684  0.0075 -0.0161 -0.0019
20575W        W36836  17.599  12.754   1.121 -0.0035  0.2956 -0.2231
20576W        W36837  15.868   7.606   3.830 -0.2087 -0.1054 -0.2035
20577W        W36838  15.717   2.271  15.553  0.0354 -0.2557 -0.5302
20578W        W36839   6.136  15.346  10.153 -0.1584  0.1332  0.1810
20579W        W36840   0.673   1.136   4.276  0.0232 -0.1998  0.2687
20580W        W36841  12.432   6.332  11.948  0.1181  0.0976 -0.1684
20581W        W36842  14.009   0.394  11.465 -0.1981  0.0596 -0.4734
20582W        W36843   9.502  11.551  13.061 -0.0349 -0.0676  0.2977
20583W        W36844  15.902   4.763  15.042  0.0397  0.3492 -0.2012
20584W        W36845  13.068  16.323  11.934 -0.1270  0.2766 -0.1737
20585W        W36846   7.782   1.241  13.653  0.5529  0.2229 -0.3176
20586W        W36847   1.370   8.971  10.087  0.1777 -0.0871 -0.0708
20587W        W36848  14.570  15.346  11.832  0.1393  0.1802  0.1261
20588W        W36849  12.720  16.532  13.308 -0.0581 -0.1689 -0.2667
20589W        W36850   5.640  11.507  15.018  0.1661 -0.1024  0.0847
20590W        W36851   7.006  13.251   0.292 -0.1864 -0.5103 -0.1412
20591W        W36852   8.813  11.604  10.567  0.0492 -0.0984 -0.0264
20592W        W36853  15.997   4.803  11.562  0.0607 -0.1719 -0.1612
20593W        W36854   3.095  17.482  15.411 -0.2659  0.2953  0.2953
20594W        W36855   0.348   7.122  14.297  0.1171  0.0522  0.0927
20595W        W36856  13.623   6.927   3.202  0.0492  0.0453  0.0238
20596W        W36857   2.100  10.248   2.192 -0.1261 -0.2866 -0.1250
20597W        W36858  17.783  16.425  13.396  0.0300 -0.0557  0.2976
20598W        W36859  18.796  16.912   0.039 -0.1554  0.4104  0.0610
20599W        W36860  15.339   0.289  14.195  0.1390 -0.0003 -0.0635
20600W        W36861  18.085   1.700  12.602  0.0704 -0.1407  0.1889
20601W        W36862  14.832   9.031   3.204 -0.0776  0.3902  0.0396
20602W        W36863   7.001   7.656   0.754 -0.1634 -0.2004  0.2019
20603W        W36864  10.502   7.090  11.372  0.2564  0.1974 -0.1128
20604W        W36865  10.676  14.760   3.650 -0.0962  0.0610 -0.0393
20605W        W36866  12.621   9.489  10.852  0.2221  0.0066  0.0727
20606W        W36867  13.031  17.763   2.797  0.0213 -0.3627  0.0688
20607W        W36868  16.292  10.957   3.500  0.0044  0.0153  0.1194
20608W        W36869   7.560   8.076   3.200 -0.0861 -0.1232  0.0804
20609W        W36870  11.843  14.630   4.368 -0.2239  0.1036  0.0126
20610W        W36871  10.437  18.301   1.715  0.1333  0.0462  0.0615
20611W        W36872   9.421  13.881   4.015  0.1582 -0.3005 -0.3773
20612W        W36873   2.636   1.234   0.109 -0.0745  0.1115  0.0633
20613W        W36874   4.899   7.704   5.231  0.2345 -0.2953 -0.1277
20614W        W36875   7.255   9.907  12.877  0.2322 -0.1951  0.0136
20615W        W36876  12.360   2.289   1.714 -0.0414 -0.7311 -0.0749
20616W        W36877   9.925  13.611   4.924  0.3346  0.5164 -0.1985
20617W        W36878  14.736   2.658   2.204  0.1432 -0.3201 -0.0960
20618W        W36879  10.586   4.847   4.750 -0.0826 -0.1443  0.0029
20619W        W36880  10.576  10.844   0.857  0.0630 -0.1450  0.3878
20620W        W36881   3.592  10.422   4.607 -0.2661  0.0052 -0.0513
20621W        W36882   2.654   0.036   4.686 -0.0199 -0.0944  0.1162
20622W        W36883   8.119   9.340  15.520 -0.0798 -0.0140  0.2274
20623W        W36884   4.113   8.161  13.123  0.1161  0.1713 -0.0967
20624W        W36885  14.402   3.218   0.704 -0.1541 -0.3349 -0.1591
20625W        W36886   8.911   3.783  14.783 -0.1540 -0.2054 -0.0598
20626W        W36887  13.592  11.935   2.786  0.1782 -0.1104  0.1589
20627W        W36888  10.648   8.789   4.286  0.1449  0.2534  0.1050
20628W        W36889  18.501   6.175   1.589 -0.2223 -0.1294 -0.0027
20629W        W36890   9.611   6.969   4.529  0.1206  0.0146  0.2043
20630W        W36891   5.757   4.102   3.863  0.1217  0.1666  0.0824
20631W        W36892  10.651   7.454  12.145  0.0854 -0.1449  0.1127
20632W        W36893  17.191  10.866  12.986 -0.0184  0.0608 -0.2406
20633W        W36894   4.104   9.167  10.986 -0.2870 -0.3819 -0.5309
20634W        W36895  15.313   3.388   1.127  0.0758 -0.0361  0.1724
20635W        W36896   8.885  17.642   0.848 -0.0611  0.4193 -0.5962
20636W        W36897   9.771   1.157   2.184  0.2418  0.1257  0.5016
20637W        W36898   6.313   2.939   5.434 -0.3837  0.1266 -0.0032
20638W        W36899   0.406   0.597  13.983 -0.1575 -0.1750  0.0941
20639W        W36900  16.414  17.039  10.649 -0.1718  0.1463 -0.1056
20640W        W36901   6.997  17.724   2.948 -0.2390 -0.2934 -0.1348
20641W        W36902  12.095  13.968   3.487 -0.0325 -0.3071  0.1754
20642W        W36903  14.465   6.374   1.036  0.0578 -0.0773  0.1918
20643W        W36904  11.546   7.844  14.700  0.4301 -0.1026 -0.0741
20644W        W36905  14.082  12.614   3.334  0.3378  0.1608  0.0401
20645W        W36906  18.051  17.037   5.116  0.0632  0.2479  0.0145
20646W        W36907  17.326   3.150   3.660  0.1709  0.0718 -0.2467
20647W        W36908   9.188   6.645  12.622  0.3538  0.1924 -0.0024
20648W        W36909   0.108   6.901   2.803  0.5195  0.2099  0.0859
20649W        W36910  15.962  10.695  11.587 -0.0129  0.2931  0.1368
20650W        W36911   0.551  10.060   1.426 -0.1385 -0.0494 -0.0711
20651W        W36912   9.114   3.097   1.808  0.2587 -0.1244 -0.1824
20652W        W36913  12.761   7.936   1.564 -0.0626 -0.2747  0.2562
20653W        W36914  13.535   0.025  12.292  0.1382 -0.2182  0.0033
20654W        W36915   1.889  13.152  14.463 -0.2739  0.0700  0.0754
20655W        W36916   8.889   8.800   0.636  0.2723 -0.1995 -0.0664
20656W        W36917   9.440  18.631  15.555  0.0344  0.0628 -0.1085
20657W        W36918   4.583   8.116  15.245  0.0833  0.2428 -0.0353
20658W        W36919  13.450  15.161   4.972  0.0906 -0.0584 -0.0031
20659W        W36920   6.021   7.081  14.670 -0.1548  0.1648  0.0627
20660W        W36921   4.808   6.666   0.843  0.1382 -0.1394 -0.0878
20661W        W36922  11.554  12.222   0.166 -0.1837 -0.1963  0.2317
20662W        W36923   8.527   4.772  10.481  0.2496  0.2568 -0.2220
20663W        W36924  14.760  16.302   1.177 -0.0370 -0.0205  0.1810
20664W        W36925  12.035   7.530   4.826  0.2286  0.1624  0.1375
20665W        W36926   6.519  14.102  11.079  0.0935 -0.2761  0.0529
20666W        W36927  18.012  14.847  15.112 -0.2255  0.2945 -0.1120
20667W        W36928   9.673  13.625  15.477 -0.0163 -0.2607  0.1894
20668W        W36929  12.433  13.153   9.360  0.1875  0.1220 -0.2808
20669W        W36930  13.418   0.689   2.227  0.1200 -0.4014 -0.0028
20670W        W36931   5.619  16.428   2.092  0.0449  0.0773  0.1121
20671W        W36932  12.089   6.078   1.389 -0.1256  0.1983 -0.0073
20672W        W36933   6.524  18.013   4.803 -0.0303 -0.0849  0.4135
20673W        W36934   3.306  11.786  14.717  0.2815  0.0612  0.0727
20674W        W36935   1.466   1.422   4.324 -0.0428 -0.2163  0.0934
20675W        W36936  12.472  13.452   1.218 -0.1568  0.0241  0.1151
20676W        W36937  13.111   1.446  13.900 -0.4966  0.2325 -0.2139
20677W        W36938   1.588   2.167  12.948  0.0510  0.1463  0.1289
20678W        W36939  12.723   1.941   5.166  0.0905 -0.2200 -0.0414
20679W        W36940   8.004   8.125   2.522 -0.0579 -0.0624 -0.3444
20680W        W36941   0.236  15.105  12.816  0.0775 -0.0420  0.1367
20681W        W36942  11.615  18.614   0.205  0.0258  0.2165 -0.1296
20682W        W36943   9.974   3.260   5.018  0.0393 -0.1007  0.1519
20683W        W36944  16.684   2.779  14.734 -0.0895 -0.3789 -0.0358
20684W        W36945  13.099  16.164  13.443  0.0945  0.1585 -0.0062
20685W        W36946  15.305  15.745   9.865 -0.0635  0.2863 -0.2051
20686W        W36947  14.159   6.302   4.743  0.1574  0.1125  0.0553
20687W        W36948  15.203   6.544   1.338  0.0954  0.2175  0.1418
20688W        W36949  15.723  15.397   1.208 -0.0124  0.0947 -0.2617
20689W        W36950   3.101  17.125  12.534 -0.2231 -0.0664  0.3141
20690W        W36951   2.712  18.261  10.929 -0.3428  0.3171 -0.0480
20691W        W36952  17.760  15.941  10.802  0.3373 -0.2172 -0.1822
20692W        W36953   6.454   5.437   0.634 -0.3780  0.0038  0.0887
20693W        W36954  10.190   0.716  11.262  0.1818  0.2188 -0.3484
20694W        W36955   2.313   8.656   1.785  0.1403  0.1823 -0.1464
20695W        W36956  14.290  10.451   3.121 -0.0629 -0.1537 -0.2063
20696W        W36957  16.229   6.614   5.650 -0.0082 -0.2601  0.3259
20697W        W36958   4.557   5.469   5.102  0.1088 -0.1736 -0.0913
20698W        W36959   4.115  17.209  14.205  0.5898  0.0082 -0.0390
20699W        W36960  16.932  12.028   2.613 -0.1786  0.2701 -0.0004
20700W        W36961  18.753   0.329   3.732  0.0080 -0.2767  0.1199
20701W        W36962   5.310   4.577   1.207  0.0994 -0.0103  0.0326
20702W        W36963  18.072  13.496   3.749  0.1730  0.0007 -0.2945
20703W        W36964   6.470  15.333  15.616  0.2467 -0.0382 -0.0743
20704W        W36965  12.227  17.670   1.180  0.1815 -0.4235 -0.2933
20705W        W36966   2.528   5.815   5.599  0.2686 -0.2195  0.1272
20706W        W36967  11.830   7.046  14.569  0.1448  0.0212 -0.1292
20707W        W36968  15.451   6.170   0.822  0.2595 -0.0670 -0.0924
20708W        W36969  14.967   3.649   0.184 -0.1050  0.0486 -0.0568
20709W        W36970  16.642   3.875   0.051 -0.1023 -0.1377 -0.0142
20710W        W36971   1.570   5.549  14.375 -0.1393 -0.1114  0.1952
20711W        W36972   0.996   7.950   4.426 -0.0729  0.2126 -0.1176
20712W        W36973  13.051   2.457   3.459  0.0687 -0.0300  0.0834
20713W        W36974  18.172   7.379  13.128 -0.1648 -0.3782  0.0294
20714W        W36975   4.708  18.063  12.203  0.1531  0.2085  0.1114
20715W        W36976  18.576   0.548   4.427  0.2374  0.0374  0.0608
20716W        W36977  17.463   9.325   2.821 -0.2438  0.1039 -0.4480
20717W        W36978  17.915   1.035   1.133 -0.0620  0.0196  0.1511
20718W        W36979  16.691  18.591   0.385 -0.0549  0.0089  0.0817
20719W        W36980   2.120   6.249   3.870 -0.0335  0.0235 -0.1112
20720W        W36981   9.740  15.367  14.477 -0.1973 -0.1450  0.3261
20721W        W36982   7.300   2.167   4.245 -0.0624  0.2766  0.0475
20722W        W36983   4.953  13.732  13.464  0.1398  0.1192  0.0549
20723W        W36984  12.649  16.003  11.998  0.1105  0.1108  0.0875
20724W        W36985   9.975  18.270  13.887 -0.0034  0.1207 -0.0972
20725W        W36986   4.128  16.593   0.358 -0.3688  0.2071  0.2872
20726W        W36987   8.253   8.633  11.554 -0.1922  0.2369 -0.0363
20727W        W36988   3.516   8.519   2.757 -0.3221 -0.1645  0.0974
20728W        W36989  11.358  17.066   3.492 -0.0176  0.1986 -0.0535
20729W        W36990  17.359   7.370   2.756 -0.0009  0.1178  0.3217
20730W        W36991   6.417   8.800  15.625 -0.0748 -0.0818 -0.1847
20731W        W36992   3.363   3.661   5.327  0.1138 -0.1532 -0.1676
20732W        W36993   9.379   3.562  11.823  0.2622  0.2073  0.0905
20733W        W36994  14.368  14.314  13.326 -0.1369 -0.1785  0.0341
20734W        W36995  17.043  16.613   3.303  0.1686 -0.3640 -0.1363
20735W        W36996   9.184   4.826  14.784 -0.4525 -0.0741  0.2019
20736W        W36997  12.563  11.835   1.648 -0.5427  0.4231  0.0056
20737W        W36998  18.082   5.913   1.903 -0.0464  0.4334  0.2757
20738W        W36999  15.345  15.011   3.634  0.0989  0.2374  0.1615
20739W        W37000   8.683   4.659   2.700  0.3578 -0.3415  0.0826
20740W        W37001  13.000  13.821   2.733 -0.1269 -0.3622 -0.1751
20741W        W37002   8.133  17.104  13.584  0.1793  0.1539 -0.1651
20742W        W37003   1.580  16.898  11.294 -0.0535  0.2069  0.0028
20743W        W37004   6.432  11.386  13.667 -0.1088  0.0163  0.1176
20744W        W37005   3.198  10.284  14.379 -0.1642 -0.1102 -0.2649
20745W        W37006   9.357  17.941  11.390 -0.1022  0.5912 -0.0985
20746W        W37007  13.484   1.919  11.705  0.2695  0.1168 -0.2067
20747W        W37008   4.820  18.750  12.656  0.1558  0.1532 -0.0683
20748W        W37009  12.751  11.518  10.415 -0.1730 -0.0295 -0.1008
20749W        W37010   6.112   6.606  11.602  0.0472  0.2219  0.2291
20750W        W37011  10.542   0.612   2.770 -0.0422 -0.3856  0.1003
20751W        W37012   1.887  18.597   4.938 -0.1092 -0.0327 -0.2219
20752W        W37013  18.739  10.505  14.847 -0.1533 -0.1734 -0.0159
20753W        W37014  14.988   7.083  15.492 -0.1653 -0.1750  0.0072
20754W        W37015   5.752  13.555  10.559  0.0670 -0.0899 -0.4211
20755W        W37016  11.274  13.880  15.581  0.0843 -0.0160 -0.0746
20756W        W37017   8.955   6.577   2.946  0.0921  0.1254  0.1723
20757W        W37018   4.989   2.619   2.197  0.0133 -0.2101  0.0323
20758W        W37019  13.196   6.875   6.389  0.0838 -0.3267  0.2853
20759W        W37020   7.174  10.964  12.141 -0.1514 -0.1353 -0.0402
20760W        W37021  12.417   6.361  14.593  0.1080 -0.0917 -0.0963
20761W        W37022   6.113  10.757  11.113 -0.3172 -0.1513  0.0552
20762W        W37023  10.141  10.793  13.121  0.2078 -0.3341 -0.4491
20763W        W37024  13.437  16.647   2.125  0.1043 -0.2034 -0.0257
20764W        W37025   1.994  18.565   4.007 -0.1295 -0.1987  0.3061
20765W        W37026   6.161  11.917   0.495  0.1258 -0.3727 -0.1484
20766W        W37027  11.431   8.704  14.121 -0.1939 -0.0261  0.3410
20767W        W37028  16.031   0.145  11.679  0.1029  0.0284  0.0026
20768W        W37029   8.993   7.039   5.955 -0.4179  0.1135  0.1704
20769W        W37030   7.353   2.536   5.458  0.2013 -0.3387 -0.0755
20770W        W37031   4.211   3.045  12.500  0.0764  0.0268  0.1055
20771W        W37032  12.436   5.739   1.208 -0.1545  0.1675  0.4220
20772W        W37033   4.193   9.550  12.550 -0.0070 -0.2144  0.2341
20773W        W37034  14.203   7.140   0.142 -0.2248 -0.2672  0.1147
20774W        W37035   6.737   9.228   4.891  0.0613 -0.2095 -0.4274
20775W        W37036   6.942   6.524   4.605  0.1518 -0.0510 -0.0483
20776W        W37037   7.970   1.477   5.268 -0.1607 -0.0399  0.0133
20777W        W37038   9.170  14.442  12.935  0.0964  0.1007 -0.0069
20778W        W37039   0.211   8.572   2.002  0.1155  0.0857  0.0537
20779W        W37040   3.712  17.105  11.630  0.2837 -0.4667  0.3601
20780W        W37041   0.603  15.806  11.087  0.0544 -0.2171  0.2112
20781W        W37042   4.960  18.497  12.152 -0.0728  0.3879  0.0266
20782W        W37043  15.554  14.678   0.871 -0.1294  0.0173  0.0372
20783W        W37044  12.625  10.368  11.070 -0.0312 -0.1165 -0.2314
20784W        W37045   7.753  10.418   0.295  0.1648  0.2185  0.0078
20785W        W37046  18.388   7.327   4.539  0.0884 -0.0550  0.3611
20786W        W37047   4.157   6.424   4.186  0.2705  0.2224 -0.0394
20787W        W37048   3.532   0.930  11.489  0.2126 -0.1340  0.5557
20788W        W37049   3.329  15.033  13.691 -0.2069  0.2425  0.1307
20789W        W37050   2.286   5.090   5.330  0.1394 -0.0373 -0.1318
20790W        W37051   2.506  13.916   5.979 -0.1372  0.1492 -0.5905
20791W        W37052   3.970  12.626   0.485 -0.1186 -0.1747  0.2796
20792W        W37053   5.739   5.170  13.304  0.0293 -0.2197 -0.0802
20793W        W37054   2.703   3.684   4.208  0.1686  0.2404  0.1820
20794W        W37055   7.002  16.029   3.017  0.1308 -0.0022  0.2370
20795W        W37056  18.475  16.434  13.792  0.1004 -0.2048 -0.0412
20796W        W37057  17.100  15.161   4.497 -0.0593 -0.2568  0.1187
20797W        W37058   5.891   5.995   2.291 -0.0278 -0.2332 -0.4741
20798W        W37059  10.096   5.345  14.427 -0.1047  0.1555 -0.2391
20799W        W37060  14.490  13.837   3.922  0.0601  0.0339 -0.1650
20800W        W37061   7.165   0.851  11.376 -0.0878 -0.0522 -0.1881
20801W        W37062   4.951   6.492  15.109 -0.1557 -0.1023  0.0263
20802W        W37063   2.298   7.947  13.525  0.0827 -0.0252 -0.2455
20803W        W37064   5.496  14.087   3.425 -0.0512 -0.0578 -0.0586
20804W        W37065   6.947  18.791   2.546 -0.1144  0.0240 -0.0786
20805W        W37066  10.449   4.214   5.650 -0.0041 -0.3789  0.3516
20806W        W37067  13.966   9.851  12.448 -0.4349  0.0669  0.2099
20807W        W37068   9.128  10.313  11.337  0.0166  0.0808 -0.3940
20808W        W37069  15.619   1.696  12.848 -0.1691  0.0448 -0.2768
20809W        W37070  12.957  10.875   0.570  0.0190 -0.4385 -0.0072
20810W        W37071  10.263   9.563   4.395 -0.0711 -0.1277 -0.2206
20811W        W37072  10.107   2.193   3.126 -0.0983  0.0339 -0.1579
20812W        W37073   1.214  10.879  13.241  0.1315 -0.1297 -0.1446
20813W        W37074  16.972  16.469   0.060 -0.2621  0.0710  0.1683
20814W        W37075  15.507   1.727   4.144 -0.1898  0.0623 -0.1576
20815W        W37076   2.915   1.640  15.503  0.0790  0.1935  0.1134
20816W        W37077  15.723  16.546   2.769  0.1035 -0.1261 -0.0053
20817W        W37078  16.196  15.540   1.414 -0.2455 -0.0478 -0.1540
20818W        W37079   2.244   6.044   2.116 -0.0590  0.2307 -0.0959
20819W        W37080   5.926   7.066   5.907  0.1958 -0.0589  0.2054
20820W        W37081   6.178  11.503   2.715  0.0126  0.1431 -0.3063
20821W        W37082   1.750  17.506  13.040  0.0006 -0.0174 -0.1990
20822W        W37083   5.104  16.333  11.059  0.1472 -0.3568  0.2415
20823W        W37084   3.358  13.980   2.923 -0.0611 -0.4411 -0.0210
20824W        W37085  10.294   1.788   3.372 -0.0502 -0.2810 -0.0924
20825W        W37086   7.297  14.175  11.590 -0.0943 -0.1466 -0.0825
20826W        W37087   6.929  11.586  13.725  0.1685  0.0831  0.2221
20827W        W37088  15.344   6.844   5.336 -0.0714 -0.0609  0.1412
20828W        W37089   7.356  11.757   5.729 -0.1100  0.0421 -0.0504
20829W        W37090  10.594   6.824  14.638 -0.3000 -0.4739  0.2214
20830W        W37091  15.582  17.388   2.769 -0.0166  0.1948 -0.0043
20831W        W37092  13.644   4.911   3.504 -0.3384 -0.2669  0.0474
20832W        W37093  17.250  18.479   0.488 -0.0827  0.3406 -0.1822
20833W        W37094  11.088   8.655  11.609 -0.1788  0.1128 -0.0470
20834W        W37095   6.399   4.933   0.593  0.0083 -0.0006  0.4266
20835W        W37096   1.902   2.274   4.887  0.0873  0.4652 -0.3411
20836W        W37097   6.254  16.444   0.754  0.2850 -0.1306 -0.1372
20837W        W37098  11.204  14.935   0.129  0.0687  0.0079  0.1859
20838W        W37099  12.963   7.930   4.869 -0.1540  0.0335  0.2309
20839W        W37100   6.714   0.997  13.380 -0.1270 -0.0981 -0.4306
20840W        W37101   2.797   3.175   4.249  0.0601 -0.1401  0.1543
20841W        W37102   0.735   3.514   5.190  0.0342 -0.0604 -0.1260
20842W        W37103  11.464   6.847   3.827  0.2302 -0.0839 -0.1293
20843W        W37104   1.826  13.430   0.150  0.1153 -0.3150  0.0901
20844W        W37105  11.704   5.404  11.068 -0.0087 -0.1917  0.2977
20845W        W37106  17.976  14.120  11.717  0.0441  0.0333 -0.2147
20846W        W37107  13.898   8.016  13.367 -0.1986 -0.0255 -0.0418
20847W        W37108  11.414  10.784  12.020  0.2210 -0.0888  0.1187
20848W        W37109   7.347   8.758  13.591  0.1169 -0.0658 -0.0963
20849W        W37110   0.898  16.789   4.685  0.0070  0.1653  0.1192
20850W        W37111  17.738   2.428   2.657  0.1049 -0.1531  0.3684
20851W        W37112   4.609   8.977   2.608  0.1178 -0.1230 -0.0984
20852W        W37113   6.479   1.191  13.000 -0.2815 -0.0647 -0.1925
20853W        W37114  10.273  16.088  15.242 -0.1770 -0.1238  0.1764
20854W        W37115  12.143   9.100   4.574  0.0669 -0.1567 -0.0224
20855W        W37116  10.950   2.485  13.450  0.0893 -0.2080 -0.0841
20856W        W37117   9.219   3.176  13.676 -0.3223 -0.1677 -0.3143
20857W        W37118  16.870   8.137   4.454 -0.0252  0.1791 -0.2201
20858W        W37119  17.980   0.249   0.706  0.2362 -0.0159  0.1052
20859W        W37120   1.214  17.331  14.313 -0.0712  0.0967  0.1832
20860W        W37121  17.536  16.562  14.945 -0.0568 -0.1446 -0.2428
20861W        W37122   5.972  11.346  12.799 -0.0825 -0.0629  0.2707
20862W        W37123  13.400   4.670   1.993  0.1287 -0.0719 -0.1864
20863W        W37124  17.038  12.607   1.994  0.1492 -0.1225 -0.1423
20864W        W37125  17.424  10.890   4.843  0.1940  0.1970  0.0488
20865W        W37126   6.030   1.172   5.527 -0.1412  0.2806 -0.0041
20866W        W37127  17.321   6.093   3.092  0.1457 -0.2021  0.1248
20867W        W37128   1.817   2.957  13.727  0.1447  0.2525  0.0148
20868W        W37129  14.879  11.769   0.363  0.0057  0.0800  0.1327
20869W        W37130   6.107   9.490   4.116 -0.2027 -0.0287 -0.0515
20870W        W37131   1.735  16.027  13.842 -0.3436  0.0114  0.2676
20871W        W37132  14.208   3.707  15.338  0.0183 -0.1551  0.0182
20872W        W37133   3.745   5.642  15.245  0.3923  0.3997  0.0284
20873W        W37134   0.974  15.249  14.505 -0.0075  0.3051 -0.0340
20874W        W37135   3.832  16.184  14.801 -0.0898  0.4818  0.2982
20875W        W37136   3.728  14.971   0.455 -0.2374  0.3199 -0.3603
20876W        W37137   8.031  18.324   3.268 -0.1237 -0.2011  0.1183
20877W        W37138   7.119   1.120  12.968 -0.0998 -0.0498  0.1069
20878W        W37139   1.927   6.746  14.801  0.1016 -0.3292 -0.1221
20879W        W37140  13.579   5.269   1.541  0.2885 -0.2203 -0.0640
20880W        W37141   9.243  14.553   5.185  0.0250  0.0254 -0.1413
20881W        W37142  15.368  11.947   0.398  0.1778 -0.0519 -0.1112
20882W        W37143   8.463  16.038   6.035 -0.0601  0.4210  0.0547
20883W        W37144  10.217  15.170   5.190 -0.0795  0.1102 -0.3027
20884W        W37145  18.465  14.784  11.189  0.0255  0.0550 -0.0835
20885W        W37146   9.533   7.938   1.346 -0.0546  0.1835  0.0829
20886W        W37147  13.037  18.523  12.372 -0.1850 -0.1930 -0.3887
20887W        W37148   1.840  16.853  13.170 -0.1625  0.4404  0.0128
20888W        W37149  10.227   4.375  13.434 -0.3685  0.0711  0.0940
20889W        W37150   6.969   0.510   2.366 -0.2900 -0.2348 -0.1991
20890W        W37151   1.543  15.144   0.102 -0.2737 -0.0451  0.1677
20891W        W37152   0.642   8.526  11.939  0.1188  0.1316  0.0061
20892W        W37153   6.583   3.262   2.430 -0.0553 -0.0149  0.2692
20893W        W37154   7.798  18.654   5.009  0.0682  0.1672  0.0659
20894W        W37155  18.454  14.191   4.099  0.0291  0.0998  0.1933
20895W        W37156   3.141   4.008   1.277 -0.2807  0.0393 -0.0868
20896W        W37157   7.602   5.968   4.240 -0.0671  0.0112  0.2101
20897W        W37158   7.795  12.049  12.167 -0.0504  0.1665  0.0406
20898W        W37159  14.078   4.598   4.718  0.0077 -0.0523 -0.0953
20899W        W37160   9.939   5.960   5.323  0.3273 -0.1406  0.0233
20900W        W37161  17.942  10.396  13.155 -0.0046 -0.0841 -0.2843
20901W        W37162   1.053  16.562   2.165  0.2799  0.1524  0.2419
20902W        W37163   3.032   5.807  11.750 -0.2026 -0.1393  0.0328
20903W        W37164   0.424  11.349  10.840  0.4652  0.5962  0.0134
20904W        W37165  11.322  16.368  14.478  0.0440  0.0103  0.3403
20905W        W37166   7.718  17.203   1.914  0.1414 -0.0970  0.0179
20906W        W37167  12.909   2.671  14.414  0.2564 -0.0813  0.2887
20907W        W37168  15.757   0.123  10.854  0.0300 -0.1109 -0.3004
20908W        W37169   2.878  16.858  12.113  0.0644  0.4337  0.2359
20909W        W37170   5.327  15.922  11.189 -0.5067 -0.1122 -0.0500
20910W        W37171   9.460   1.814  14.909 -0.0786 -0.3659  0.1447
20911W        W37172  11.014  11.198  12.774  0.0239  0.3420 -0.3171
20912W        W37173   5.786   4.243  12.761  0.1438  0.1130  0.0059
20913W        W37174   9.897  18.752   3.344 -0.1172  0.0593  0.1185
20914W        W37175  17.219  15.934   2.686 -0.0446 -0.0331  0.0550
20915W        W37176  13.811   8.846   5.785  0.1198 -0.2912  0.0252
20916W        W37177  14.722  17.259   0.593  0.0734 -0.1855 -0.1410
20917W        W37178   0.742   7.734   5.063 -0.0735 -0.0327 -0.0986
20918W        W37179   7.376   9.269   0.800 -0.0241  0.1083  0.1757
20919W        W37180  17.686  16.298  11.168  0.0206  0.3112  0.0690
20920W        W37181   7.264   5.887   3.393 -0.0851 -0.0367  0.0640
20921W        W37182   8.421   4.466   3.126 -0.3129  0.1954  0.0988
20922W        W37183   9.794   2.867   2.068  0.1304  0.2067  0.1344
20923W        W37184   9.995   0.753  14.062 -0.0395  0.0096  0.0042
20924W        W37185  15.470   7.342   5.248 -0.0859  0.1717 -0.3804
20925W        W37186   8.489  16.014   1.841  0.4810 -0.1556 -0.0831
20926W        W37187   2.193  17.000   9.850  0.1649 -0.0046  0.2082
20927W        W37188   7.616  12.464   0.798  0.0066 -0.0495 -0.1405
20928W        W37189   2.384  17.785   1.546 -0.0029  0.2007  0.0946
20929W        W37190  17.858   7.953   2.372  0.1138 -0.1844 -0.4222
20930W        W37191   0.224   1.211   3.401 -0.0681  0.1238 -0.3877
20931W        W37192   3.051   0.223   3.227  0.2343  0.3558  0.2480
20932W        W37193  17.662   2.648  14.909 -0.0186  0.0114  0.3300
20933W        W37194   6.384   1.800   0.173  0.2676  0.2609 -0.1220
20934W        W37195  16.668   3.016   5.355 -0.2757  0.0018 -0.0210
20935W        W37196   3.454   8.514  11.420  0.0023  0.2409  0.1749
20936W        W37197   8.512   6.438   5.409  0.0899 -0.2672 -0.0674
20937W        W37198  18.464   6.010   3.037  0.1167  0.2359 -0.0718
20938W        W37199   9.428  14.988  12.232 -0.2933  0.1481 -0.0574
20939W        W37200   6.464   5.775  13.023  0.3507 -0.2643 -0.3508
20940W        W37201  17.729   4.521  14.781  0.1379 -0.0728 -0.0548
20941W        W37202   4.514  12.465   1.528 -0.1101  0.0122  0.0572
20942W        W37203  13.078  14.656   1.466 -0.1722 -0.3241 -0.1483
20943W        W37204  10.590   1.917   2.401  0.1154  0.3261 -0.3031
20944W        W37205  15.770   5.400   0.090 -0.2824 -0.0059 -0.2100
20945W        W37206  11.921   6.451   1.003 -0.1264 -0.1340 -0.2567
20946W        W37207  12.014   4.016  13.586 -0.4293 -0.1014  0.1023
20947W        W37208  15.866   9.709   4.487  0.0121  0.0411 -0.1399
20948W        W37209   2.928  10.001  12.703  0.2340 -0.3271  0.0212
20949W        W37210   7.541  14.743  12.118 -0.0907  0.1013  0.1480
20950W        W37211  11.526  15.852   0.631  0.0756 -0.1699 -0.2799
20951W        W37212  11.803  12.082   1.169 -0.1066 -0.0106 -0.3536
20952W        W37213   0.158   1.018   5.226 -0.2093 -0.0563  0.5615
20953W        W37214   6.138  18.586   2.221 -0.1369  0.4325 -0.2171
20954W        W37215  16.845   3.914   3.267 -0.1715  0.0226  0.0848
20955W        W37216   9.710  17.597   2.792  0.0038  0.1180  0.1650
20956W        W37217  15.206   2.577  12.687 -0.0162 -0.2931  0.1310
20957W        W37218   2.210  10.978  12.163  0.1493  0.1689 -0.0767
20958W        W37219  14.417   2.518   3.698  0.1921 -0.0827  0.1641
20959W        W37220   3.434   6.579   6.306 -0.2480 -0.0192  0.2906
20960W        W37221  16.409   7.818  14.551 -0.1557 -0.4670 -0.3345
20961W        W37222  11.563   4.885  13.549 -0.1605  0.3563  0.0802
20962W        W37223   9.351   7.351  10.949  0.1760 -0.1558  0.0006
20963W        W37224  18.241   4.395  14.634  0.3996  0.0831 -0.2040
20964W        W37225  15.470   2.473   4.956  0.1470  0.0889 -0.3753
20965W        W37226  13.462  13.714   5.269  0.0058 -0.0851  0.3939
20966W        W37227  18.710  13.967   3.446 -0.1211 -0.1261  0.0809
20967W        W37228  11.232  14.076  14.105  0.0986  0.1720 -0.1678
20968W        W37229   8.369  14.681   4.977 -0.0967 -0.0019  0.3174
20969W        W37230  14.289  11.090   2.240  0.0006  0.0467  0.1688
20970W        W37231  18.210   7.764   3.606  0.1345  0.0883 -0.2282
20971W        W37232  10.944   6.384  12.188 -0.0171  0.0044  0.1560
20972W        W37233   9.262  12.595  13.761  0.1201  0.0566 -0.0953
20973W        W37234   9.858  16.112   3.421 -0.0481 -0.2976 -0.0589
20974W        W37235  12.269   9.105   5.729 -0.0861 -0.0139 -0.2360
20975W        W37236  13.965  17.901  14.823 -0.3568  0.1202  0.1984
20976W        W37237  12.924   2.729   0.722  0.1338  0.0694 -0.1595
20977W        W37238  10.426  18.369   0.731 -0.1620  0.1561  0.3172
20978W        W37239   2.790   1.107  13.508 -0.1981 -0.0437  0.0582
20979W        W37240   9.150  10.523  14.504  0.1288 -0.0770 -0.0618
20980W        W37241   3.043  10.497   1.859 -0.1057 -0.2911  0.3945
20981W        W37242  13.147   3.810  12.495 -0.0877  0.1018 -0.2742
20982W        W37243   7.013  14.688   4.281 -0.0393  0.1952 -0.1826
20983W        W37244  17.510   5.318  13.518  0.1513  0.2663  0.0809
20984W        W37245  11.024  10.040  10.950 -0.0416  0.2258  0.0272
20985W        W37246  11.715  16.421  11.383 -0.3230  0.0216  0.0804
20986W        W37247   1.840   7.775   0.630  0.0667  0.0092  0.1439
20987W        W37248   5.220  12.675   0.964 -0.2484  0.1484 -0.4755
20988W        W37249   0.008   0.460   1.937  0.0564 -0.2124 -0.1801
20989W        W37250   4.793   9.155   0.383  0.1369  0.1625 -0.1706
20990W        W37251   9.424   1.189  11.985 -0.1993 -0.1843  0.4848
20991W        W37252   8.844  18.751   0.711  0.1352 -0.0790  0.3719
20992W        W37253   9.769   1.684   4.915 -0.0744  0.0059  0.1808
20993W        W37254  16.501  10.177  11.594  0.0392 -0.0412  0.2032
20994W        W37255   1.765  15.860   4.804  0.0626  0.1872 -0.1317
20995W        W37256  10.670   6.756  11.824 -0.1022 -0.1437  0.0784
20996W        W37257  11.073  15.752   2.721 -0.2056 -0.0494 -0.2276
20997W        W37258  12.140  13.902  15.621  0.1483  0.0567  0.2644
20998W        W37259  10.757  13.231  14.620  0.0759  0.2349 -0.0402
20999W        W37260   3.998   6.729  14.889  0.2857 -0.1994 -0.2749
21000W        W37261   5.109  13.284   1.026 -0.1129 -0.0900  0.0667
21001W        W37262   4.917   6.665  14.647  0.1588  0.0248  0.3954
21002W        W37263  12.417  16.858  14.913 -0.2470 -0.1983  0.0535
21003W        W37264  15.473   2.269  14.172  0.2242 -0.1281  0.2148
21004W        W37265  15.676  16.109  11.134  0.0125  0.1914  0.1379
21005W        W37266   1.439   4.014   1.184  0.0724 -0.0265  0.2088
21006W        W37267   6.646   3.172  13.583  0.1239  0.1235 -0.1640
21007W        W37268   2.458   4.408  13.792 -0.2568 -0.0504  0.0203
21008W        W37269  11.250   6.466   2.250  0.1708 -0.2386 -0.0780
21009W        W37270  12.053   8.376   2.926 -0.0473  0.2869  0.1067
21010W        W37271  10.123  14.262   9.700 -0.0721  0.3261 -0.2345
21011W        W37272  13.626  11.260  14.731  0.0409  0.0901 -0.1145
21012W        W37273  14.293   3.822   5.310  0.1977  0.1953  0.0352
21013W        W37274   2.662   6.184   3.402  0.1246 -0.0622 -0.1873
21014W        W37275  10.446  16.541  15.534  0.0428  0.2199 -0.3372
21015W        W37276   6.105   6.701   4.670  0.0717 -0.0171  0.1551
21016W        W37277   3.461   6.602  14.259 -0.0697 -0.1927  0.0707
21017W        W37278  10.699   2.986   1.227 -0.1684 -0.0042  0.0663
21018W        W37279  12.373  15.823  13.793 -0.1816  0.0385  0.0010
21019W        W37280  11.808   0.333  13.508  0.1541  0.1530 -0.0664
21020W        W37281   2.314  15.840  13.805  0.2881  0.0134 -0.3298
21021W        W37282   4.442   7.753   4.143  0.1670  0.2952  0.0872
21022W        W37283  11.005   0.743   1.350 -0.0799  0.2269 -0.2861
21023W        W37284  11.166  18.429  13.328  0.2465 -0.2729  0.4772
21024W        W37285  16.149  10.120  13.633  0.0047  0.1399  0.0584
21025W        W37286   9.621   2.826   3.186 -0.1207  0.1524 -0.0367
21026W        W37287  17.963  12.769   3.399 -0.2462 -0.2506  0.4624
21027W        W37288   6.526  14.425   2.041  0.0157  0.0429 -0.1335
21028W        W37289   4.029   6.375   3.261  0.0100 -0.1389  0.0450
21029W        W37290   4.090   0.349  11.957 -0.2883  0.1854  0.1216
21030W        W37291   2.940   0.268  15.407  0.1578  0.0526  0.0547
21031W        W37292   8.438  15.157   0.815  0.0941  0.0543  0.0664
21032W        W37293  14.809  15.155  13.020  0.1614 -0.2114 -0.0001
21033W        W37294  10.687  12.148   0.531  0.0728  0.3662  0.3977
21034W        W37295  18.585   5.314  12.588 -0.2511  0.0989  0.2536
21035W        W37296   1.462  16.466  13.936  0.0322 -0.1259 -0.3039
21036W        W37297  12.150  15.098  13.433 -0.0492  0.0278  0.0541
21037W        W37298   3.712  14.717   3.373 -0.2041 -0.0494  0.1331
21038W        W37299   6.107   0.391  13.077 -0.1947 -0.0053 -0.0233
21039W        W37300  17.177   5.632   4.667 -0.2291 -0.1213  0.0632
21040W        W37301   2.960   5.098   3.490 -0.0107 -0.2979  0.0625
21041W        W37302   8.375  17.519   0.857  0.0019  0.0371 -0.1496
21042W        W37303   4.280  12.601  10.900  0.0074 -0.2386  0.2003
21043W        W37304   7.079  14.067  11.086 -0.0265  0.0321  0.0733
21044W        W37305   6.838   6.756   3.926 -0.0039  0.0541  0.4078
21045W        W37306   1.199  10.995  14.277 -0.2711  0.0300  0.2310
21046W        W37307  14.680  18.534  14.764 -0.1782 -0.0643 -0.0387
21047W        W37308   7.292   8.760  11.856  0.0453 -0.0259  0.0005
21048W        W37309   8.756   3.007  14.946 -0.1205  0.1828  0.0713
21049W        W37310  18.015   5.189  12.559 -0.0082 -0.2688  0.2239
21050W        W37311   2.742   9.286   2.171 -0.1171  0.4607  0.0221
21051W        W37312  10.440  18.014  12.608 -0.1567  0.2240 -0.1349
21052W        W37313   5.172  16.543  14.456  0.0969  0.1155  0.1505
21053W        W37314  12.389   1.110  12.956 -0.1931  0.1117 -0.0645
21054W        W37315  17.301   7.500   1.242  0.1557 -0.1093 -0.0313
21055W        W37316   7.294   3.702  14.933 -0.2935  0.0166 -0.1215
21056W        W37317   3.784  18.108   3.788  0.0849  0.1266  0.1335
21057W        W37318   4.848   3.113  13.939 -0.0757 -0.1792 -0.0115
21058W        W37319   0.640   0.213   5.231  0.1336  0.0988  0.1256
21059W        W37320  12.004  13.024   1.309  0.3176 -0.1868  0.0493
21060W        W37321  11.823   1.811   3.680  0.0388  0.0484  0.2488
21061W        W37322   3.824  17.063   0.565  0.0397  0.4352 -0.0936
21062W        W37323   4.975   0.929   3.067 -0.0043  0.3434 -0.2988
21063W        W37324  17.360  16.625   2.223  0.1593  0.2872 -0.2766
21064W        W37325   0.124   3.151  11.164 -0.2043  0.3546 -0.2832
21065W        W37326  12.102   3.867  14.918  0.4131  0.2590  0.0962
21066W        W37327   7.861  12.676   1.254 -0.2956  0.3205  0.3677
21067W        W37328   4.090   7.030  11.618  0.1457 -0.0306 -0.1281
21068W        W37329  12.236   6.250   0.156 -0.3530  0.1164  0.0562
21069W        W37330   4.818  18.157   3.894  0.0912 -0.1131 -0.0105
21070W        W37331   1.913   6.413  11.938  0.1262  0.1699 -0.0725
21071W        W37332   6.120   2.407  12.301  0.3867 -0.1054  0.1889
21072W        W37333  10.362   9.235   3.292  0.1174 -0.1048 -0.2377
21073W        W37334   5.666   8.556  12.882  0.1032 -0.0467 -0.1922
21074W        W37335   2.792  14.707  15.233 -0.0526  0.0238  0.0169
21075W        W37336  12.490   2.355  11.349 -0.0010  0.3501  0.1017
21076W        W37337   9.737   3.774   2.693 -0.0942 -0.2577  0.0092
21077W        W37338   7.741  18.669  14.157  0.3754 -0.0504  0.0241
21078W        W37339  18.213  11.276  10.855  0.0764  0.0193 -0.0646
21079W        W37340   3.084   1.753  11.446 -0.0531 -0.4472  0.0095
21080W        W37341   0.474  18.671  12.291 -0.1697  0.1584 -0.1044
21081W        W37342  12.854   6.653   1.324 -0.1227  0.3352 -0.0799
21082W        W37343   0.862  11.225   2.104  0.4318 -0.0212 -0.2622
21083W        W37344   9.780   5.733   2.554  0.0932 -0.3095  0.0078
21084W        W37345   4.419   2.572   5.218  0.1214 -0.0643 -0.1276
21085W        W37346  16.739  10.482  13.914 -0.1586 -0.1821 -0.0079
21086W        W37347  12.636   4.058   5.142 -0.1301  0.0576  0.2184
21087W        W37348  15.207  16.224   5.072 -0.1244  0.1082 -0.1734
21088W        W37349   3.610  17.384   1.376  0.0811 -0.1043  0.2983
21089W        W37350  16.145   3.244   2.825 -0.1274 -0.0320 -0.2061
21090W        W37351   4.205   6.782   6.026  0.0319  0.2819 -0.0069
21091W        W37352   0.496  18.526   3.118  0.4368 -0.2503  0.0625
21092W        W37353   1.770   5.215   0.022 -0.2890 -0.0743  0.0827
21093W        W37354  18.461  14.123  14.994 -0.1538 -0.5381 -0.0771
21094W        W37355   3.334  13.159   4.847  0.2598  0.2564  0.2781
21095W        W37356   3.552  13.047  13.859 -0.0991 -0.2224 -0.3529
21096W        W37357   1.344   3.567  14.783  0.1546 -0.0334 -0.3272
21097W        W37358  10.544   6.268  11.887  0.0929 -0.4352 -0.0560
21098W        W37359  13.711   7.432  15.149 -0.0840 -0.0919 -0.1787
21099W        W37360  11.495   8.673  11.251  0.1341 -0.2872  0.0047
21100W        W37361   1.301   9.064  15.287  0.3065 -0.1176  0.2422
21101W        W37362   1.504  11.582  13.307  0.0390 -0.1289 -0.0698
21102W        W37363  14.452   2.296  14.452 -0.2320  0.2371 -0.0857
21103W        W37364   4.580   7.515   0.338 -0.2527 -0.2727 -0.1389
21104W        W37365  18.518   4.215  14.956  0.0548  0.0853  0.2299
21105W        W37366  17.599  10.291   0.167 -0.1085 -0.1072 -0.0364
21106W        W37367  10.948  17.729   5.601 -0.4103  0.0453 -0.4107
21107W        W37368   1.017   7.016   4.242  0.3581  0.1474 -0.4709
21108W        W37369   1.666  15.539   4.449 -0.2660  0.1899  0.2382
21109W        W37370  15.484   4.652  13.092  0.1662 -0.0182  0.0126
21110W        W37371  15.573  10.727   1.523  0.0654  0.0026 -0.2459
21111W        W37372   4.546   5.725  12.932 -0.2164  0.2369  0.3080
21112W        W37373   4.633   7.664   5.737  0.0475  0.1740  0.1210
21113W        W37374   9.873  18.754  13.759 -0.2600 -0.3325 -0.1073
21114W        W37375   8.913  14.660   0.344 -0.0131  0.2263  0.0765
21115W        W37376   9.444   9.263   6.353 -0.0565  0.2467 -0.1860
21116W        W37377  12.031  13.505   1.629  0.0612  0.1982  0.1887
21117W        W37378   0.665  10.685   3.451 -0.2408  0.0172  0.2563
21118W        W37379  15.343   0.626   1.284  0.2388  0.0603 -0.0617
21119W        W37380  14.085  13.336   4.946  0.2250 -0.3698 -0.1093
21120W        W37381  13.173  16.187  14.041  0.0531 -0.1640  0.0347
21121W        W37382   4.431   2.126   5.009 -0.0915  0.0389 -0.1058
21122W        W37383   7.531  13.977   4.514 -0.0646 -0.1446 -0.0983
21123W        W37384  10.945  13.146  15.071 -0.0146 -0.0027 -0.2517
21124W        W37385  12.666   0.697  12.178  0.0200  0.2260  0.0211
21125W        W37386   9.694   3.061  15.383 -0.3185 -0.0207 -0.2963
21126W        W37387   9.599  11.507  14.518 -0.0981  0.0249 -0.0723
21127W        W37388  10.711   8.084  15.544 -0.1226 -0.0785 -0.1940
21128W        W37389   4.294  10.255   1.557 -0.0860  0.0446  0.3235
21129W        W37390   6.347   1.000  14.720  0.1211  0.0368  0.0505
21130W        W37391  18.139  16.051   3.227 -0.2341 -0.2778 -0.1084
21131W        W37392  10.856   5.054   5.779  0.0761  0.1750 -0.0942
21132W        W37393   0.286  16.411   5.470 -0.2114  0.3636 -0.3583
21133W        W37394  14.791  14.287  12.952 -0.4024 -0.4105 -0.2790
21134W        W37395   1.460   3.915  13.391  0.2273  0.3474 -0.1521
21135W        W37396   1.971  15.895  10.966  0.0526  0.1422 -0.2445
21136W        W37397   2.874   7.548  15.306  0.1701 -0.0168 -0.0957
21137W        W37398   0.665  15.084  14.847 -0.1001 -0.0452  0.1037
21138W        W37399   1.243  18.695  14.840  0.1225  0.0295 -0.0639
21139W        W37400   2.927   0.562   2.864 -0.0104 -0.0088  0.1764
21140W        W37401  10.136  11.098  15.236 -0.1684 -0.0991 -0.1969
21141W        W37402  14.511  10.945  12.099  0.0844  0.0873  0.3163
21142W        W37403   6.352  16.248   3.494 -0.1951  0.0999  0.1942
21143W        W37404  16.106   1.233   0.898 -0.1331  0.4964  0.2036
21144W        W37405   6.024  12.730  14.199 -0.0274  0.1836 -0.1429
21145W        W37406  10.820   7.399   4.737  0.1705  0.0206 -0.2621
21146W        W37407  13.084   0.402  11.359 -0.2082 -0.0105 -0.2186
21147W        W37408  11.853  11.184   4.107 -0.1286  0.0295 -0.0860
21148W        W37409   2.103  12.179  12.876 -0.0748  0.0280 -0.0607
21149W        W37410   9.308   4.324   4.829 -0.2915  0.1491  0.2667
21150W        W37411   9.358  16.815   4.746 -0.2009  0.1076  0.3698
21151W        W37412   7.367  18.166  11.199  0.1289  0.2619 -0.1369
21152W        W37413  10.364   0.565   4.454  0.0410  0.2380 -0.0715
21153W        W37414   3.397   5.739   1.419  0.0263  0.3731 -0.3511
21154W        W37415  13.057  18.313  15.141  0.0428 -0.0641  0.3506
21155W        W37416   4.327   7.973  14.713 -0.1037  0.2379 -0.3445
21156W        W37417  12.924  17.916  11.665 -0.0058 -0.0945 -0.0525
21157W        W37418  15.711  10.795   3.296  0.1648  0.1181 -0.1424
21158W        W37419  16.501   2.235  13.336 -0.1854 -0.2542  0.1062
21159W        W37420   7.544   9.313   2.113 -0.2223 -0.1875 -0.3018
21160W        W37421  10.387   0.082   6.188  0.0530 -0.1822  0.1444
21161W        W37422  18.413   5.263   4.262  0.3144  0.1003 -0.1032
21162W        W37423   2.304  18.608   2.586  0.0960 -0.3684  0.3729
21163W        W37424   4.122   8.842   4.317 -0.0864  0.2139 -0.0045
21164W        W37425   0.964   3.920   3.401 -0.0699  0.1004  0.1250
21165W        W37426   6.487   3.458   3.786  0.1674  0.1265  0.0310
21166W        W37427   9.875   8.012   2.031  0.1687  0.2332 -0.1195
21167W        W37428   5.230   6.474   1.819  0.1756  0.2082  0.2984
21168W        W37429  18.397   3.061   0.170  0.2062 -0.1139 -0.4036
21169W        W37430  10.437   9.458  13.015  0.1709 -0.0179 -0.2362
21170W        W37431  15.476   5.539   1.413  0.3013  0.0278  0.1945
21171W        W37432   3.955  18.742   2.655 -0.2247 -0.2292  0.2061
21172W        W37433  13.850   1.836  13.822 -0.0673 -0.1722  0.0437
21173W        W37434   4.818  16.892   4.668 -0.3086 -0.0365 -0.0328
21174W        W37435   5.126   9.434  12.193  0.0381  0.3924  0.3180
21175W        W37436   5.605  11.777   3.360 -0.1814  0.0957  0.0285
21176W        W37437  11.962   3.054  14.830 -0.2235  0.4062 -0.0371
21177W        W37438  18.821   4.917   1.919 -0.2150  0.1484  0.4519
21178W        W37439   7.581  17.074   2.849  0.2110  0.1299  0.2196
21179W        W37440  15.760  15.582  14.770  0.0803  0.1212  0.0075
21180W        W37441   2.704  17.705   0.792  0.1064 -0.0401  0.0725
21181W        W37442   9.535  11.015   0.605  0.1174 -0.1708  0.2269
21182W        W37443  12.159  14.049   2.465 -0.3467 -0.3447  0.2481
21183W        W37444   2.579  14.580  11.566  0.1084  0.2458 -0.0249
21184W        W37445   7.926  14.958   0.241  0.0341  0.0877 -0.1453
21185W        W37446   3.259  10.082   4.116  0.0971  0.1576 -0.2290
21186W        W37447   5.083   2.875  11.286  0.3069  0.2065  0.0602
21187W        W37448  12.948  14.997   1.886  0.0250  0.2110  0.2949
21188W        W37449  10.210   4.565  15.503  0.2793  0.0994  0.1454
21189W        W37450  18.398   6.786   1.632 -0.0683  0.2330  0.3226
21190W        W37451  13.716  16.838  13.806  0.3792  0.3196  0.1060
21191W        W37452   4.328   4.507   4.725  0.1398 -0.0473 -0.1646
21192W        W37453  11.984  11.963  13.083 -0.1241  0.1332 -0.1791
21193W        W37454  11.943   8.935   3.591  0.0603 -0.1501  0.1213
21194W        W37455  18.051   0.971   2.403 -0.0195  0.2189  0.2236
21195W        W37456  10.460  10.453  14.528 -0.2643  0.0497 -0.0872
21196W        W37457   3.384  18.688  14.393 -0.1105 -0.2490 -0.2219
21197W        W37458   1.817  18.020  11.252  0.0835  0.0265  0.0396
21198W        W37459  11.054  16.032   1.408 -0.1920 -0.1413 -0.0259
21199W        W37460  17.713  15.431  13.137 -0.0771  0.0956  0.2194
21200W        W37461  13.230  12.304   1.932  0.0038 -0.3773  0.0865
21201W        W37462   1.274  11.235  13.568  0.0181 -0.2549  0.1096
21202W        W37463  13.926   7.457  11.203  0.2560 -0.1137 -0.0511
21203W        W37464   4.827  16.837   3.325 -0.2259  0.0770 -0.0331
21204W        W37465   5.200   0.136   1.367 -0.0820  0.2534 -0.3764
21205W        W37466   1.694   0.756  13.703 -0.0365  0.2512 -0.0617
21206W        W37467   7.274   8.252   1.395 -0.1805  0.2564 -0.0369
21207W        W37468  16.563   0.240  13.261 -0.0309  0.1339  0.6380
21208W        W37469   0.143  14.105  15.168  0.2245 -0.0171 -0.1841
21209W        W37470   8.312  10.559   1.741  0.1383 -0.2734 -0.3186
21210W        W37471  18.560   6.452   4.994  0.1574 -0.0586 -0.0759
21211W        W37472  11.881   4.676   0.695 -0.1330 -0.1637 -0.0715
21212W        W37473   3.472  15.774  10.835 -0.0194 -0.0715  0.0666
21213W        W37474  10.622  11.771  14.956 -0.1987  0.0138 -0.0359
21214W        W37475  18.252   0.787   3.834 -0.1178 -0.0341  0.0364
21215W        W37476   5.378   0.032   4.202  0.0588 -0.1975 -0.0420
21216W        W37477  14.966  10.198  15.574  0.1221  0.2848  0.0812
21217W        W37478  12.883   8.535   4.963 -0.1055 -0.1571 -0.1962
21218W        W37479  16.699  18.480  13.695 -0.0370 -0.1365  0.1267
21219W        W37480  18.227  15.107   0.837 -0.1215 -0.4253  0.4099
21220W        W37481  16.115  13.798   3.978  0.1989 -0.0514 -0.2378
21221W        W37482   7.348   1.323   1.751  0.0660 -0.2387 -0.1330
21222W        W37483  15.721  17.801   4.385 -0.1267 -0.2133  0.0258
21223W        W37484  18.175   3.922  14.400 -0.1719 -0.1575  0.1704
21224W        W37485   9.016   2.087   5.228 -0.1406 -0.1381 -0.2334
21225W        W37486   4.238  11.954   2.255 -0.2449  0.2405  0.2421
21226W        W37487   4.028  16.872   2.980 -0.0657  0.1588  0.0545
21227W        W37488   7.327   3.985  11.031 -0.1604  0.1356  0.0247
21228W        W37489  12.652   3.653   3.677 -0.1533 -0.1646 -0.0782
21229W        W37490   2.590   7.336  14.473 -0.1581  0.0111 -0.1031
21230W        W37491   6.137  15.469   3.823 -0.2223  0.2225  0.0580
21231W        W37492   0.893  12.903   0.570  0.1473 -0.1146  0.0027
21232W        W37493  11.537  16.554  12.787 -0.2534  0.1187 -0.3575
21233W        W37494  12.389  10.069   1.557 -0.1037  0.3158  0.0883
21234W        W37495   6.149  10.125   1.166 -0.0314 -0.1600 -0.0101
21235W        W37496  17.282  10.727  11.262 -0.1623  0.0036 -0.3025
21236W        W37497  17.665   7.896  12.154  0.1493 -0.0053  0.0672
21237W        W37498  15.202  17.003   2.064 -0.2805 -0.0878  0.2321
21238W        W37499   9.617  11.090  15.301  0.4910 -0.1945 -0.0156
21239W        W37500  18.214  14.036  11.165 -0.1203  0.0301  0.0565
21240W        W37501   1.471   3.760  12.238 -0.1217 -0.0210  0.1251
21241W        W37502   4.929  18.296  15.314  0.0560 -0.0904  0.0467
21242W        W37503  18.531  17.487  13.548  0.0337  0.0009  0.0574
21243W        W37504   2.835  18.238  15.085 -0.3053 -0.1986 -0.3054
21244W        W37505   0.367  16.626  14.389 -0.4330  0.2411 -0.2083
21245W        W37506   5.341  14.588   4.625  0.1396  0.0770 -0.1557
21246W        W37507   4.193   9.603   1.684  0.1112  0.0408  0.0098
21247W        W37508   0.589   4.573  12.112  0.0638  0.0448  0.1663
21248W        W37509  18.127  18.500  14.465 -0.0142 -0.0008 -0.0899
21249W        W37510  13.584   3.527   0.259  0.1227 -0.0848 -0.1676
21250W        W37511   6.685   7.189   1.880 -0.1500  0.0682  0.0797
21251W        W37512  12.071   1.479  13.747 -0.0401  0.0045 -0.2301
21252W        W37513  17.646  14.750  11.738 -0.0468 -0.1087  0.0688
21253W        W37514  14.408  13.578   2.407 -0.0565 -0.2886  0.0167
21254W        W37515   6.557   7.111   5.317  0.1552 -0.0455  0.0668
21255W        W37516   6.130   1.167   0.800  0.0284  0.1780 -0.2081
21256W        W37517   3.329   5.441   5.229 -0.4139 -0.4333  0.2737
21257W        W37518   3.099   6.631   4.637 -0.1461  0.0206  0.0847
21258W        W37519  12.836  12.802   4.574 -0.0382  0.2888 -0.3270
21259W        W37520   1.335  18.444  13.827  0.0363 -0.1110 -0.0176
21260W        W37521   3.670   5.305  11.015  0.0993 -0.1325 -0.2478
21261W        W37522   1.280   4.338  13.111  0.4032 -0.2616  0.4361
21262W        W37523   6.610   8.143  12.144  0.2656 -0.0528 -0.1154
21263W        W37524   7.333   6.302   5.933 -0.0536 -0.1447 -0.3402
21264W        W37525  15.200  14.643  11.667 -0.0157  0.2874 -0.0738
21265W        W37526  13.240   6.632   5.026  0.2498 -0.3262 -0.0875
21266W        W37527   4.566   0.329   2.545 -0.1844  0.1832  0.1076
21267W        W37528   7.885  12.160  14.252 -0.1117  0.0925  0.3667
21268W        W37529   8.674  17.766  12.963  0.0004  0.0013 -0.2946
21269W        W37530  16.145   9.891  12.241 -0.0694 -0.0011 -0.6210
21270W        W37531  17.050  14.239  15.409  0.0102 -0.1587 -0.0495
21271W        W37532  16.943  15.155   3.445  0.2857 -0.3409  0.0477
21272W        W37533  17.579  13.067  15.436  0.4028 -0.1252  0.1886
21273W        W37534  11.717   2.032  12.688  0.0361 -0.1415 -0.0521
21274W        W37535   8.772   1.493  11.296  0.3099  0.0539 -0.0492
21275W        W37536   7.781   8.853  11.993 -0.0350 -0.1653 -0.0668
21276W        W37537  16.804   6.191   3.055 -0.0190  0.0090  0.1782
21277W        W37538   4.015  10.625  15.600 -0.2003  0.1395  0.0185
21278W        W37539   6.648   7.292   3.640  0.2432  0.0404  0.0313
21279W        W37540  16.259  11.234  12.675  0.2897  0.1292 -0.0143
21280W        W37541  13.179   2.239   0.592 -0.4009 -0.3152 -0.1109
21281W        W37542  13.810  15.602   5.122  0.2111  0.0673 -0.2919
21282W        W37543   9.961  14.660   5.984  0.1599 -0.3746 -0.0671
21283W        W37544  12.565   7.432  12.438 -0.1404  0.0909 -0.0359
21284W        W37545   7.948  13.244   1.960 -0.0670  0.1432 -0.0206
21285W        W37546   1.158   7.013  12.256  0.3300 -0.0164  0.5023
21286W        W37547   8.978  17.464  15.156 -0.1637 -0.4867  0.1378
21287W        W37548   0.440  12.443   1.207 -0.3992  0.0035  0.1794
21288W        W37549   0.356   1.387  12.069  0.0829  0.0242  0.0935
21289W        W37550  15.985  18.526   5.165  0.3127 -0.0775 -0.1665
21290W        W37551   7.620   6.236  13.535  0.2529 -0.1383 -0.2658
21291W        W37552  13.436   3.712  11.050  0.0642  0.1274  0.0554
21292W        W37553  13.067  14.588  11.649  0.1489 -0.1694  0.1975
21293W        W37554  13.941  13.087  12.388  0.0310 -0.1675  0.1141
21294W        W37555   0.418   6.813  13.813 -0.0303 -0.1220  0.0473
21295W        W37556  15.979   1.621   0.150  0.0648  0.1401 -0.0747
21296W        W37557  14.007   8.071   0.064 -0.2740  0.1306 -0.2633
21297W        W37558   7.462   4.041   1.354 -0.0903  0.2555  0.2214
21298W        W37559   2.694  14.395   1.847 -0.1423  0.1276  0.0722
21299W        W37560  12.615  10.562   0.791  0.1348 -0.2028  0.1400
21300W        W37561  17.651  12.863  13.509  0.1345  0.4162  0.1703
21301W        W37562   8.666  12.633  13.154 -0.1487  0.0282  0.1286
21302W        W37563  13.601  14.845   2.595  0.0212 -0.0652  0.1409
21303W        W37564  12.819   8.430  13.901  0.1831  0.3773 -0.0675
21304W        W37565   8.494   0.687  11.625  0.2516 -0.1584  0.1599
21305W        W37566   0.513   4.823  13.620  0.0010  0.0440  0.1258
21306W        W37567   4.971  16.256  11.946 -0.3037  0.1050  0.1885
21307W        W37568  16.907   0.112   4.809  0.2324  0.2379 -0.1896
21308W        W37569  14.266  11.607   3.490  0.0039 -0.2284 -0.0278
21309W        W37570   9.288  16.369  12.429  0.1311 -0.1319 -0.1855
21310W        W37571   8.854   7.297   5.097  0.0575  0.0580 -0.2956
21311W        W37572  18.332   1.905  10.952 -0.1659  0.3389  0.1977
21312W        W37573   7.892   4.439  11.577 -0.0415 -0.3581  0.0441
21313W        W37574  12.309   5.898  11.820  0.1162 -0.0391  0.0415
21314W        W37575   2.123  16.443  13.786  0.0971  0.1309 -0.0097
21315W        W37576   0.837  15.146  13.127  0.3279  0.0004  0.1832
21316W        W37577   4.758  18.769   0.419  0.1556  0.0763  0.0666
21317W        W37578   1.234   0.716  11.944  0.0762 -0.2057 -0.2056
21318W        W37579  11.019  15.619   2.201  0.1449 -0.5006 -0.3283
21319W        W37580  12.403   4.872   0.530  0.2609 -0.4391 -0.2596
21320W        W37581  10.497  12.478  11.142  0.2843  0.0284 -0.0343
21321W        W37582   7.126   8.208   3.004  0.2240  0.0905  0.2267
21322W        W37583  11.291  18.092   4.388 -0.0100 -0.3611 -0.1826
21323W        W37584  13.064   5.146  12.021  0.0309  0.1955 -0.1000
21324W        W37585   3.073  17.311   4.013 -0.2222  0.3174  0.2007
21325W        W37586   0.539   0.843   0.551 -0.1890 -0.0421  0.0771
21326W        W37587   7.890   3.611  12.780  0.0587 -0.0433 -0.0022
21327W        W37588  10.095   2.788   2.434 -0.0066 -0.1947 -0.0557
21328W        W37589   6.884   6.855   0.622 -0.2832  0.4298  0.1992
21329W        W37590   5.513   0.833   1.875 -0.0514 -0.1060 -0.0345
21330W        W37591   1.767   8.708  10.085 -0.0523  0.0174  0.1341
21331W        W37592   7.993   4.491  13.805 -0.1774 -0.0489  0.0957
21332W        W37593   7.509   4.447  13.645 -0.1683 -0.0840 -0.0764
21333W        W37594  15.853   5.287  11.000 -0.1314  0.1070 -0.1989
21334W        W37595   0.839  13.652   1.213  0.1003  0.1013  0.2337
21335W        W37596  18.264  17.911  11.605 -0.0852 -0.1065  0.1839
21336W        W37597  16.842   9.189   9.830 -0.5951  0.1166  0.1063
21337W        W37598   6.105  10.268  13.183 -0.0235  0.3105  0.2135
21338W        W37599   4.341   6.444   4.682  0.0605  0.1734 -0.4880
21339W        W37600   1.057   6.924  10.942  0.0493 -0.0222 -0.1497
21340W        W37601  14.809   0.731  13.643  0.0989  0.1863 -0.0305
21341W        W37602   3.890   0.793  11.915  0.4316  0.1052 -0.2171
21342W        W37603  13.225   7.688  11.998  0.1711  0.1471 -0.1916
21343W        W37604  17.810  11.839  10.712  0.0828 -0.0350  0.2443
21344W        W37605   0.625  10.092  13.696 -0.0066 -0.0138  0.1803
21345W        W37606  12.634   3.881  14.925 -0.2502  0.4268  0.2789
21346W        W37607   6.553  12.969  14.243 -0.1354  0.1567  0.2581
21347W        W37608  13.583   6.978   3.702 -0.0691 -0.1725 -0.0127
21348W        W37609  12.675  10.498   1.984 -0.0856  0.3735  0.1394
21349W        W37610  16.583  11.253  12.219  0.0511  0.0025  0.0023
21350W        W37611  12.838   6.817  15.404 -0.0756  0.2098 -0.1838
21351W        W37612  15.546   8.008   0.809 -0.1150 -0.0531 -0.0451
21352W        W37613  11.932  13.573   1.181 -0.0142 -0.0207  0.2399
21353W        W37614   5.197  13.278   3.523 -0.2983 -0.1478 -0.1225
21354W        W37615   5.016  10.129  10.977  0.2819  0.1021 -0.1040
21355W        W37616   4.330   4.988   5.272  0.0621  0.1799 -0.0436
21356W        W37617  13.148   3.009  11.284 -0.0583  0.5336 -0.1955
21357W        W37618  16.629   4.798  14.310 -0.0564 -0.1360  0.4003
21358W        W37619  13.441  12.033  13.382  0.1350  0.1630 -0.0378
21359W        W37620   6.813  14.100  11.532 -0.0238  0.1943 -0.0994
21360W        W37621  10.632   6.509   3.147 -0.0641 -0.1474  0.3442
21361W        W37622  15.039  11.581  15.486  0.1644  0.1696  0.1561
21362W        W37623  13.145  18.070   0.807  0.1330  0.1516 -0.1723
21363W        W37624  11.950   7.842   2.650  0.0628 -0.0840 -0.0542
21364W        W37625   3.964  17.746   2.598 -0.2227 -0.0315 -0.3413
21365W        W37626  12.131  10.237  13.549  0.3737  0.0844  0.0350
21366W        W37627  18.604   7.935   3.913 -0.0956  0.0546 -0.1814
21367W        W37628   6.442   6.395  12.704 -0.1012  0.0282 -0.2100
21368W        W37629   1.347  15.005  13.080 -0.2498  0.2548  0.0724
21369W        W37630  13.855  13.082  10.397  0.0639 -0.0822  0.2895
21370W        W37631   9.297  11.733  12.622  0.1297  0.0653  0.2655
21371W        W37632  12.056  14.040   2.981  0.0147  0.1505 -0.1608
21372W        W37633  13.608  11.676   2.300  0.0104  0.1214 -0.0730
21373W        W37634  11.046  11.381  15.239  0.2602  0.0041 -0.1450
21374W        W37635  14.680   5.519  15.591  0.2945 -0.2184  0.2080
21375W        W37636  17.676  15.984   3.459 -0.2128 -0.0757  0.0383
21376W        W37637   4.315  15.825   5.176  0.0512 -0.2035  0.0495
21377W        W37638   1.786  11.954   4.948  0.0671 -0.3860  0.2249
21378W        W37639   6.319  13.533   4.144 -0.1697 -0.0366 -0.1632
21379W        W37640   8.202   9.939  13.002 -0.2138  0.2448 -0.0366
21380W        W37641  16.413  11.258   5.628  0.0354  0.1771  0.1351
21381W        W37642  18.136   1.582   3.275 -0.1474  0.2044  0.1046
21382W        W37643  17.208   6.709  15.206 -0.1111  0.0981 -0.1164
21383W        W37644   3.239   7.337   4.137  0.0328 -0.0188 -0.1281
21384W        W37645  10.197  16.855  11.704  0.3566  0.1257 -0.1495
21385W        W37646  15.418  15.410   4.011  0.0380 -0.1415  0.0210
21386W        W37647   8.548   1.954   0.373  0.0091  0.2800  0.0745
21387W        W37648  15.255  17.694  13.639  0.1365  0.1034  0.2312
21388W        W37649  17.735  15.740  11.309 -0.0101  0.0492  0.2500
21389W        W37650   8.420  12.000   0.801  0.0171  0.1150 -0.1684
21390W        W37651  16.701   9.747   2.971  0.2467 -0.1392 -0.0718
21391W        W37652   1.449  15.391   1.791 -0.3317  0.0204  0.1898
21392W        W37653  14.321  15.922   2.552 -0.0578  0.0196  0.2002
21393W        W37654  10.557   1.732  13.080  0.2912  0.1722 -0.0146
21394W        W37655   1.017   9.862   1.872 -0.2779  0.1648  0.0716
21395W        W37656  14.845  13.429  13.343 -0.0491 -0.0246 -0.0589
21396W        W37657   0.632  12.739   3.479  0.3117  0.1565 -0.0019
21397W        W37658   1.029  13.321   0.768  0.4754  0.0196  0.0787
21398W        W37659  15.758  18.386   3.368 -0.1611 -0.3003  0.0730
21399W        W37660   5.507   2.550  11.649 -0.1668 -0.1574 -0.0051
21400W        W37661  11.495   1.280   5.208 -0.0011  0.0056  0.1008
21401W        W37662   0.994   1.702  12.602  0.1086  0.0504  0.0023
21402W        W37663  16.472  16.789   0.944  0.1733 -0.3002 -0.1007
21403W        W37664  12.835  17.759   3.844  0.0867  0.2803  0.1803
21404W        W37665  14.169   9.161   2.411 -0.1772 -0.1606 -0.2741
21405W        W37666   4.512  10.109   3.910  0.2588 -0.2047  0.3288
21406W        W37667  18.215   8.305  12.914  0.0197  0.1890  0.3559
21407W        W37668   5.366  17.726  12.456  0.1063 -0.0767 -0.0493
21408W        W37669   3.495  12.396  15.155  0.0477  0.1978 -0.0352
21409W        W37670   3.498   1.436   1.808  0.0124  0.0569  0.0830
21410W        W37671   1.595   8.792  11.562 -0.1131 -0.1495 -0.2998
21411W        W37672  11.520   4.320  11.197 -0.0137 -0.1500 -0.3821
21412W        W37673   6.219  15.179   5.607  0.2580  0.4256  0.4072
21413W        W37674  18.034  11.129  12.296  0.0178  0.0160 -0.2943
21414W        W37675  14.856  14.949   1.482  0.1394 -0.3323 -0.2581
21415W        W37676   0.305   4.831  13.153  0.0788 -0.0187 -0.0809
21416W        W37677  17.653   6.121  11.125 -0.0810 -0.1116  0.0260
21417W        W37678  10.704  13.882   2.504 -0.0013 -0.0497 -0.1751
21418W        W37679  10.794  18.266   4.555 -0.1199  0.0366 -0.0999
21419W        W37680   0.672  17.418  14.391 -0.0205  0.0409 -0.0910
21420W        W37681  10.905   7.202   3.144 -0.0283  0.1090 -0.0768
21421W        W37682   7.819  11.432  11.042  0.0740  0.0094 -0.1348
21422W        W37683  18.246   2.159  10.539 -0.1339 -0.0398 -0.0351
21423W        W37684   2.822  15.620  13.962  0.2531  0.3059  0.1892
21424W        W37685  11.191   1.407   0.663  0.0920  0.4431 -0.0508
21425W        W37686  11.392   7.970  12.347 -0.0820 -0.0396 -0.1652
21426W        W37687  17.727  12.282   3.526 -0.1465 -0.0375  0.0740
21427W        W37688  14.943   6.380  15.588  0.1106  0.1921  0.1146
21428W        W37689  17.125  18.120  14.773 -0.0138 -0.0218  0.1073
21429W        W37690  15.783  14.811   1.492  0.1263  0.1530 -0.0007
21430W        W37691   3.589   9.944  14.396 -0.3933 -0.0568  0.1627
21431W        W37692  16.074   9.465   2.875  0.2764  0.0654 -0.4832
21432W        W37693   8.797  10.279  12.529  0.3821 -0.0902  0.1343
21433W        W37694  12.170   0.816  14.206  0.1228 -0.0296 -0.2148
21434W        W37695  11.842   1.961   3.144 -0.0522  0.1277 -0.0396
21435W        W37696   2.548  12.733   0.022  0.0513  0.0212 -0.1971
21436W        W37697  12.172   9.358   3.524 -0.1403 -0.1555  0.0529
21437W        W37698   5.101  18.259  14.230  0.4214  0.3974 -0.1284
21438W        W37699   5.011  13.436  10.803 -0.1501  0.0243  0.1168
21439W        W37700   9.223   1.615   0.949 -0.4318 -0.1062  0.5296
21440W        W37701  11.740  11.603  12.874 -0.1278  0.1001 -0.0343
21441W        W37702   1.975  16.701  14.195 -0.1413 -0.0363  0.3534
21442W        W37703  18.801   7.046  13.736 -0.0071  0.0086  0.1297
21443W        W37704   7.212  13.399  13.704  0.0614 -0.0666 -0.0846
21444W        W37705  14.484   2.347   0.697 -0.1384 -0.1132 -0.0977
21445W        W37706  13.407   5.612   2.263  0.1906 -0.2212 -0.1712
21446W        W37707  10.315   9.405  13.588  0.0098 -0.0907  0.0705
21447W        W37708  10.934  17.830  13.963  0.1083 -0.0070 -0.2871
21448W        W37709   1.839  14.476   1.846 -0.0409 -0.0606 -0.1083
21449W        W37710  15.547   5.200   2.126  0.0966 -0.0074  0.2494
21450W        W37711   8.078   3.240   1.040  0.0791 -0.1797  0.0312
21451W        W37712   8.758  12.651   4.035  0.1294 -0.2228 -0.0043
21452W        W37713  12.689   3.371  13.811 -0.2409  0.0559 -0.2007
21453W        W37714   0.958  12.060  13.241  0.2464  0.1018  0.0697
21454W        W37715   0.697  15.984   4.252  0.2101  0.2515  0.0958
21455W        W37716  13.664  17.314   3.083  0.2545 -0.0262 -0.3605
21456W        W37717   2.434   6.675   1.400 -0.0009 -0.2419  0.0769
21457W        W37718   2.958  16.036  11.783  0.0320  0.2376  0.4648
21458W        W37719  10.944   1.948   0.870  0.1482 -0.0222 -0.0729
21459W        W37720  12.665  12.922  14.368 -0.3511 -0.4081 -0.1048
21460W        W37721  13.202   9.862  12.972 -0.1819 -0.1931 -0.1902
21461W        W37722   1.646  14.624  11.300  0.2264 -0.1450 -0.3532
21462W        W37723  17.977  12.168  12.851 -0.0906  0.1388 -0.0141
21463W        W37724   6.395   7.186   0.926 -0.2102 -0.3473  0.0126
21464W        W37725  15.353   6.639  11.311 -0.0168  0.2783 -0.2313
21465W        W37726  15.787  17.395   5.129 -0.1874 -0.2146  0.2869
21466W        W37727  10.195  14.720   9.905  0.2843  0.0524  0.1347
21467W        W37728  16.059  17.031   0.821 -0.1078 -0.3139 -0.0209
21468W        W37729  15.419   5.653  15.486  0.2059 -0.2336  0.0132
21469W        W37730   9.314  18.704   1.481 -0.0025  0.0992 -0.0404
21470W        W37731  12.417   4.644  11.507 -0.0408 -0.0867 -0.1065
21471W        W37732   5.489  17.967   2.229  0.3357 -0.1101  0.1573
21472W        W37733   2.413  12.112  11.032  0.0768  0.1247 -0.2095
21473W        W37734   3.914  11.691   1.594 -0.0120 -0.1989 -0.4656
21474W        W37735  15.014  11.877   4.414 -0.0798  0.0175  0.0801
21475W        W37736   5.053   6.106   1.404 -0.1871  0.1014 -0.1983
21476W        W37737   9.300  12.144   4.527  0.0381 -0.0915  0.0131
21477W        W37738  16.763   1.293   4.022 -0.0377  0.0603 -0.0740
21478W        W37739   3.620   5.864   5.183 -0.0818  0.0399  0.2237
21479W        W37740   7.796   1.047   3.411  0.3312 -0.4593  0.0674
21480W        W37741  16.901  17.966   1.612 -0.1778  0.0735 -0.3529
21481W        W37742   1.799  18.484   2.741 -0.2541  0.0147 -0.0043
21482W        W37743  12.549  13.733  11.212 -0.1372 -0.1124  0.0924
21483W        W37744   0.118   5.923   3.973 -0.4639 -0.1633  0.1287
21484W        W37745   9.199   0.361   1.512  0.1261  0.2116  0.5586
21485W        W37746   7.328  17.029   0.148 -0.0827 -0.0412  0.2154
21486W        W37747  18.046  12.960  11.012 -0.2482 -0.1919  0.2252
21487W        W37748  13.151   2.529  12.071 -0.2364 -0.0624  0.1700
21488W        W37749  16.014  16.201   1.854  0.2043  0.2941 -0.1148
21489W        W37750   3.181   6.967   3.440  0.0192 -0.4088 -0.2121
21490W        W37751  12.222  16.273   4.316  0.0095  0.0198  0.0020
21491W        W37752   0.133   0.529   4.117  0.0208 -0.3188 -0.0815
21492W        W37753   8.569   9.317   2.503 -0.1018  0.2099  0.2604
21493W        W37754   6.249  11.936   1.154  0.0796  0.0041 -0.5010
21494W        W37755   3.030  11.941   1.163 -0.2530 -0.0593 -0.0271
21495W        W37756   4.041   2.875   1.394 -0.2257  0.1457  0.0984
21496W        W37757   4.332   2.454  13.495 -0.1475  0.0851  0.1594
21497W        W37758  13.617   4.018  14.825 -0.0234 -0.1304  0.0480
21498W        W37759   9.135   4.649   4.104  0.1884  0.0131 -0.0002
21499W        W37760  13.223  15.000   0.489  0.2167  0.0587  0.4581
21500W        W37761  17.578   6.821   4.271 -0.0935  0.0760  0.2671
21501W        W37762   0.577   3.914  11.994 -0.1490  0.0273 -0.0968
21502W        W37763   1.129   3.616  13.819 -0.1860  0.3559 -0.1767
21503W        W37764   2.851  13.274  13.707  0.2154 -0.1594 -0.2297
21504W        W37765  15.675  18.054  10.796  0.2769  0.1688  0.3784
21505W        W37766  10.724   3.912   2.370  0.0789  0.1161  0.2242
21506W        W37767  10.851   1.604   4.038 -0.0121  0.2269 -0.1776
21507W        W37768   4.839  15.164  11.626  0.0353 -0.0217  0.1005
21508W        W37769  11.783   7.478   0.419 -0.4338  0.0883  0.4240
21509W        W37770  14.273   8.548   0.190  0.1639 -0.2165 -0.2345
21510W        W37771   9.172   2.009   0.554  0.1528  0.0675  0.1961
21511W        W37772   0.342   9.310  14.693 -0.0463 -0.0836 -0.2164
21512W        W37773   9.953   0.373  11.846 -0.2895  0.0155  0.1488
21513W        W37774   5.279   2.127   2.386  0.2789  0.0083  0.0127
21514W        W37775  17.932   1.629  13.349 -0.3561 -0.1620  0.1994
21515W        W37776   3.399  12.355   2.615 -0.2440  0.0481  0.5078
21516W        W37777   3.771  12.570   2.020 -0.1535  0.2143 -0.1147
21517W        W37778   6.476  12.537   4.209 -0.0037  0.3830  0.0545
21518W        W37779  14.075  15.366  10.871 -0.0449 -0.0211 -0.2231
21519W        W37780   1.209   5.930  11.213  0.1535  0.0548  0.0320
21520W        W37781   7.288  11.105   0.987 -0.4095 -0.1151  0.0633
21521W        W37782  12.919  14.556  15.310  0.0291  0.1282 -0.1432
21522W        W37783   5.657   7.031  13.902  0.0203  0.2380  0.1364
21523W        W37784   4.044  18.181  13.439  0.1700 -0.0800 -0.1486
21524W        W37785   5.183   2.132  13.381 -0.1009  0.1700 -0.0754
21525W        W37786   6.501  15.534   1.765 -0.1155  0.1152  0.0210
21526W        W37787   4.020  14.075   2.565  0.0733 -0.1102  0.1407
21527W        W37788  13.349   2.035   3.587  0.1245  0.1339 -0.1342
21528W        W37789   6.595   0.163   6.130  0.2230 -0.2736 -0.0292
21529W        W37790   3.955   4.626  11.526 -0.1366 -0.0518 -0.0350
21530W        W37791   4.671  18.371   0.703  0.1812  0.0802 -0.0971
21531W        W37792  17.446  17.631   0.576  0.0596  0.0271 -0.2095
21532W        W37793   0.200  17.283   5.419 -0.2079 -0.2005  0.2049
21533W        W37794  16.158   1.294  12.432  0.0967 -0.0477 -0.2391
21534W        W37795  17.674   1.868   4.524 -0.0963  0.0257 -0.0779
21535W        W37796  12.746   6.614  13.389 -0.4198 -0.1496 -0.2376
21536W        W37797  14.117   1.012   1.645 -0.1465  0.1358 -0.0870
21537W        W37798   0.184   8.313   3.323  0.0013  0.4618  0.1201
21538W        W37799  16.426   7.592   2.196  0.1164 -0.1943 -0.2834
21539W        W37800  16.208  15.074  13.165  0.0022  0.0159  0.0043
21540W        W37801   0.406  10.604   1.553  0.1665  0.1473  0.0778
21541W        W37802   7.905   4.472   4.369 -0.0766 -0.2063 -0.2126
21542W        W37803  17.021  18.087  12.551 -0.2062 -0.1050  0.2125
21543W        W37804  17.539   0.496   4.427  0.0525 -0.1473  0.0875
21544W        W37805  17.199   5.343   0.205 -0.1235 -0.1500 -0.0325
21545W        W37806  11.232   7.766   1.635 -0.1737  0.1147  0.2958
21546W        W37807   8.295   1.056   5.827  0.0790  0.1550 -0.1104
21547W        W37808   8.879  11.151   3.157  0.0048  0.0045  0.0407
21548W        W37809  14.780  12.562   1.446 -0.0615 -0.2254 -0.2791
21549W        W37810  10.101   4.965   1.586 -0.0269 -0.2669  0.1161
21550W        W37811   5.299  11.961   4.010 -0.0839 -0.1883 -0.2564
21551W        W37812  11.285   6.217  14.831  0.2433  0.3345 -0.2581
21552W        W37813  17.060   7.832  11.411 -0.2274 -0.0271  0.0219
21553W        W37814   3.756   1.719   0.762 -0.0697 -0.1276 -0.3859
21554W        W37815  15.332   2.817  12.282 -0.1776  0.1048  0.0569
21555W        W37816   9.593   9.608  11.262  0.0775 -0.1216  0.2788
21556W        W37817  13.141   0.385  12.788 -0.0542  0.1824  0.2606
21557W        W37818  10.711   6.368   5.335  0.1651 -0.3368  0.1725
21558W        W37819   3.100   9.459   5.571 -0.1368 -0.2551  0.1203
21559W        W37820  13.122   7.435   3.020 -0.3405 -0.0393 -0.0943
21560W        W37821   8.889   4.040   5.969  0.2584  0.0437 -0.3678
21561W        W37822  15.176  18.139  14.560  0.2263  0.0613 -0.0317
21562W        W37823   0.366   5.312   1.698  0.1344 -0.3182  0.0887
21563W        W37824  13.048   8.726  11.247 -0.0745  0.0146  0.2169
21564W        W37825   5.690  10.366  13.500  0.4051  0.4364 -0.2743
21565W        W37826   6.542   5.224  14.196 -0.1048 -0.4120 -0.0731
21566W        W37827  16.137  12.894   4.504 -0.1072  0.1116 -0.0560
21567W        W37828   0.054   7.886  14.856 -0.1210 -0.0460 -0.3314
21568W        W37829  11.617   5.408   0.817 -0.1078 -0.1656 -0.2647
21569W        W37830  15.714   1.424   0.653  0.1915  0.0479 -0.1891
21570W        W37831  13.878  12.713  14.559  0.0507 -0.0593  0.0898
21571W        W37832   6.038   7.934  13.505 -0.1065 -0.2219 -0.0568
21572W        W37833  17.799   3.157   3.481  0.1508 -0.0084 -0.1398
21573W        W37834   3.286   2.711   4.139  0.0677  0.1260 -0.0263
21574W        W37835   8.727  16.326  14.653  0.3512  0.2651  0.2418
21575W        W37836   5.485  14.141   0.981 -0.1922  0.1305  0.0524
21576W        W37837   3.654  14.898  11.743 -0.0094  0.3505 -0.0803
21577W        W37838  16.697  15.622   1.632 -0.0289  0.1570 -0.1292
21578W        W37839   2.053   9.217  11.745 -0.0312 -0.0273  0.0142
21579W        W37840   8.753  11.660   0.944  0.0406 -0.1681  0.2353
21580W        W37841   8.328   8.913   3.785  0.0024  0.2501  0.0825
21581W        W37842   2.146   5.605  11.495 -0.0020  0.0679  0.2059
21582W        W37843   7.604  10.095  13.721  0.2361 -0.0961 -0.2497
21583W        W37844   8.137  13.930   2.934 -0.0242 -0.5304  0.0784
21584W        W37845  15.491  11.044   2.045  0.0951 -0.2260  0.2846
21585W        W37846   6.064   0.356  12.504  0.2404 -0.0779  0.2349
21586W        W37847   6.415   0.883   4.279  0.2502  0.1702 -0.1892
21587W        W37848   9.033   9.024   1.627 -0.2298  0.0616  0.1316
21588W        W37849  18.814   2.391  10.517 -0.3394  0.2086 -0.1370
21589W        W37850   2.745  13.079  14.894  0.0218 -0.1744  0.1939
21590W        W37851  15.389  16.767   3.482  0.1665  0.0728 -0.2606
21591W        W37852  14.933   4.814  12.882 -0.1001 -0.1220 -0.1554
21592W        W37853  14.767  16.157  11.633 -0.1986  0.2027  0.0628
21593W        W37854   6.928  10.918  12.914  0.0798  0.0087 -0.1435
21594W        W37855   4.462   7.273  12.942  0.0523 -0.1009 -0.2123
21595W        W37856   4.903  11.733  12.204  0.0050  0.0525  0.1739
21596W        W37857  16.020   4.210  11.025 -0.0804  0.0174  0.5261
21597W        W37858  17.034  12.629  14.291 -0.0591 -0.0185  0.0686
21598W        W37859  12.133   2.313   3.495 -0.1080  0.0851  0.1609
21599W        W37860   1.051   5.607   4.423  0.3539 -0.4763 -0.3151
21600W        W37861   5.973  16.625   2.350  0.0123 -0.2299  0.0164
21601W        W37862  16.426   5.907   4.586  0.3311 -0.0429  0.2650
21602W        W37863  10.734  17.352  13.845 -0.2518  0.1385 -0.1125
21603W        W37864  10.163  16.824   2.787  0.2309  0.0932  0.0772
21604W        W37865  12.173  13.396   3.998 -0.2378  0.1811  0.0803
21605W        W37866  18.260   6.422   1.993  0.0298 -0.1894  0.3386
21606W        W37867  10.405   6.155  11.019 -0.0824 -0.2158  0.1104
21607W        W37868   7.245  10.528  15.334 -0.0642  0.2629 -0.1956
21608W        W37869   7.500   8.825  12.901 -0.0427  0.0346  0.0074
21609W        W37870   1.737   8.377  12.895  0.1738 -0.0433 -0.0687
21610W        W37871   4.138   9.714   3.859 -0.1711  0.0318  0.0014
21611W        W37872   6.473   3.853   0.871 -0.0050  0.1228 -0.0805
21612W        W37873   3.314   9.831  12.947 -0.0113 -0.1145  0.0509
21613W        W37874   9.869   9.222   4.552 -0.2715  0.1258 -0.1087
21614W        W37875  16.390  15.566   4.030 -0.0484  0.0895  0.3173
21615W        W37876   7.590  12.548  15.538 -0.2810  0.1608 -0.0665
21616W        W37877  16.257   5.101  13.399 -0.0641  0.0957 -0.0283
21617W        W37878   6.191  11.245  12.348 -0.2512 -0.1274 -0.0758
21618W        W37879   8.847   3.344   0.489 -0.2229  0.0375  0.0965
21619W        W37880  10.248  16.645  12.216 -0.1260 -0.2440  0.0772
21620W        W37881  16.356   3.394   1.280  0.0970  0.0565 -0.0191
21621W        W37882  11.145   0.065  15.226 -0.0764 -0.1025 -0.0182
21622W        W37883   3.531  17.945  12.553 -0.0121 -0.0154  0.2466
21623W        W37884   8.986   5.198   1.077 -0.0393  0.3509 -0.0687
21624W        W37885   7.056  11.984   3.782  0.0367  0.2163 -0.1063
21625W        W37886   2.565   0.343  14.256 -0.0501  0.3283  0.1707
21626W        W37887   8.388  14.201   0.205 -0.2282  0.0041  0.2842
21627W        W37888   0.888   2.907   3.373 -0.0842 -0.2689  0.0946
21628W        W37889  18.410  10.020  11.257 -0.1817 -0.1496  0.0066
21629W        W37890  14.413  16.315  10.836  0.0127 -0.1564 -0.1695
21630W        W37891  18.658   9.962   4.616  0.0708 -0.1029  0.0919
21631W        W37892   6.532  15.212   3.571 -0.0063  0.2596 -0.1716
21632W        W37893   3.971  10.051  11.093 -0.2530  0.0249 -0.2136
21633W        W37894   8.400   6.606  15.541 -0.0488  0.3667 -0.1087
21634W        W37895  17.364   0.782  12.034 -0.4291  0.0361  0.2340
21635W        W37896  18.316   9.201  13.398 -0.1686 -0.1554 -0.2432
21636W        W37897   0.508  11.647   3.731 -0.0812  0.1942 -0.1945
21637W        W37898   6.336   3.827   5.789  0.0966  0.0083  0.1674
21638W        W37899   6.893  14.686   1.865  0.0796 -0.1199  0.1114
21639W        W37900   9.636  11.365   3.330 -0.1597  0.0311  0.0403
21640W        W37901   5.401   6.210  15.300 -0.0155  0.0506 -0.2558
21641W        W37902  13.016   9.232   4.870  0.1903 -0.1365  0.0281
21642W        W37903   2.071   5.787  15.605  0.1853 -0.0778  0.2312
21643W        W37904   0.434   3.096  13.411  0.1753 -0.2036  0.0203
21644W        W37905   3.815  15.622   4.454 -0.1267 -0.0345  0.2811
21645W        W37906   9.932  16.265   2.053  0.1420  0.0153  0.1724
21646W        W37907   7.802   0.432   3.599 -0.1852 -0.3388 -0.2224
21647W        W37908   2.071   3.501   0.741 -0.1455 -0.0437  0.0171
21648W        W37909  12.842  14.262  11.196  0.0959 -0.0228 -0.1977
21649W        W37910  14.278  11.695  13.689 -0.2177 -0.1415 -0.0144
21650W        W37911   0.967   7.738  12.139 -0.1318 -0.1662 -0.0035
21651W        W37912  11.880   1.437   0.309 -0.2070 -0.1694  0.0358
21652W        W37913  13.824  10.734   0.999  0.1190  0.0111 -0.0118
21653W        W37914   3.095  14.280  13.775 -0.0873  0.0751  0.0054
21654W        W37915   1.657   0.268  11.444 -0.2030 -0.0887 -0.0064
21655W        W37916  12.942  16.670   3.807 -0.0279  0.1287 -0.0814
21656W        W37917  12.293  14.367  13.282 -0.0563 -0.0770 -0.2494
21657W        W37918  18.174   0.820  11.896  0.2387  0.2138 -0.1123
21658W        W37919   2.228  16.447   4.423 -0.0405 -0.3595  0.2437
21659W        W37920  14.080  15.238   0.720 -0.1771  0.0308 -0.1099
21660W        W37921   9.160  11.550   3.247 -0.0511  0.0647  0.2669
21661W        W37922   3.239  18.145   2.140  0.1475 -0.0473  0.2544
21662W        W37923   0.049  15.917   4.556 -0.0419 -0.1954  0.0968
21663W        W37924   6.541   9.333  12.082  0.0235  0.0810  0.3852
21664W        W37925   5.014  17.979   5.236 -0.1463  0.0601 -0.0506
21665W        W37926  11.738   6.987   3.439 -0.1861  0.0191  0.1797
21666W        W37927  10.702   0.957   3.155  0.1071 -0.0615  0.2761
21667W        W37928   8.630  17.301  15.605 -0.2469 -0.1674  0.1452
21668W        W37929  11.626   9.467   2.857  0.3229 -0.2006 -0.1527
21669W        W37930  16.853   6.528   2.448  0.1833  0.1849  0.0410
21670W        W37931   9.156  13.983  13.920  0.1241  0.0881 -0.0817
21671W        W37932   5.950   4.203  14.875  0.3305  0.1378  0.2470
21672W        W37933   1.042  13.061  15.462 -0.3724  0.1449  0.1165
21673W        W37934  15.235  14.676   4.520  0.0721  0.2018  0.1327
21674W        W37935  16.897   1.166   4.466  0.0376  0.1987 -0.0665
21675W        W37936  15.897   2.677   3.331  0.0456  0.2450  0.0035
21676W        W37937   9.234  12.516  13.177 -0.3913 -0.0893  0.1493
21677W        W37938   2.263   7.079  11.573 -0.2597 -0.3087 -0.0562
21678W        W37939  12.855   9.759   5.007 -0.0835 -0.1639  0.1565
21679W        W37940  12.774   8.614   5.537  0.0192 -0.2801 -0.1024
21680W        W37941  17.709   2.948   3.923 -0.2339  0.1584  0.1505
21681W        W37942   0.867   7.493   1.025  0.0818 -0.1808  0.2256
21682W        W37943   8.593   0.238   5.635  0.0521  0.2630  0.1944
21683W        W37944  14.506  11.439  14.706 -0.2752 -0.1520 -0.0674
21684W        W37945   4.965   3.713   2.479 -0.1689  0.0487  0.0432
21685W        W37946   2.688   7.983   2.535  0.1054 -0.3065  0.0781
21686W        W37947   2.486  16.102   4.158 -0.1066 -0.0121 -0.1867
21687W        W37948  17.582   8.185  10.789 -0.2371 -0.1844 -0.0020
21688W        W37949  13.317   8.585   2.010 -0.2350 -0.1714 -0.2910
21689W        W37950   6.835  13.739  12.401  0.1963  0.0890  0.2950
21690W        W37951  16.228  10.698   0.156 -0.1548  0.2311  0.1401
21691W        W37952   7.911  17.283   5.757  0.4999 -0.0731  0.0465
21692W        W37953   1.428  18.168   2.886 -0.1931  0.2060 -0.5420
21693W        W37954  10.146   6.482   5.008  0.2001  0.2197  0.3629
21694W        W37955   1.545   0.245   1.565 -0.0764 -0.3358 -0.1518
21695W        W37956  16.465  10.811  11.826 -0.1952  0.1963 -0.2291
21696W        W37957   3.173   3.063   4.540 -0.0088  0.2912 -0.0237
21697W        W37958  13.830  13.928  10.891  0.3662  0.0232  0.1099
21698W        W37959  12.833  15.657  14.003  0.1579 -0.0846 -0.0279
21699W        W37960   7.046  12.042  13.957  0.0091 -0.1112  0.0581
21700W        W37961   3.884  11.847   4.673  0.0427  0.0142  0.2888
21701W        W37962  16.045  18.420   1.947  0.1488  0.0437  0.0760
21702W        W37963  17.851   7.860  15.127  0.2549  0.0299  0.0955
21703W        W37964   9.758   5.435   3.087 -0.1363  0.1298 -0.0193
21704W        W37965  11.755   1.136   3.853 -0.2724  0.0600  0.0017
21705W        W37966   7.025   6.985  11.422  0.4557  0.2980  0.3539
21706W        W37967  11.074   2.173   3.531 -0.0075  0.0004  0.2333
21707W        W37968   7.559   0.295   0.559  0.0646 -0.0480 -0.0395
21708W        W37969   2.846   1.256   4.180  0.0649 -0.0731  0.3363
21709W        W37970  17.948   0.622   5.361  0.1689 -0.1247  0.0216
21710W        W37971  15.384   6.431   0.418  0.2622 -0.2749  0.0502
21711W        W37972  15.305   1.283  10.841  0.1976  0.4346 -0.0122
21712W        W37973   1.840  16.826   2.792  0.2386 -0.0179  0.1954
21713W        W37974   0.773   6.002  11.741  0.0829  0.0264  0.1995
21714W        W37975  11.385  15.072   0.727  0.0536  0.0792 -0.3194
21715W        W37976   3.792  16.576  11.043 -0.0804  0.2268  0.0392
21716W        W37977  17.736  18.373   1.903 -0.1792  0.1088 -0.1929
21717W        W37978  10.254   9.966  14.234 -0.0513  0.1058 -0.5430
21718W        W37979  12.085   3.212   5.314 -0.3236 -0.1756 -0.3730
21719W        W37980  12.556   8.474  14.320  0.2376  0.1852  0.0103
21720W        W37981  14.079  10.704  15.474  0.1788 -0.0303 -0.1218
21721W        W37982  18.003   6.682  13.136  0.0126  0.0696  0.2014
21722W        W37983   7.619  13.889  11.232 -0.1325 -0.1688 -0.2400
21723W        W37984  14.851  17.636   0.323  0.0808 -0.0695 -0.2036
21724W        W37985  17.354  10.664  10.723  0.0195 -0.1578 -0.1619
21725W        W37986   6.381  15.209   0.646  0.1106 -0.0816  0.0679
21726W        W37987  10.709  13.262   2.685 -0.3495 -0.0556 -0.0377
21727W        W37988   8.487   2.843   3.996  0.0689  0.1890  0.1317
21728W        W37989   8.669  17.750   5.151 -0.0836 -0.1262 -0.0066
21729W        W37990  16.874  13.491  14.927 -0.1504  0.1660 -0.1064
21730W        W37991  12.411   2.882  14.478  0.1391  0.0486 -0.1135
21731W        W37992   8.897  14.331  11.771  0.0128  0.1059  0.1176
21732W        W37993   6.938  11.750  12.123 -0.0650  0.1487 -0.2537
21733W        W37994  15.342  17.804   2.701  0.1412 -0.0870  0.2896
21734W        W37995   3.472   7.346   3.691  0.0010  0.1585  0.0751
21735W        W37996  13.751   2.315   3.795 -0.1459  0.0104 -0.0735
21736W        W37997   1.854   2.854   1.223  0.1978  0.1855  0.3042
21737W        W37998   8.378   1.704  11.644  0.1232  0.1548 -0.0113
21738W        W37999  12.184  15.818   4.687 -0.3476 -0.1614  0.0578
21739W        W38000   5.280   1.293   1.967 -0.0095  0.0914 -0.0867
21740W        W38001   1.047   0.561   2.382  0.0337  0.1331 -0.1032
21741W        W38002   2.978   6.835   0.861 -0.0809 -0.2844 -0.0340
21742W        W38003  12.627   0.645   4.023 -0.2485 -0.1777  0.0912
21743W        W38004   4.815   5.452   3.295  0.1266 -0.0704  0.0416
21744W        W38005   6.982   8.155  12.867 -0.2140 -0.1775  0.0094
21745W        W38006   2.554   2.186   9.922  0.3298  0.0019  0.2168
21746W        W38007   6.045   5.529   2.440  0.1843  0.6067  0.0292
21747W        W38008   6.001   5.464   1.461 -0.2330  0.2748 -0.0472
21748W        W38009  14.598  10.416   3.507 -0.0453 -0.2130  0.0942
21749W        W38010   3.618   7.821   2.978 -0.1052 -0.0588 -0.0045
21750W        W38011  17.220  14.920   0.032 -0.0230 -0.1956  0.2036
21751W        W38012  11.737   6.242   2.415 -0.0059 -0.5222 -0.0349
21752W        W38013   7.368   2.670   3.530 -0.0518  0.1769  0.0549
21753W        W38014  18.542  15.463   0.640 -0.0748 -0.1538  0.2675
21754W        W38015  15.192   2.280   1.864  0.2981  0.4081 -0.0899
21755W        W38016   8.800   9.616  11.795  0.0920 -0.3633  0.2004
21756W        W38017  18.717  14.981   0.916 -0.0931  0.1252  0.2384
21757W        W38018  11.337  16.944   5.216 -0.1173  0.0820 -0.3409
21758W        W38019  16.424   1.618   1.027 -0.1019 -0.3248 -0.0447
21759W        W38020   9.289  14.507  12.009  0.2854  0.2326 -0.0464
21760W        W38021   7.052  14.708   4.832  0.4414 -0.0426  0.0983
21761W        W38022   6.143  18.130  15.315 -0.1008  0.0169 -0.0578
21762W        W38023  15.074   5.920  13.725  0.1993  0.1023  0.3408
21763W        W38024  16.288  12.350  13.837 -0.1949  0.2612 -0.2064
21764W        W38025  13.410  16.437  10.242  0.2594 -0.0363 -0.1269
21765W        W38026   8.099   0.904   1.607 -0.0140  0.1461  0.1730
21766W        W38027  15.865  17.312   4.643 -0.0209  0.0980 -0.5179
21767W        W38028   7.151   9.711  15.096 -0.0801  0.1674  0.3617
21768W        W38029   9.102   8.720  13.547  0.3266  0.4371  0.1329
21769W        W38030   5.702   3.623  12.903  0.1284 -0.0803  0.0444
21770W        W38031   3.032  16.961   4.471 -0.1373 -0.1992  0.1351
21771W        W38032   1.081   8.667  11.620  0.1514 -0.1808 -0.0041
21772W        W38033   2.973  17.762  13.868 -0.2216 -0.1865 -0.2135
21773W        W38034   4.586   4.691  14.591 -0.1205 -0.1444 -0.0322
21774W        W38035   3.698  11.411  12.061 -0.1881 -0.3032 -0.4239
21775W        W38036   7.046  14.184   2.522 -0.1004  0.1238  0.0753
21776W        W38037   9.315  17.291  10.957  0.2255  0.1882 -0.2190
21777W        W38038   0.261  13.071   5.115  0.0374 -0.3001  0.1946
21778W        W38039   5.509   2.410   0.690  0.0099  0.3838 -0.4905
21779W        W38040   4.287   2.228  12.994  0.0903 -0.1202 -0.1668
21780W        W38041   8.688  13.153   2.199 -0.3755  0.1031  0.0767
21781W        W38042   8.816   2.078  14.630  0.2462 -0.1829  0.0241
21782W        W38043  12.774  18.062   2.508 -0.1627  0.0226  0.1365
21783W        W38044  12.012  10.145   3.921 -0.1348 -0.1631 -0.0270
21784W        W38045   3.705   8.725  11.786  0.0045 -0.5247 -0.0048
21785W        W38046   7.146   1.979   1.087  0.0859  0.0614  0.0812
21786W        W38047  16.409   8.936   4.429 -0.0407 -0.0842  0.0154
21787W        W38048   5.030  11.386  11.680 -0.0327 -0.1915  0.0263
21788W        W38049  17.999   4.932  11.931 -0.5174 -0.2117 -0.0891
21789W        W38050   3.772   3.457   4.986 -0.0844 -0.1776  0.2351
21790W        W38051   9.553   0.220   0.534 -0.1176 -0.0372  0.0772
21791W        W38052   2.634  15.734  12.154 -0.3295 -0.1127  0.1346
21792W        W38053  10.728  14.563   4.578 -0.1661 -0.0962  0.1692
21793W        W38054   8.844   1.232   1.930  0.2231  0.0626 -0.4812
21794W        W38055   8.264  13.048   2.345  0.2186 -0.1374 -0.1298
21795W        W38056   2.685   6.985   1.758 -0.0351  0.2110  0.0204
21796W        W38057   1.752   2.760   2.274 -0.0685  0.2463  0.1232
21797W        W38058   9.115   5.101   5.992 -0.0155 -0.1092  0.3871
21798W        W38059   5.652  11.818  13.612  0.2028  0.0939 -0.1007
21799W        W38060   7.917  12.600  11.418  0.0664 -0.0542 -0.2151
21800W        W38061   8.098   8.271   0.580 -0.0358 -0.2264 -0.1729
21801W        W38062   3.140   9.388  13.934 -0.0511  0.2356 -0.1327
21802W        W38063   7.464  12.369   3.078  0.3038 -0.2404  0.0519
21803W        W38064  10.978   2.578  11.662 -0.1370  0.1200  0.3642
21804W        W38065  13.044  12.968  13.038 -0.0483  0.0714  0.0494
21805W        W38066   0.322   0.096  15.620 -0.1402  0.0745 -0.2350
21806W        W38067  13.366   5.804   5.199 -0.1333 -0.4335 -0.1449
21807W        W38068  17.981  12.682  12.010 -0.2248  0.1293  0.0399
21808W        W38069  11.723   0.031  14.492 -0.1348 -0.0049 -0.0413
21809W        W38070   3.358  15.924  14.882 -0.0301  0.4420  0.1510
21810W        W38071  16.756  14.678   4.118  0.0648  0.0138  0.2046
21811W        W38072   7.410  10.306   5.198 -0.2182  0.0273  0.1787
21812W        W38073  15.714   9.442   2.030 -0.3139  0.1357  0.5248
21813W        W38074  18.336   0.723  14.433 -0.1382  0.2409  0.0588
21814W        W38075  17.613  18.808   3.151  0.1656  0.3294 -0.0220
21815W        W38076   6.095   0.966   4.725 -0.0382 -0.0925  0.3669
21816W        W38077  17.104   3.656  12.890 -0.3795  0.0804  0.1331
21817W        W38078  15.702  10.540  14.984 -0.2359 -0.0847  0.1765
21818W        W38079  16.478  16.783  11.474  0.2254  0.0893 -0.1687
21819W        W38080   3.415  11.015  14.715  0.0679  0.1562 -0.1429
21820W        W38081   5.228   2.121   1.821  0.0745 -0.1079  0.0951
21821W        W38082   4.578  15.370  14.997 -0.0896  0.1057 -0.2073
21822W        W38083  14.385  17.759  12.458  0.3591 -0.0756  0.0929
21823W        W38084  13.175  16.202  14.938 -0.2680 -0.0738  0.0536
21824W        W38085  18.073   2.678   4.153  0.1790  0.0962 -0.1853
21825W        W38086  13.309   4.252  12.964 -0.3922  0.0099  0.0319
21826W        W38087   3.350   7.688  13.828  0.0542  0.1837  0.1891
21827W        W38088   2.822  11.848   2.123 -0.1717 -0.2343 -0.0588
21828W        W38089   2.698   9.056   3.512 -0.0268  0.3959 -0.0112
21829W        W38090  13.379  12.038   0.473 -0.2665  0.0791 -0.2160
21830W        W38091   4.664  16.253   1.924 -0.2792  0.3051  0.2178
21831W        W38092  13.257  14.307   1.023 -0.1082  0.2113  0.0728
21832W        W38093   9.309   3.628   1.821 -0.2383 -0.1788 -0.0433
21833W        W38094   4.074   0.465   1.399  0.0846 -0.1886 -0.0193
21834W        W38095   7.572  17.764  10.369  0.4315 -0.1894 -0.1666
21835W        W38096   5.823   4.538   2.948 -0.2395 -0.0091 -0.0954
21836W        W38097   9.852  18.562  14.245  0.0675  0.0044 -0.0295
21837W        W38098   0.199  13.909  12.279 -0.1209 -0.0396 -0.0888
21838W        W38099   4.655   2.297  15.607 -0.0219  0.1760 -0.2189
21839W        W38100  10.434   0.638  11.706 -0.1051 -0.1970  0.1155
21840W        W38101   8.485   1.829   6.072 -0.0080  0.1352  0.1295
21841W        W38102  14.158   4.597  15.074  0.1456  0.0545  0.1807
21842W        W38103   4.968   7.088   0.615 -0.1086  0.4512 -0.1868
21843W        W38104   4.422   2.313   0.930 -0.1913 -0.0957 -0.3245
21844W        W38105  18.227   1.169  10.103 -0.1433 -0.0413 -0.0489
21845W        W38106   8.759   9.528   3.240  0.1934 -0.1008  0.0092
21846W        W38107   5.628  13.692  12.877 -0.1539  0.3949  0.0811
21847W        W38108  17.203   5.564  14.813  0.1745  0.1629 -0.0506
21848W        W38109   3.106   1.051   1.604  0.1770 -0.4039 -0.1392
21849W        W38110   1.434  17.798  12.696 -0.3237  0.0596 -0.0164
21850W        W38111  11.541  11.980   4.428 -0.0688 -0.1699  0.3878
21851W        W38112  10.047   4.957   3.992  0.0757 -0.0604  0.0169
21852W        W38113   5.251  14.441  14.524 -0.0064  0.0454  0.2793
21853W        W38114  17.012  18.482   0.052 -0.1150  0.2592 -0.0209
21854W        W38115   3.833   4.972  15.289 -0.1076  0.2113  0.0516
21855W        W38116   4.808  17.425   4.468  0.2351  0.3857 -0.1362
21856W        W38117  13.172   1.770  14.984 -0.0426  0.5034  0.0456
21857W        W38118   6.626   5.513  14.845  0.0664  0.0419  0.1126
21858W        W38119  16.776   8.522   2.135  0.3177  0.0251 -0.0539
21859W        W38120   5.418  13.048  13.467  0.1505 -0.2698 -0.0681
21860W        W38121   6.382  18.706  13.399  0.2904  0.1391  0.1755
21861W        W38122  15.886  18.647   4.717 -0.2902 -0.1657 -0.2420
21862W        W38123  14.147  10.313   3.687  0.3073 -0.0953 -0.0417
21863W        W38124  14.321  18.559   2.259  0.0289 -0.2230  0.0195
21864W        W38125   5.793   9.166   3.809  0.2067 -0.3959 -0.1602
21865W        W38126   2.606   8.116   0.358  0.2378 -0.0808 -0.2251
21866W        W38127  13.571   3.024  11.538  0.3587 -0.1660 -0.4051
21867W        W38128   6.312  11.920  12.003  0.1476 -0.1887 -0.1575
21868W        W38129   0.590   8.296   4.294  0.2430 -0.0897 -0.1476
21869W        W38130   4.237  14.970   2.008 -0.1269  0.5891  0.0371
21870W        W38131  17.375  15.506  12.728  0.1755 -0.0707 -0.0728
21871W        W38132   7.914   6.618  13.171  0.0631 -0.0406 -0.3020
21872W        W38133   4.161   1.734  12.111  0.3064  0.2813 -0.3371
21873W        W38134   8.753   0.483   1.535  0.0645  0.0744 -0.0482
21874W        W38135  16.284   7.379  11.225  0.1870  0.1763 -0.5221
21875W        W38136  14.145  10.477   0.622 -0.1946 -0.0913  0.0651
21876W        W38137   5.746  10.689  15.151  0.0231 -0.3241  0.1551
21877W        W38138   9.904   2.384  11.896  0.3494  0.1225 -0.1339
21878W        W38139  12.105   7.311  15.201  0.2919  0.2436 -0.1720
21879W        W38140  11.857  11.413   2.692  0.1085  0.1812 -0.3212
21880W        W38141   4.763  10.560  10.645  0.1744  0.2325 -0.0895
21881W        W38142  15.137   0.283  14.994 -0.0161 -0.2028  0.0501
21882W        W38143   2.621   7.289  13.377  0.1597  0.0424 -0.3378
21883W        W38144   8.425   3.516  13.416  0.1161  0.2018 -0.0786
21884W        W38145   3.664   7.689  11.965 -0.1877 -0.1690  0.1071
21885W        W38146   1.959   4.651   2.170  0.0235  0.0977 -0.1456
21886W        W38147   9.223   6.871   3.243 -0.0508 -0.0355  0.1824
21887W        W38148   6.650  13.450  14.223  0.1731  0.0998  0.0981
21888W        W38149   9.102   9.166  15.504 -0.0217 -0.3735 -0.0684
21889W        W38150  14.692   0.211  14.716  0.0479  0.0196 -0.1114
21890W        W38151  11.851   3.629   2.016 -0.0077  0.0718 -0.0822
21891W        W38152  18.825   9.906  11.921 -0.3321 -0.1109  0.4052
21892W        W38153   6.162   7.178  12.989  0.0620  0.0793  0.1932
21893W        W38154  18.652   3.943   1.534  0.1840 -0.3875 -0.1457
21894W        W38155  15.401   5.616  13.114 -0.6445  0.1362 -0.1973
21895W        W38156   6.426  14.467   0.638 -0.1342  0.2618 -0.3867
21896W        W38157  17.066   8.434  13.452 -0.1328  0.0582  0.1816
21897W        W38158   0.168   9.605   3.291  0.3501  0.4637  0.0631
21898W        W38159  18.804   5.471   2.154  0.1636 -0.1193  0.0201
21899W        W38160  10.779   3.619  12.875  0.2517 -0.1178  0.0735
21900W        W38161   9.695  14.198  12.141  0.1666 -0.2397  0.0401
21901W        W38162   7.158   7.256  15.104 -0.0064  0.2594 -0.1076
21902W        W38163   6.046   0.925  15.130  0.1795  0.2518  0.0215
21903W        W38164  13.032  10.222  13.935  0.2029  0.0547 -0.1995
21904W        W38165  17.288   5.555  13.014  0.0043  0.0005  0.0010
21905W        W38166   4.926  15.780  11.874 -0.2805  0.0055 -0.0251
21906W        W38167   3.860  18.435   1.708 -0.1798 -0.3785 -0.2881
21907W        W38168   8.890   2.678   3.120 -0.0877  0.3437  0.0365
21908W        W38169   4.663   7.444  15.366  0.2955  0.0515  0.2252
21909W        W38170   6.726  10.269   4.455 -0.5382  0.0739  0.1368
21910W        W38171  10.346   1.406  12.678 -0.1739 -0.0537  0.3309
21911W        W38172   9.345  12.201  12.669 -0.0462 -0.2712  0.2684
21912W        W38173  18.492   0.247   4.855 -0.0365 -0.0927 -0.1510
21913W        W38174   9.253   7.091  11.744 -0.0170 -0.2488  0.1301
21914W        W38175   7.743  11.667  13.312  0.0526  0.1380  0.0872
21915W        W38176   6.389  15.377  14.339 -0.4245  0.1004 -0.1097
21916W        W38177  15.887   8.963  15.092 -0.2869  0.1099 -0.2960
21917W        W38178   9.786   8.974   3.208  0.0744  0.1405 -0.0091
21918W        W38179  16.401  13.754   3.517 -0.1412  0.1570  0.0344
21919W        W38180   8.692   0.311  13.100  0.0184 -0.2350 -0.0297
21920W        W38181  16.923   8.540  12.421  0.0181 -0.0223 -0.1408
21921W        W38182   2.145  17.293  11.475 -0.0165  0.3962 -0.0235
21922W        W38183  13.148  10.493  15.255  0.2964 -0.4303 -0.3756
21923W        W38184   5.348   5.827   0.051 -0.0171  0.1056 -0.2538
21924W        W38185  14.907  14.870   1.993 -0.0560  0.2772 -0.3274
21925W        W38186  11.835  11.451  10.863 -0.2620 -0.2466  0.3094
21926W        W38187   4.573   4.170   3.765  0.0374 -0.1119  0.2793
21927W        W38188   1.458  14.801  14.217 -0.1727 -0.0301  0.2276
21928W        W38189   8.354   0.692  14.076  0.0342 -0.0176 -0.2287
21929W        W38190   7.275  17.469   1.838  0.0546 -0.1834 -0.2144
21930W        W38191   0.037   7.826   6.000  0.1497 -0.1232 -0.0738
21931W        W38192   5.115   3.608   5.189  0.0225  0.1708  0.3318
21932W        W38193   6.220  13.860   3.020  0.1763  0.0280 -0.2111
21933W        W38194  16.626  13.120   1.102  0.0425 -0.0626 -0.1096
21934W        W38195   2.928   7.318  12.391  0.0948 -0.1383  0.1062
21935W        W38196  10.981   2.004   2.739 -0.2559  0.0296  0.1292
21936W        W38197   1.694  15.186   3.834 -0.1979  0.1580  0.2647
21937W        W38198   9.340   4.471  12.060 -0.1115 -0.3550  0.1152
21938W        W38199  15.832  11.697   0.219 -0.2701  0.0820  0.0534
21939W        W38200  17.559  17.359  12.377 -0.2697 -0.0921  0.0299
21940W        W38201   1.855   4.573   1.538 -0.1581  0.1042  0.0707
21941W        W38202   1.194  10.134   2.698 -0.1817 -0.0299  0.0302
21942W        W38203   4.828  14.063  14.612  0.0917  0.0143 -0.0040
21943W        W38204  11.597  15.828   2.734  0.0933 -0.0423  0.3186
21944W        W38205   9.751   4.857   1.239  0.1006  0.0013  0.4344
21945W        W38206   8.180  10.053  14.761 -0.3085  0.4606  0.2251
21946W        W38207  14.293   4.134  14.105 -0.1046  0.1800  0.1142
21947W        W38208   9.143   9.297  14.420 -0.2587  0.1498  0.2737
21948W        W38209  14.576   0.574  15.611 -0.2414 -0.1312 -0.0015
21949W        W38210  18.379   6.977  14.930 -0.2919  0.1377 -0.0845
21950W        W38211  17.424  11.674   3.712  0.3690 -0.0816 -0.0589
21951W        W38212  10.827  18.635   3.774  0.1714 -0.3074  0.2132
21952W        W38213   9.132  13.433  14.748  0.0676 -0.1035  0.0330
21953W        W38214   4.781   3.219   5.284  0.1773  0.0808 -0.0890
21954W        W38215   3.873  14.363  14.398  0.0572 -0.3378 -0.1167
21955W        W38216  15.448   0.645   2.316 -0.0118  0.0203 -0.0429
21956W        W38217   3.714   9.467   3.696 -0.0254  0.0294 -0.1518
21957W        W38218   1.372  18.052  15.355  0.0647 -0.0654 -0.0603
21958W        W38219  17.289   1.653   2.478  0.1888  0.1314  0.1944
21959W        W38220  13.653   0.006  11.452 -0.3400 -0.2123  0.2357
21960W        W38221  13.237   2.244  14.218 -0.1759  0.0580  0.1166
21961W        W38222  13.265   5.270  14.029 -0.0662 -0.0991 -0.4207
21962W        W38223  14.499   4.441   0.264  0.2555 -0.0480  0.2791
21963W        W38224  16.519   0.223  12.078 -0.2227 -0.1008 -0.0318
21964W        W38225   3.112   6.848  12.310  0.1052  0.0681 -0.2477
21965W        W38226  18.517  12.097  15.587  0.3395  0.3953 -0.1384
21966W        W38227   4.015  16.074   4.467 -0.1380 -0.2615 -0.3027
21967W        W38228   8.913  10.048  14.372 -0.3389  0.2933 -0.0088
21968W        W38229   3.715   5.500  14.357  0.5829 -0.3814 -0.0890
21969W        W38230  16.712   8.131   4.980  0.2066  0.0468 -0.0433
21970W        W38231  17.345   9.872  11.872  0.0853 -0.0360 -0.1123
21971W        W38232   8.418   7.922   0.289 -0.1433 -0.0201  0.1467
21972W        W38233   8.906   4.747   4.532 -0.0171 -0.0926  0.1015
21973W        W38234   0.164   4.258   3.616 -0.3417  0.2166  0.2128
21974W        W38235  16.632  14.195  11.379  0.1259 -0.2672  0.2348
21975W        W38236  14.878   2.601   5.064  0.1433 -0.2765 -0.1062
21976W        W38237   7.866   7.841  11.947 -0.1356  0.2564 -0.4003
21977W        W38238  10.130   8.340   0.244 -0.1603 -0.1535 -0.1121
21978W        W38239  14.691  15.991  12.423  0.2184  0.0392 -0.2455
21979W        W38240   7.057   6.459  14.515  0.0856 -0.0078  0.0937
21980W        W38241  10.493  13.932  11.191  0.4884  0.2643  0.3900
21981W        W38242   7.025  17.317  14.786 -0.1358 -0.0115  0.3356
21982W        W38243   4.243  18.309  12.917  0.1134 -0.1063 -0.0893
21983W        W38244   2.067  11.520  14.596 -0.1941  0.0785 -0.2203
21984W        W38245   2.384   4.443   1.583 -0.0564  0.2419 -0.3481
21985W        W38246   4.256  18.246  11.476  0.3753  0.2433 -0.1058
21986W        W38247  11.427   8.168  14.226 -0.0936  0.0310  0.3953
21987W        W38248  13.117  15.935   2.854  0.0672 -0.2019  0.2508
21988W        W38249  11.064   4.271  11.576  0.0003  0.1771  0.1187
21989W        W38250   8.434   7.533  14.594  0.3440  0.0903 -0.0339
21990W        W38251  13.012   4.997   2.176 -0.0380 -0.3374 -0.0702
21991W        W38252   4.712  12.557   1.027  0.1923  0.0105 -0.2403
21992W        W38253  13.201  18.075  14.713  0.0735  0.2609  0.2519
21993W        W38254   0.943   0.166   4.726 -0.2254 -0.0365  0.2018
21994W        W38255   8.669   4.014  12.539 -0.0065  0.3023  0.1228
21995W        W38256   8.581   3.365  12.943  0.1158  0.1473 -0.0477
21996W        W38257  17.674   3.987  11.243 -0.0196  0.3316 -0.3191
21997W        W38258  10.617  10.267   3.490  0.0943  0.0585 -0.0529
21998W        W38259   6.191  11.476   1.485  0.1556  0.0861  0.0586
21999W        W38260  13.400   5.278   3.885 -0.0236  0.2273  0.0171
22000W        W38261   4.423   3.686  15.302  0.3398 -0.2177 -0.3442
22001W        W38262  10.359  15.382  11.375  0.0962  0.2172 -0.0600
22002W        W38263   8.654   0.419  13.775  0.0800 -0.2137 -0.0258
22003W        W38264   3.146  17.034  13.518  0.0317 -0.1747 -0.0235
22004W        W38265  17.890  18.281   0.133  0.3584  0.2584  0.0415
22005W        W38266   8.117  16.380  11.132 -0.0771  0.1261 -0.0359
22006W        W38267   7.474  18.466   5.399 -0.2051  0.0950 -0.1783
22007W        W38268  10.504   4.263   4.130  0.0145 -0.0015 -0.4657
22008W        W38269   7.427  18.797   1.579  0.0837  0.0498 -0.0970
22009W        W38270  17.975  10.517  15.381  0.0726  0.4209  0.3442
22010W        W38271  12.968  10.256  11.902 -0.0007 -0.0386  0.0411
22011W        W38272  11.445   7.119  12.122  0.0726 -0.1511 -0.1810
22012W        W38273  17.536   9.445   4.761  0.2349  0.1643  0.0453
22013W        W38274   5.945   4.559   3.439 -0.0056  0.0741  0.2048
22014W        W38275  10.029   2.256  12.857 -0.1929  0.1341  0.0205
22015W        W38276   8.384  10.009  11.816  0.1360  0.0703 -0.1962
22016W        W38277   5.544  12.440  14.379  0.1774  0.0943 -0.1630
22017W        W38278   4.902   0.756  15.463  0.2987  0.0084  0.1324
22018W        W38279   3.964  14.892  14.575  0.0755 -0.1723  0.0088
22019W        W38280   2.483   0.808   3.010 -0.1536 -0.3593  0.1335
22020W        W38281  17.166  10.094   2.111 -0.1685  0.0004  0.0280
22021W        W38282   9.047   2.555  15.208  0.1320 -0.0431  0.0450
22022W        W38283  13.162   8.585  12.757  0.2401 -0.1049  0.2143
22023W        W38284  14.527   8.302  12.595 -0.0148  0.1077  0.3404
22024W        W38285   1.801   5.700  12.516  0.0282 -0.1628  0.1524
22025W        W38286  11.586   3.371  13.196 -0.0327  0.0307  0.1105
22026W        W38287  16.429   3.575   4.019 -0.2787  0.0304 -0.1258
22027W        W38288   3.563  16.416  12.910  0.3049 -0.0578  0.1746
22028W        W38289   2.869   5.881  13.392  0.0481  0.1749  0.0635
22029W        W38290   2.023  12.806  13.301 -0.1090 -0.0575  0.1651
22030W        W38291  10.540  16.856   2.360  0.4361  0.0686  0.1234
22031W        W38292   5.786  13.176   3.434 -0.2001 -0.2514  0.0636
22032W        W38293  13.272   6.199  10.969  0.0317 -0.0673 -0.2811
22033W        W38294   0.473  14.400   0.962  0.2258  0.0305 -0.0510
22034W        W38295  10.310  12.457  10.617 -0.2610  0.3504 -0.0908
22035W        W38296   0.550   2.642   4.192  0.0970 -0.0196 -0.1180
22036W        W38297   1.164   2.626   5.477 -0.1450 -0.1295  0.4525
22037W        W38298   3.990   6.914  11.141 -0.0063 -0.2407  0.2561
22038W        W38299  18.373  16.804  12.833  0.4479 -0.1147  0.0425
22039W        W38300  10.347  16.026   1.870 -0.3870  0.0683  0.0948
22040W        W38301   9.003  14.694   4.408 -0.0460  0.0333 -0.0229
22041W        W38302  16.774   3.584  12.143 -0.2089 -0.0674  0.0011
22042W        W38303  14.686   7.059  11.086  0.5521 -0.0624 -0.0814
22043W        W38304  16.046  16.127   1.316  0.0709 -0.0053 -0.1425
22044W        W38305  12.280  10.707  13.812  0.2923 -0.1905  0.0834
22045W        W38306   9.641  14.462   1.325  0.2265  0.3241  0.2540
22046W        W38307  15.056  10.787   1.842  0.1410 -0.1003  0.1921
22047W        W38308  16.879  17.831   4.381  0.2043  0.0167 -0.1297
22048W        W38309   0.643  17.457  11.378  0.1590  0.1402  0.1931
22049W        W38310  15.062   0.493  13.221  0.1040  0.0697 -0.0044
22050W        W38311   6.338   7.968   2.906  0.1086  0.0657  0.3451
22051W        W38312   5.421  15.092   4.496  0.0213 -0.0549 -0.1490
22052W        W38313   6.909  17.065   4.924  0.0811  0.0401  0.1264
22053W        W38314  18.591  12.716   9.875  0.1579  0.2424 -0.0475
22054W        W38315  17.722   9.846   0.409 -0.4443  0.1634  0.0218
22055W        W38316  10.193   3.761  13.254  0.6241 -0.0324 -0.0387
22056W        W38317   5.244   0.285  13.285 -0.0136 -0.2703 -0.0204
22057W        W38318  17.459  10.147  13.596 -0.0430 -0.2866  0.2409
22058W        W38319   7.701  14.823   2.308 -0.0828 -0.1857 -0.1234
22059W        W38320   1.441  10.633   4.159  0.1301 -0.1704  0.1125
22060W        W38321  14.262   1.203   9.755  0.0233 -0.0669  0.0497
22061W        W38322   1.546   8.634   0.946 -0.0478  0.2099  0.1259
22062W        W38323   5.179  10.891  15.642  0.0508  0.1808  0.1425
22063W        W38324   5.510   7.626  14.245  0.0966 -0.3157  0.0294
22064W        W38325  12.570   2.733   1.774  0.1101  0.0458  0.3062
22065W        W38326  18.789  13.001  11.343  0.0548 -0.2439 -0.2115
22066W        W38327   0.194  13.571   1.760 -0.0858  0.0370 -0.3731
22067W        W38328  13.703  12.180  12.974  0.0201 -0.0493  0.0861
22068W        W38329   4.316   9.783   4.360  0.0773 -0.1803 -0.1031
22069W        W38330   4.948  15.135  13.386  0.2764  0.2047  0.0180
22070W        W38331  10.522   7.354  10.402  0.0386  0.2112  0.0357
22071W        W38332   3.742   2.800   4.023 -0.0252  0.0918 -0.1045
22072W        W38333  12.536   5.515   4.235  0.0455  0.0689 -0.0323
22073W        W38334   6.690  13.607   0.461 -0.0039  0.2528 -0.4318
22074W        W38335  16.155   3.710   0.127  0.1882 -0.0414  0.0837
22075W        W38336  10.100  12.263   1.636 -0.1223  0.1194 -0.2858
22076W        W38337   0.567   0.389   4.539  0.4308  0.1677 -0.1577
22077W        W38338  14.485   8.174  10.349  0.1649 -0.0338 -0.0903
22078W        W38339   7.403  11.770  12.345 -0.2441  0.1577  0.0289
22079W        W38340   3.948   1.007   4.787 -0.2794 -0.3569  0.2405
22080W        W38341   0.995   6.781   3.048 -0.3831  0.0876  0.2346
22081W        W38342  17.734   4.200  11.699 -0.0662 -0.2538 -0.1114
22082W        W38343  16.027  14.757   0.528  0.0917 -0.1291  0.3188
22083W        W38344   7.808   1.345   4.615  0.0920 -0.1165  0.1180
22084W        W38345   8.438   0.368   0.618  0.0738  0.2395  0.3057
22085W        W38346   9.909  17.510   0.709  0.0974  0.0582 -0.2266
22086W        W38347  13.284  13.331  11.585 -0.1019  0.1504 -0.1372
22087W        W38348   4.720   5.059  11.590 -0.1913 -0.0261 -0.2502
22088W        W38349   2.351   9.963   2.568  0.1967 -0.2682  0.1289
22089W        W38350  11.710  16.967   2.173 -0.2103  0.0026 -0.2943
22090W        W38351  13.655   1.091   2.005  0.1667  0.0953  0.1114
22091W        W38352  14.386  17.522  13.185  0.0808 -0.0062  0.0776
22092W        W38353  18.827  13.777  14.046  0.0791 -0.0153 -0.1616
22093W        W38354   7.112  18.410  12.577  0.0596 -0.0225 -0.3552
22094W        W38355  16.475  10.085  14.943 -0.1478  0.1017  0.0500
22095W        W38356   2.677   8.379   4.118 -0.0687  0.0039  0.0538
22096W        W38357   4.672   5.504   4.010 -0.2780 -0.3159  0.2309
22097W        W38358  11.725  11.379  10.323  0.0350 -0.0526 -0.0644
22098W        W38359  14.649  14.740  15.530  0.0751 -0.1423 -0.2950
22099W        W38360   5.417   4.261   2.921 -0.4632  0.2499 -0.0870
22100W        W38361  17.074   9.228   4.660  0.1454  0.2008  0.0213
22101W        W38362   5.777   8.257   0.689  0.2008 -0.0574 -0.1504
22102W        W38363  12.841  12.332  10.879 -0.1861 -0.0143 -0.2665
22103W        W38364  17.787   8.130   0.784 -0.2428 -0.1339  0.4003
22104W        W38365   0.406  15.582   4.724  0.0299  0.0186  0.0389
22105W        W38366  14.788   6.043   2.595 -0.0773  0.0857 -0.1945
22106W        W38367  11.310  13.972  14.583  0.0438  0.0068 -0.0611
22107W        W38368   4.632  12.035   5.125  0.2239 -0.0964  0.2084
22108W        W38369   8.806   1.392   1.065  0.2589  0.4385 -0.3118
22109W        W38370  15.084   8.265   0.888  0.1389 -0.0956 -0.1561
22110W        W38371  16.767   1.703   3.550 -0.1531  0.3429 -0.3739
22111W        W38372   8.727   7.391  11.809  0.1840 -0.2188  0.0306
22112W        W38373   7.379   0.881  10.955 -0.1801 -0.4235  0.1813
22113W        W38374   6.714   5.272   4.185  0.2168 -0.3453 -0.1303
22114W        W38375   6.788   1.904  14.326 -0.1441 -0.1139 -0.1058
22115W        W38376  10.730  11.287  11.109  0.1870 -0.4727  0.0416
22116W        W38377   6.489  16.954  11.315 -0.0358  0.0711  0.2862
22117W        W38378  17.613  16.446  11.687 -0.0497 -0.0378  0.4126
22118W        W38379   0.679  15.755   1.794 -0.1451 -0.0058 -0.0089
22119W        W38380   9.790  13.217   1.960  0.0305  0.1551 -0.0868
22120W        W38381   3.695  14.792   4.836  0.0043 -0.0531 -0.0974
22121W        W38382   5.380   5.859   2.608  0.0384 -0.3036 -0.0689
22122W        W38383   9.569   6.444   0.584 -0.0681  0.0585  0.0278
22123W        W38384   6.998  12.852   0.010 -0.3381 -0.1844 -0.4635
22124W        W38385  14.566  18.795   1.525 -0.2207  0.2062  0.0161
22125W        W38386  18.797  17.805  11.581  0.1265 -0.0960  0.3567
22126W        W38387   9.991  17.855   4.528  0.1717  0.4912  0.1356
22127W        W38388   5.033   6.638   1.317 -0.4157 -0.0206 -0.1708
22128W        W38389  12.810  10.024  11.501  0.2000  0.3119 -0.0934
22129W        W38390  10.164   3.671   3.117 -0.0442 -0.3269  0.0961
22130W        W38391   8.243  13.356   0.069  0.0127  0.0253 -0.0761
22131W        W38392   1.439   0.256  13.769  0.0076 -0.1985  0.0737
22132W        W38393  16.428   0.934  14.837  0.4359  0.3504  0.0299
22133W        W38394   0.093   5.724  14.906 -0.0256 -0.0374  0.0860
22134W        W38395   5.979   8.877   4.843  0.1178 -0.2570 -0.2524
22135W        W38396   2.192  15.961  11.430 -0.2899 -0.0913 -0.3262
22136W        W38397  13.386   3.051   4.653 -0.5853  0.1636  0.0123
22137W        W38398  15.423   1.471   1.904 -0.1399 -0.1069  0.0736
22138W        W38399  12.222   2.597   2.119  0.1039  0.1195  0.1219
22139W        W38400  14.574  14.024  10.615  0.1424  0.0143 -0.0300
22140W        W38401   8.621   9.556   6.013  0.1606  0.0884  0.0953
22141W        W38402  12.490   9.946   4.283  0.1507  0.1104 -0.1817
22142W        W38403   0.117   1.698   3.775 -0.3951 -0.1225 -0.2719
22143W        W38404  18.141  17.131   1.997 -0.1253  0.0283  0.4883
22144W        W38405   8.358  18.783  10.921  0.0137  0.0730 -0.0948
22145W        W38406  11.422  16.447   2.256  0.2406  0.2562 -0.1303
22146W        W38407  15.130   4.769   1.621  0.1899 -0.0728 -0.0414
22147W        W38408  17.137  13.798   0.600 -0.2353  0.0451 -0.0994
22148W        W38409  14.981   3.937   1.450 -0.1016 -0.3621  0.3186
22149W        W38410  15.257  13.894   4.235  0.0632  0.2475  0.0892
22150W        W38411   7.654   2.730   1.620  0.3458 -0.0150 -0.1727
22151W        W38412  17.252   4.606  15.339 -0.0728 -0.1830  0.0829
22152W        W38413  10.345   6.170   1.392 -0.0603  0.4391 -0.1168
22153W        W38414  14.112   5.479   3.291 -0.0675  0.1735  0.0047
22154W        W38415   9.447  17.304  15.320  0.1797  0.0832 -0.0800
22155W        W38416   4.794   0.897   5.565  0.0169 -0.0743 -0.1679
22156W        W38417  12.538  17.945   2.980 -0.1429  0.0488 -0.0996
22157W        W38418  14.125   1.992  11.957  0.1773 -0.1060 -0.1205
22158W        W38419   0.737   6.467  13.955 -0.1259 -0.1463  0.3194
22159W        W38420   2.461   0.066   1.047  0.1825 -0.3757  0.0886
22160W        W38421   5.232   6.097  13.058 -0.0195  0.0182 -0.0295
22161W        W38422   1.085  17.479   1.315  0.1370  0.3643 -0.0114
22162W        W38423  15.935  13.472  12.152 -0.2151 -0.0545  0.3803
22163W        W38424  10.148   9.551   0.812 -0.3608  0.3456  0.0519
22164W        W38425   3.407   4.844  14.019 -0.0261  0.1014 -0.0362
22165W        W38426   8.690  12.208  11.941  0.1432  0.0383  0.0153
22166W        W38427   2.216   7.894  12.658 -0.0539  0.1522  0.0007
22167W        W38428  18.217   4.854   4.488  0.1177  0.0379  0.3574
22168W        W38429  16.770  11.595   2.895 -0.1027 -0.0575 -0.1916
22169W        W38430  11.335   2.950  11.522 -0.3136 -0.0738 -0.0137
22170W        W38431  12.394   7.629   9.477 -0.1888 -0.3818  0.2622
22171W        W38432   7.980   6.150   6.728  0.0121 -0.0098  0.2093
22172W        W38433   7.539   2.865   1.160  0.0440 -0.0861  0.0094
22173W        W38434   9.107   3.384  14.914 -0.0755  0.1733  0.2051
22174W        W38435   8.771  16.623   9.968  0.2850  0.0957 -0.3408
22175W        W38436   8.070   4.657  12.508 -0.1952  0.0063  0.0265
22176W        W38437  12.771   8.018  15.259 -0.0823  0.0872  0.2324
22177W        W38438   5.044  14.326   0.029 -0.0174  0.2949 -0.1628
22178W        W38439   5.460   2.442  13.009 -0.0627 -0.1201  0.2876
22179W        W38440   6.003   1.783   1.543 -0.2122  0.3200 -0.1903
22180W        W38441   9.650   7.342  13.183 -0.2103  0.1881  0.2043
22181W        W38442   7.550  13.666   3.353 -0.3747 -0.0228 -0.4134
22182W        W38443  16.418   9.423  13.341 -0.1924 -0.0541 -0.3689
22183W        W38444  12.348   6.834   4.091  0.1669  0.0905  0.0024
22184W        W38445   2.245   1.671   2.992  0.0871 -0.0977  0.1172
22185W        W38446  12.472  14.584  11.977 -0.0259 -0.1888 -0.0039
22186W        W38447  13.065  11.794  15.319  0.0426  0.2429 -0.0447
22187W        W38448   7.542  17.016  12.824 -0.2851  0.2742 -0.2882
22188W        W38449  16.971  16.257   2.341  0.2080  0.1243  0.2323
22189W        W38450  14.898   4.637   0.614  0.0838 -0.0075 -0.1110
22190W        W38451  18.563   7.061  11.616 -0.0245  0.0046 -0.0605
22191W        W38452   7.115  14.780   0.188 -0.1307  0.1096  0.0465
22192W        W38453  13.513   4.023   1.533  0.0044 -0.0979 -0.3950
22193W        W38454   2.624   1.867   4.183  0.1624  0.0070 -0.0254
22194W        W38455   0.457   5.326   3.883  0.1101 -0.0541  0.0978
22195W        W38456   1.240   0.707  14.550 -0.2865 -0.0274 -0.0846
22196W        W38457   2.960  13.542   0.123  0.1950 -0.0639 -0.1141
22197W        W38458   1.743  18.225   0.120  0.1127 -0.0927  0.2924
22198W        W38459  10.431  15.050   2.797  0.2687 -0.1185  0.0962
22199W        W38460   4.442  16.655   4.934  0.2254 -0.0690 -0.0613
22200W        W38461   7.221  13.894  13.476 -0.0753  0.2794  0.0081
22201W        W38462   1.014   2.932  15.156 -0.2633  0.0924  0.2535
22202W        W38463  10.964  12.776   1.922  0.0894 -0.0319  0.1649
22203W        W38464   2.215  15.275   1.180 -0.1674 -0.0212  0.1083
22204W        W38465  18.483   2.319   4.958 -0.3151  0.1037 -0.2129
22205W        W38466   3.964   2.920  11.361 -0.1854 -0.3012 -0.1144
22206W        W38467   9.382   7.606  15.351  0.0918  0.0958  0.0935
22207W        W38468  11.385   4.109   0.179 -0.2572 -0.1828 -0.0251
22208W        W38469  15.305  15.856  15.645 -0.3086  0.3576 -0.2306
22209W        W38470  17.630   7.073   1.397  0.0783 -0.4148 -0.3406
22210W        W38471  18.436   0.764   2.815 -0.0404  0.0943  0.1862
22211W        W38472  15.138   9.202   0.454 -0.3479 -0.0133 -0.2997
22212W        W38473  14.671   7.560  14.527 -0.0705  0.2008  0.2290
22213W        W38474  10.516  15.338   1.583 -0.1210  0.2301 -0.0143
22214W        W38475   1.700  11.081  13.342 -0.1140  0.1979 -0.0548
22215W        W38476   5.849   5.693  11.532  0.2110 -0.1020 -0.0132
22216W        W38477   0.846   4.222   2.630  0.0840 -0.3257  0.0691
22217W        W38478   6.607   8.535  13.100 -0.2412 -0.0042  0.3083
22218W        W38479   5.261   2.112   5.335 -0.0012 -0.0146 -0.0949
22219W        W38480   5.213   2.130   2.969 -0.3245  0.0602  0.4486
22220W        W38481  18.642  10.295  14.373 -0.1179 -0.1499 -0.0079
22221W        W38482   0.107   0.615   2.678  0.2175  0.0121 -0.0297
22222W        W38483   9.643   7.680  14.156 -0.1784 -0.1480  0.0949
22223W        W38484  10.337   0.937  13.351  0.1123 -0.1567  0.2865
22224W        W38485   3.890   3.687  11.936  0.2873 -0.1405  0.0461
22225W        W38486  13.117  15.405   3.671  0.3503  0.1881 -0.1231
22226W        W38487  12.722  10.671   3.765 -0.1065  0.3457 -0.4204
22227W        W38488  18.075   4.485   3.432  0.0653 -0.0179 -0.0299
22228W        W38489   8.674   8.384   0.469 -0.0903 -0.1095  0.2783
22229W        W38490  12.335   6.812  11.955  0.0046  0.2103  0.0720
22230W        W38491  13.815   8.320   4.076 -0.3317 -0.6060 -0.2108
22231W        W38492  10.311  16.215  12.045 -0.1711 -0.0177  0.0380
22232W        W38493  10.501   1.618   1.522 -0.2805  0.3628 -0.1461
22233W        W38494   4.756   3.903  14.923  0.1982 -0.0179 -0.0154
22234W        W38495  16.051  13.303   2.756 -0.3446 -0.5159 -0.0831
22235W        W38496  11.591   0.708  11.057  0.1668 -0.1566 -0.1744
22236W        W38497   9.801  12.462  14.486 -0.3063  0.1525  0.0402
22237W        W38498   0.511  15.428  14.039 -0.1590  0.1763 -0.0483
22238W        W38499  16.632   8.103  15.469 -0.1840  0.3615  0.1422
22239W        W38500  11.216   0.063   0.495 -0.0305 -0.1380 -0.1787
22240W        W38501  11.633   1.414  12.272  0.1652 -0.0268  0.1777
22241W        W38502  11.038  16.709  14.824  0.1583 -0.0929 -0.1523
22242W        W38503  14.151  12.388  14.977 -0.2201  0.1022 -0.2505
22243W        W38504   0.568   7.338  13.282 -0.0384  0.1079 -0.1256
22244W        W38505  15.637  11.919  12.352  0.0357  0.1491  0.2037
22245W        W38506  10.611   1.072   1.915  0.2056  0.0470 -0.0267
22246W        W38507  15.470  14.202   4.595 -0.1411 -0.2368  0.1352
22247W        W38508  13.725  15.849  12.854  0.2687 -0.0508  0.2316
22248W        W38509   3.189  10.816  12.998  0.1748  0.0313 -0.0744
22249W        W38510  14.846   7.621   1.739  0.0576 -0.0181 -0.2343
22250W        W38511   8.582   7.964   0.765  0.1145 -0.0077 -0.3348
22251W        W38512  13.307  11.024   2.919  0.0533  0.2257 -0.0589
22252W        W38513  15.486   0.418   3.445 -0.0675  0.1206  0.0592
22253W        W38514  15.545  16.932   4.781 -0.2995 -0.1270  0.2971
22254W        W38515  18.247   6.396  15.514 -0.1121  0.0302  0.2732
22255W        W38516   1.968   4.049  14.276 -0.1668 -0.0107 -0.1519
22256W        W38517   7.542   7.633  14.159 -0.1073 -0.1376 -0.1740
22257W        W38518  11.782   3.025   4.510  0.1950 -0.1704 -0.0073
22258W        W38519  15.872  11.764  14.959 -0.1990  0.0853  0.0158
22259W        W38520  15.730   9.375  14.765  0.1362  0.1878  0.1057
22260W        W38521   5.165  13.896  11.173  0.0007 -0.1183 -0.1297
22261W        W38522   3.708   5.117  13.283  0.1112 -0.2421 -0.2011
22262W        W38523  14.798   5.483   5.327  0.0361 -0.1820  0.1609
22263W        W38524  11.795  16.862  15.194 -0.4620 -0.0876 -0.1508
22264W        W38525  17.351   1.418   0.185  0.2284 -0.1604  0.3666
22265W        W38526   0.426  17.836  12.950  0.1350 -0.0010 -0.0814
22266W        W38527  14.229  11.316   1.053  0.1707  0.5176  0.2299
22267W        W38528  15.499   4.601  11.724 -0.2616  0.0784  0.1401
22268W        W38529  17.110  13.474   1.927 -0.5415  0.3237 -0.3197
22269W        W38530   3.723   6.041  12.731  0.1072  0.0565  0.3009
22270W        W38531  13.153  17.311   1.187 -0.1539 -0.0995 -0.2149
22271W        W38532  15.209  15.950   3.425  0.1628  0.0575 -0.2884
22272W        W38533   2.967   2.217   4.334 -0.0725  0.0398 -0.1302
22273W        W38534  17.730   4.939   3.548 -0.0074  0.0937  0.1514
22274W        W38535   1.673  13.450  12.065  0.3771 -0.1085  0.0815
22275W        W38536   4.880  13.245  13.567  0.1117  0.2330 -0.2383
22276W        W38537  12.541  18.827   4.042 -0.0373 -0.1714 -0.4282
22277W        W38538   2.438   9.159  14.470  0.0335  0.0427  0.1341
22278W        W38539  12.942   2.358   2.508 -0.3361  0.1304 -0.1369
22279W        W38540   3.516   0.492  11.144 -0.0363  0.0465  0.1581
22280W        W38541   6.818   9.639   3.050  0.1094 -0.0927 -0.3020
22281W        W38542  10.562  13.234   4.075  0.0999  0.1386 -0.3672
22282W        W38543  18.756   1.379   0.394 -0.1374  0.1103 -0.1803
22283W        W38544   7.671   0.257  12.863 -0.2259 -0.1559 -0.0935
22284W        W38545  13.868  16.096   5.329 -0.0497  0.0426 -0.1571
22285W        W38546   1.855  10.845  11.183 -0.2439 -0.2972 -0.0407
22286W        W38547  11.562   4.336   4.024 -0.0764  0.2200 -0.0713
22287W        W38548  13.153   5.032  14.875 -0.1431 -0.4038  0.1383
22288W        W38549  17.404  11.366  11.854  0.3197 -0.2641  0.3971
22289W        W38550  17.035   7.867   1.106  0.0056 -0.0810 -0.1698
22290W        W38551  11.989   0.083   0.141 -0.1597  0.1017  0.1167
22291W        W38552  11.382  10.226  12.720  0.0148  0.1821 -0.0938
22292W        W38553   3.952   6.719   2.856 -0.0238  0.1205 -0.1561
22293W        W38554  12.546   1.417   0.049  0.1462 -0.0243 -0.0055
22294W        W38555  14.712  14.375   0.696 -0.4574 -0.0081 -0.2572
22295W        W38556  13.269  18.225  10.908  0.0052 -0.0897 -0.2992
22296W        W38557  12.232  14.183  11.300  0.1996 -0.0820  0.4706
22297W        W38558   9.723   1.627   1.127 -0.0052 -0.1000 -0.0995
22298W        W38559   2.302  15.118   2.256 -0.0969 -0.1839 -0.0225
22299W        W38560  11.641  14.454   3.016 -0.0458  0.0339  0.2626
22300W        W38561   8.818   5.059   4.066  0.3464  0.2362 -0.1214
22301W        W38562   0.993  11.120   0.863 -0.1146  0.2769 -0.1548
22302W        W38563  14.175   8.749  15.117  0.0154  0.0610  0.0513
22303W        W38564  13.366  16.441   4.862 -0.0858 -0.1055  0.1618
22304W        W38565  11.087   8.851  15.412  0.1162  0.0796  0.1598
22305W        W38566   8.837   3.964  14.243 -0.1018  0.0519  0.0802
22306W        W38567  16.319  16.481   3.192 -0.0282  0.1008 -0.0435
22307W        W38568  13.472   2.199   4.396  0.0853 -0.3382  0.4353
22308W        W38569   4.992   5.647  12.831 -0.3534  0.0467 -0.0170
22309W        W38570  18.526  14.192  11.842  0.0836  0.0110 -0.0945
22310W        W38571   6.811  17.492  12.441  0.4668  0.1193  0.2965
22311W        W38572   9.986   7.784  13.291 -0.1184  0.0782  0.0369
22312W        W38573   2.474   8.257  14.684  0.0428  0.0442  0.0007
22313W        W38574   3.085  18.784   1.934  0.1472 -0.1609 -0.2024
22314W        W38575  11.722  14.147   2.619  0.3398  0.0363 -0.1155
22315W        W38576  12.417  16.067  13.339 -0.0283 -0.1089 -0.1324
22316W        W38577   2.950  16.370  12.198 -0.0131  0.0264  0.0235
22317W        W38578   4.585   2.375   3.510  0.0755  0.0702  0.1909
22318W        W38579  15.671  10.041   2.018 -0.3545 -0.0207 -0.1012
22319W        W38580   5.292   1.163   1.395 -0.2248 -0.3215 -0.1737
22320W        W38581   0.749   3.359  11.773  0.2094 -0.3367  0.0191
22321W        W38582  17.322  18.479   2.181 -0.1064  0.0740  0.0580
22322W        W38583  10.944   7.384  11.217  0.0705 -0.0639  0.0638
22323W        W38584  14.413  14.966   1.269  0.1887 -0.2200 -0.0255
22324W        W38585   6.571   5.507   2.427 -0.3953  0.3163  0.0335
22325W        W38586  15.894   4.344  11.935  0.1422 -0.1644 -0.2332
22326W        W38587   3.905   3.207  12.156  0.1861 -0.0477  0.0169
22327W        W38588   4.253   0.166  14.582 -0.2118 -0.2676  0.0282
22328W        W38589   8.543   8.347   4.854  0.1954  0.2315  0.3773
22329W        W38590   6.788  16.584  11.349  0.1108  0.0974  0.0282
22330W        W38591  14.784  13.997   1.091  0.3060 -0.0755 -0.0721
22331W        W38592   5.436   0.608   0.860 -0.1992  0.0378 -0.1049
22332W        W38593   3.989   1.839   4.196 -0.1384  0.3134 -0.1769
22333W        W38594   8.023  16.866   4.594 -0.1530  0.0712  0.1470
22334W        W38595   4.576  17.034  11.862  0.0178  0.1096 -0.0401
22335W        W38596  11.280   0.687   5.172 -0.2337 -0.0903 -0.0180
22336W        W38597   9.727  13.060  10.075  0.0831  0.1210  0.3385
22337W        W38598  13.544  11.072   3.392  0.1960 -0.0135 -0.2506
22338W        W38599   1.358  16.810  13.088  0.0397  0.1695  0.0187
22339W        W38600   1.850   3.558  14.509  0.2463 -0.1360 -0.2394
22340W        W38601   7.469   9.686   2.421 -0.0150 -0.0563 -0.3130
22341W        W38602  11.043  13.749   4.925 -0.1530 -0.0108 -0.0853
22342W        W38603  18.045  10.969  15.344  0.2211  0.0693  0.2333
22343W        W38604   8.778   7.804  13.562 -0.2435 -0.4813  0.2583
22344W        W38605   1.252  15.829  13.003 -0.1347  0.1478 -0.1788
22345W        W38606   5.905   8.354   3.192 -0.1365 -0.2423 -0.0118
22346W        W38607  11.280   2.849  13.826  0.0857 -0.1577 -0.1742
22347W        W38608  10.838  18.322  12.477  0.1803 -0.3864 -0.1921
22348W        W38609   9.668   1.257  15.336  0.0282 -0.0099 -0.1433
22349W        W38610  10.994   6.393  11.650  0.0427  0.0718 -0.3856
22350W        W38611  10.594   8.581   2.013  0.3850 -0.1932  0.1709
22351W        W38612   4.012  10.161   4.672 -0.1310 -0.0652  0.3035
22352W        W38613   6.243  14.554   3.394 -0.0463  0.1311 -0.0985
22353W        W38614  17.425  17.085   5.829 -0.0484 -0.2220  0.0329
22354W        W38615   3.802  11.072  13.017  0.1128 -0.1655  0.1736
22355W        W38616   6.867  16.945  11.692  0.2548 -0.2073  0.0154
22356W        W38617   9.822  13.247  13.049  0.0159  0.1521 -0.2039
22357W        W38618   5.303  15.134   1.198  0.0072  0.0231 -0.0627
22358W        W38619   9.528   9.395  14.092 -0.1082  0.0134 -0.1164
22359W        W38620  16.931   9.900  12.797  0.2209 -0.0941  0.0445
22360W        W38621  12.293   1.029   4.983 -0.0345 -0.1942 -0.0247
22361W        W38622   0.569   9.104   1.299 -0.3782  0.2324  0.1025
22362W        W38623  10.420   2.649  11.830 -0.1319  0.1321  0.0031
22363W        W38624   0.739  14.915  11.444 -0.1813 -0.0888 -0.2843
22364W        W38625  16.852  11.027   5.065  0.2697  0.1358 -0.0737
22365W        W38626  17.750   8.416   1.484  0.1715  0.2361  0.3077
22366W        W38627   3.936   4.353   5.739 -0.1187  0.3111 -0.0723
22367W        W38628  12.376   8.637  12.566 -0.0851  0.2659 -0.1829
22368W        W38629  16.732   2.680  13.371  0.1845 -0.0328 -0.1786
22369W        W38630   1.288  18.161   0.803  0.2458 -0.0608 -0.1631
22370W        W38631   3.993   9.610  12.076 -0.1370  0.1848 -0.1631
22371W        W38632  13.029   4.709  13.488 -0.0340  0.0821  0.1043
22372W        W38633   7.316   1.599   2.740 -0.0350  0.0613 -0.1410
22373W        W38634   2.480  15.129  15.371  0.0799  0.0103 -0.0437
22374W        W38635   9.874  16.186  11.617 -0.3195  0.0312  0.2964
22375W        W38636   9.799   4.817  11.957  0.1590 -0.4162 -0.3338
22376W        W38637   3.578   8.043  15.099 -0.1395  0.0155  0.1243
22377W        W38638   0.270  13.980   2.558  0.2858  0.2189  0.0991
22378W        W38639  17.509   1.812  11.099  0.0853 -0.3752  0.1213
22379W        W38640   0.851  18.395  13.751  0.1563  0.1391  0.1400
22380W        W38641   4.385  18.829  12.916  0.0757 -0.1583 -0.1321
22381W        W38642   0.492   3.920   4.781 -0.0752 -0.0741 -0.1045
22382W        W38643   0.184   1.347  14.885  0.2961  0.2328  0.0446
22383W        W38644  17.766   6.314  11.950  0.1229 -0.3255 -0.0675
22384W        W38645  14.016   3.277  15.018 -0.0058  0.1575 -0.5469
22385W        W38646   3.641   4.704   0.002  0.0761  0.1624  0.2375
22386W        W38647  16.602  17.262   0.737  0.2375  0.1410  0.0875
22387W        W38648  16.182   2.262  11.051  0.0913 -0.1182 -0.0496
22388W        W38649   4.985   3.300   4.799  0.1523 -0.1636  0.2068
22389W        W38650  16.816  17.685   0.173 -0.4516  0.0546  0.1344
22390W        W38651  14.605  15.462  10.629 -0.0663  0.2065 -0.1277
22391W        W38652   1.782  15.345   4.927  0.4052  0.1883 -0.0314
22392W        W38653  14.332   2.045   2.782  0.4485  0.0924 -0.0357
22393W        W38654  13.329  12.179   3.301  0.0385  0.2864 -0.0384
22394W        W38655   0.888  14.667  12.088 -0.1159 -0.2076  0.2233
22395W        W38656  17.972   0.712  14.912 -0.0641  0.0234 -0.1723
22396W        W38657   8.616   0.206  15.356  0.2206 -0.0515 -0.1244
22397W        W38658  18.131   4.831  14.789 -0.2159 -0.5048  0.1215
22398W        W38659   4.502   5.939   4.640  0.0250  0.0258  0.2908
22399W        W38660  10.939   2.696  12.956 -0.2763 -0.0103  0.1345
22400W        W38661   4.891   8.644  13.593 -0.1474 -0.0429 -0.0527
22401W        W38662  16.155   9.457   3.504 -0.1974 -0.6904 -0.1314
22402W        W38663  12.380   6.457   1.613 -0.0257 -0.0303  0.0546
22403W        W38664   4.570  13.134  12.258 -0.1260 -0.1209 -0.1895
22404W        W38665   2.230   7.537  11.273  0.1036  0.1327  0.0545
22405W        W38666   4.850  15.302   2.640 -0.2143 -0.1785 -0.1748
22406W        W38667   6.778   6.053  12.722 -0.2552 -0.3348  0.0676
22407W        W38668   2.176   9.281  11.244 -0.0731 -0.4071  0.3190
22408W        W38669   2.936  13.702   5.946 -0.0337  0.0259  0.0990
22409W        W38670  14.182  16.653  13.681 -0.0723 -0.0425 -0.1094
22410W        W38671  14.142   4.964   3.315 -0.2574  0.1512 -0.1244
22411W        W38672  16.959   7.545   2.282  0.1348 -0.3975 -0.1348
22412W        W38673   9.026  18.664   3.197  0.1346  0.1204  0.0860
22413W        W38674  14.234   7.717  12.538 -0.0480  0.0537  0.2436
22414W        W38675  15.029  17.406  11.915 -0.0740 -0.2294 -0.0729
22415W        W38676  10.756   4.828  13.287 -0.1011 -0.1610 -0.0678
22416W        W38677  18.430   9.405  13.889  0.2377 -0.2329  0.1885
22417W        W38678   5.218  14.520   3.134  0.2652  0.1200 -0.1696
22418W        W38679   6.845  13.885  15.148  0.0399  0.6817 -0.3733
22419W        W38680   0.759  18.190  14.319  0.0370  0.1332  0.1200
22420W        W38681   2.370  12.767  12.101  0.3912  0.1502  0.0707
22421W        W38682   1.797   3.556  13.177  0.2334 -0.2927 -0.2234
22422W        W38683  17.409   8.804   4.585  0.0941  0.0607 -0.0304
22423W        W38684  13.345   8.230  13.619  0.0119  0.1147  0.0668
22424W        W38685  13.965   0.887   0.448 -0.2821  0.2492  0.0279
22425W        W38686  10.500   9.960   0.671 -0.3290 -0.3202  0.1757
22426W        W38687   4.071  10.731  12.211  0.0891 -0.0333 -0.1704
22427W        W38688   8.476   2.420   5.482 -0.0468  0.2649  0.1150
22428W        W38689  17.417   5.534   0.951  0.1507 -0.2191  0.1234
22429W        W38690   5.464   8.072   3.971 -0.1498 -0.0397 -0.2076
22430W        W38691   2.286   6.001   0.745  0.0883  0.1519 -0.0076
22431W        W38692   8.442   6.046  14.743  0.1089 -0.1436  0.2481
22432W        W38693   0.064  10.430  13.230  0.3111  0.0715 -0.0086
22433W        W38694   8.992  11.503  13.194 -0.0644 -0.0988 -0.0883
22434W        W38695   5.571   7.627   3.845 -0.1541  0.2094  0.3661
22435W        W38696   7.307  16.312   3.910  0.0581 -0.0626 -0.1694
22436W        W38697   6.872  18.637  15.446 -0.1815  0.1090 -0.5592
22437W        W38698  11.209  18.175  14.411 -0.1475 -0.2816 -0.1242
22438W        W38699  11.949   0.723   0.771 -0.0007  0.1270  0.0204
22439W        W38700  10.336  18.544   3.541 -0.1085 -0.0289 -0.2946
22440W        W38701   6.610  13.914   4.932  0.0718 -0.0877  0.0757
22441W        W38702   7.940   5.136   3.526  0.0229  0.0980 -0.1092
22442W        W38703  14.099  10.327   1.096  0.1785  0.1862 -0.2771
22443W        W38704  16.570  15.209  14.970  0.0796 -0.3804  0.0610
22444W        W38705   4.320  13.530   0.748 -0.1179  0.3028  0.2515
22445W        W38706   7.119  17.901   2.020  0.2451  0.3798  0.0168
22446W        W38707  13.538   9.865   2.838  0.1747  0.0345 -0.4018
22447W        W38708   9.155  17.758   5.011  0.0348 -0.2124 -0.0149
22448W        W38709   9.558   5.300   1.209  0.3557  0.0757  0.6536
22449W        W38710  12.945   0.893  13.983  0.0858  0.3384  0.1536
22450W        W38711   5.956   6.760  14.210 -0.1617 -0.0134  0.3829
22451W        W38712   8.762  18.375   0.261  0.1998  0.1958 -0.3339
22452W        W38713   2.463   7.493  11.808 -0.0789 -0.0975  0.0522
22453W        W38714  14.540  13.335   0.506  0.1604  0.2397  0.2192
22454W        W38715   8.793   6.971   4.760  0.1146  0.2609  0.0865
22455W        W38716   9.827  17.034   4.537  0.3286  0.0389  0.2286
22456W        W38717  16.050   7.956  13.388  0.2660  0.2998  0.2080
22457W        W38718  15.680   0.840  10.838  0.1006 -0.0991 -0.1442
22458W        W38719  18.599  18.276  14.101  0.1062  0.0465  0.0031
22459W        W38720  16.734   2.039  15.523 -0.0303 -0.0209  0.1205
22460W        W38721   6.940  10.247  13.851 -0.1317 -0.1440 -0.3039
22461W        W38722   1.693  10.623   1.322 -0.1351 -0.0527 -0.2535
22462W        W38723  13.134  18.139   4.261 -0.0932  0.0644 -0.0596
22463W        W38724   2.305   2.480  11.709  0.0509  0.1140 -0.2566
22464W        W38725   4.544   9.922   1.912  0.0114  0.0159 -0.0822
22465W        W38726  16.375   9.177  13.950  0.2280  0.0287 -0.2295
22466W        W38727  12.703  17.644   3.348 -0.0499  0.5202 -0.0493
22467W        W38728   6.216  10.623  15.586 -0.0195 -0.0062 -0.0826
22468W        W38729   5.732   9.714   4.913  0.3013 -0.1068  0.0188
22469W        W38730   9.925  16.563  12.794  0.2498  0.0888 -0.3247
22470W        W38731   5.441   1.355  13.132 -0.0217 -0.2714 -0.1452
22471W        W38732  10.244  15.205   2.398 -0.1793 -0.0890  0.0489
22472W        W38733   2.535  13.791   2.465  0.3832  0.1863  0.1452
22473W        W38734  18.676   1.745   1.182 -0.2281 -0.1472  0.1253
22474W        W38735  11.033  12.194  11.187  0.2735  0.0632  0.0562
22475W        W38736   3.103   2.118   1.852  0.2252 -0.0722  0.2234
22476W        W38737  11.401   8.268   1.635  0.0300 -0.0584 -0.1278
22477W        W38738   3.768  12.112   0.454  0.1131 -0.1507 -0.3143
22478W        W38739   5.871   2.699   4.074 -0.0028 -0.1097  0.2282
22479W        W38740  17.982   7.433   4.812 -0.0374 -0.0412 -0.2090
22480W        W38741  12.296  18.109   4.922 -0.2445  0.0127  0.3826
22481W        W38742   3.415   0.373   1.967 -0.2870  0.0854 -0.0477
22482W        W38743   4.394   9.109   3.033 -0.5760 -0.1627  0.1103
22483W        W38744  16.307  12.797  12.315 -0.2074 -0.3110  0.3387
22484W        W38745   0.233  15.618   2.454  0.0481  0.1262 -0.0964
22485W        W38746  11.823   4.569  12.693 -0.0820  0.3998 -0.0422
22486W        W38747  13.879   6.467   1.652 -0.1695  0.4601  0.1095
22487W        W38748  17.666   9.968  13.190 -0.1291  0.2179 -0.1404
22488W        W38749   2.760  10.939   5.059  0.0911 -0.0483 -0.3421
22489W        W38750  15.309  14.735   2.279 -0.2030  0.0118  0.1238
22490W        W38751  12.511   5.669  11.256 -0.3694 -0.1175  0.3192
22491W        W38752   0.271   2.519  12.872 -0.4109  0.0792 -0.1729
22492W        W38753  14.062   6.178  15.422  0.2393 -0.3983 -0.3838
22493W        W38754   2.742  13.729   5.120  0.2159 -0.0782  0.1942
22494W        W38755  14.220   9.196  15.601 -0.1641  0.1047  0.2329
22495W        W38756   2.429   9.116   3.116 -0.1230  0.0157 -0.1037
22496W        W38757   7.392   1.137  14.081  0.3479  0.1345 -0.0710
22497W        W38758  15.582  15.204  11.742 -0.2168  0.0605  0.1397
22498W        W38759  12.594   7.901  14.752  0.4742 -0.0090 -0.0798
22499W        W38760  16.105   4.989  10.077  0.0454  0.1671 -0.0571
22500W        W38761   1.033   1.067   0.665  0.1899  0.0099  0.2593
22501W        W38762   8.385   2.953  13.618 -0.1444 -0.0821  0.1815
22502W        W38763   0.718  18.462  10.521 -0.1971  0.1798  0.0408
22503W        W38764   8.124   5.948   0.212 -0.0102 -0.1625 -0.3574
22504W        W38765   2.658   3.376  15.609  0.0042  0.0227  0.0415
22505W        W38766  13.668   5.898  11.124  0.0158  0.2387  0.0434
22506W        W38767   1.237   7.339  14.279 -0.0560  0.1367  0.1202
22507W        W38768  14.345   0.512  13.648  0.2722 -0.0117  0.0295
22508W        W38769   1.437  18.640   3.871  0.2553 -0.1669 -0.1959
22509W        W38770  13.680   4.928   4.516  0.1482 -0.1232  0.0440
22510W        W38771  12.144   3.771   1.657 -0.2697 -0.1241  0.2372
22511W        W38772   4.624   2.135  14.162  0.0009  0.0372  0.0868
22512W        W38773  18.435  10.752  15.617 -0.0374  0.0023 -0.0074
22513W        W38774   3.365  17.419  11.773  0.2526  0.1837  0.4074
22514W        W38775   7.965   7.722   1.457 -0.3163 -0.1151  0.0477
22515W        W38776  17.202   7.064   3.594  0.0041  0.1076 -0.2913
22516W        W38777   5.402   1.538  11.580 -0.1491 -0.0260 -0.0804
22517W        W38778   9.711   9.063   2.271  0.1902  0.0422 -0.0792
22518W        W38779  11.166  16.828   4.783  0.1798 -0.0329 -0.1201
22519W        W38780  15.033   7.829   0.613  0.0928  0.2169  0.0671
22520W        W38781   2.348   8.083   4.463 -0.1785  0.1864 -0.0673
22521W        W38782  10.092   2.850  12.117 -0.0885  0.1713  0.0414
22522W        W38783  13.755   8.909  11.550  0.0966  0.0780  0.1376
22523W        W38784   1.313   4.376   2.429 -0.3102 -0.1529 -0.1033
22524W        W38785  10.541   9.641   1.949  0.0548  0.1504 -0.0913
22525W        W38786  10.255  10.284  13.096  0.1429  0.0379  0.0077
22526W        W38787   2.611   3.298   5.651 -0.0453  0.1072 -0.1081
22527W        W38788   3.439  18.498   0.113  0.2587  0.1151  0.0787
22528W        W38789  15.362  15.285   0.015  0.0781  0.1420 -0.0323
22529W        W38790  14.928   7.152   5.385  0.2132  0.1173 -0.1383
22530W        W38791  14.222   1.330   2.133 -0.3600 -0.0159  0.0651
22531W        W38792  11.800   6.301  14.634 -0.0549  0.1767 -0.0093
22532W        W38793   0.241  17.439  11.829 -0.2102  0.0080  0.3181
22533W        W38794  12.021  15.864   5.233 -0.0667 -0.1577  0.0886
22534W        W38795   5.877  11.425  13.350 -0.0149  0.0721  0.1866
22535W        W38796   6.819   9.045  11.795 -0.0605  0.0439  0.0919
22536W        W38797  11.266   2.007   0.514 -0.3574 -0.1578 -0.1560
22537W        W38798  15.030   0.062  11.132 -0.3544  0.2571  0.2331
22538W        W38799   5.471  13.834  15.150  0.0635 -0.0656  0.0024
22539W        W38800   2.874   9.096   5.275  0.0665  0.2654  0.1336
22540W        W38801  18.732   0.224  12.327 -0.0131 -0.0864 -0.2140
22541W        W38802   1.364   9.322   0.174  0.1053  0.0645 -0.2617
22542W        W38803  11.226  14.859   3.707  0.0175  0.0203 -0.1894
22543W        W38804  17.024   8.895   1.464  0.0446  0.2427 -0.0470
22544W        W38805  12.735  18.230  14.699 -0.1564 -0.2714  0.0503
22545W        W38806  15.258  18.812  12.040 -0.2874  0.1750  0.1973
22546W        W38807   7.037   9.557   1.419 -0.2499 -0.1489  0.3440
22547W        W38808  16.784   7.623   4.292 -0.3374  0.0715  0.0768
22548W        W38809  13.059   0.408  14.032  0.0328 -0.0573  0.0108
22549W        W38810  10.165   4.192   3.798 -0.0214 -0.1812  0.1533
22550W        W38811  14.499  10.911  15.581 -0.0458  0.3186 -0.2186
22551W        W38812   8.466  16.575   2.872 -0.2887 -0.1302  0.1275
22552W        W38813   5.257   9.328   0.365  0.0234 -0.2643  0.0740
22553W        W38814  16.573   1.982  11.851 -0.1676  0.4184  0.0101
22554W        W38815   8.218   3.706   0.277  0.1751 -0.2409 -0.1381
22555W        W38816  14.139   7.767   2.210 -0.0908 -0.0599  0.0347
22556W        W38817  11.847   5.533  14.332 -0.1036 -0.2738  0.1075
22557W        W38818  11.902   5.155  10.225  0.1807 -0.0002  0.1744
22558W        W38819   0.262  11.076  13.989 -0.1697 -0.4291 -0.1166
22559W        W38820   8.449   8.233  11.187  0.3518  0.0175  0.1082
22560W        W38821  16.032   4.308  14.860  0.2181 -0.1138  0.0454
22561W        W38822   1.780  14.920   2.099  0.0464  0.0239  0.0681
22562W        W38823  16.006   9.541  12.814  0.0640  0.1526  0.0095
22563W        W38824  17.556   4.914   1.168 -0.1070 -0.1881  0.1035
22564W        W38825   3.585  15.456  13.224  0.1339 -0.0346  0.1586
22565W        W38826   6.995   1.387   3.978 -0.0460  0.1968 -0.2593
22566W        W38827   2.103  14.050   4.353  0.1530 -0.1206 -0.2386
22567W        W38828   9.403   9.240  14.921  0.0425 -0.1225 -0.2855
22568W        W38829  14.244   3.021   3.335  0.0472 -0.0145 -0.2670
22569W        W38830  12.091   7.987  13.531  0.1325  0.1474  0.2038
22570W        W38831   0.948   5.320  15.112 -0.1372 -0.1645 -0.2089
22571W        W38832  12.984   2.821   2.068  0.0059 -0.1987  0.4333
22572W        W38833  18.275   5.942  13.786  0.4725 -0.2676 -0.1708
22573W        W38834   7.486   2.725  12.152 -0.0797  0.1413  0.0676
22574W        W38835   3.883   2.269   5.404 -0.0196  0.5297 -0.0860
22575W        W38836   8.233  17.726  11.713 -0.0864  0.3542  0.1173
22576W        W38837   9.499  17.770  13.956 -0.0614 -0.0162 -0.2848
22577W        W38838   4.573  17.370   1.896 -0.1496  0.1966  0.0207
22578W        W38839   7.689  17.490  13.850  0.0477  0.0385 -0.3523
22579W        W38840  12.989  13.862   0.615  0.1884 -0.1303  0.1595
22580W        W38841   3.501   3.940   2.519 -0.0335 -0.0419 -0.1205
22581W        W38842  11.877   7.765   1.832  0.0532  0.1082 -0.0195
22582W        W38843   0.360  14.891   4.182 -0.0005 -0.4011  0.3394
22583W        W38844   4.203  12.229   2.963 -0.4470 -0.1861  0.4383
22584W        W38845  15.047   4.684   3.362  0.2424  0.1681 -0.0206
22585W        W38846   4.168  13.677   2.334  0.1341  0.0079 -0.1733
22586W        W38847   5.188   2.376   1.356 -0.1807 -0.3059  0.2300
22587W        W38848   0.173   8.364   2.795 -0.1334 -0.0527  0.0670
22588W        W38849  11.953  17.651  11.905  0.0169  0.1814  0.3903
22589W        W38850   1.628  14.775   5.316 -0.2928 -0.1898  0.0925
22590W        W38851   0.704  10.877  10.812  0.0400 -0.2047 -0.2478
22591W        W38852   6.716   3.828   5.084 -0.1367 -0.1919 -0.1315
22592W        W38853  18.063  12.857   0.986 -0.1285 -0.0942  0.1616
22593W        W38854   9.031  11.668  14.843 -0.2823  0.0282 -0.0407
22594W        W38855  14.705  17.631  11.439 -0.1445  0.0357 -0.0005
22595W        W38856   3.321   7.816   4.322  0.0975 -0.0394 -0.1160
22596W        W38857  17.909   1.809  15.629  0.3208  0.3946  0.1809
22597W        W38858  17.759  10.983  10.799 -0.2435 -0.0319 -0.0812
22598W        W38859  10.080   5.797   1.175  0.1851 -0.0188  0.0368
22599W        W38860   1.458   8.158   2.024 -0.0125 -0.0258  0.2166
22600W        W38861  14.503   7.227   4.969 -0.0836  0.2914  0.1537
22601W        W38862  11.702  12.048   3.534 -0.2399  0.3713  0.1772
22602W        W38863   1.250  14.852   0.379 -0.0291  0.0934  0.0646
22603W        W38864  11.542  17.263   2.559 -0.0546  0.5155  0.2434
22604W        W38865  13.681   5.037  10.067  0.1265 -0.4495  0.2759
22605W        W38866   4.632   0.447  12.392  0.0130  0.2744 -0.3721
22606W        W38867  13.389   6.515   0.540  0.1810  0.2858  0.0770
22607W        W38868  10.970   5.303   3.804 -0.1936  0.2025 -0.2178
22608W        W38869   1.152   4.570  11.344  0.0389 -0.1004  0.1067
22609W        W38870  18.026   3.417  10.210 -0.1364  0.3495 -0.2204
22610W        W38871   8.168  10.656   2.413  0.1325 -0.1634 -0.0056
22611W        W38872  17.552   8.557   0.943 -0.0091  0.0292 -0.0818
22612W        W38873   8.462  10.106  13.352  0.1129 -0.0656 -0.6457
22613W        W38874   5.487   7.601  12.157  0.1897  0.0243 -0.2005
22614W        W38875  10.311  10.297   2.165 -0.0200  0.0799  0.6816
22615W        W38876   8.268   7.899   2.094 -0.1486 -0.0119  0.0037
22616W        W38877  14.322  10.965   2.974  0.1328 -0.0716 -0.0142
22617W        W38878  14.472  16.254   3.862 -0.0912  0.2730 -0.1047
22618W        W38879   2.731   3.806   4.962  0.0662  0.1267 -0.0926
22619W        W38880   1.484   8.724   0.361  0.0121 -0.1715  0.1481
22620W        W38881   6.942   9.411   5.283 -0.1038 -0.0140 -0.1157
22621W        W38882   7.921   3.826   3.229  0.2752  0.1593  0.1877
22622W        W38883  14.017  14.044   3.962  0.1115  0.0485 -0.0827
22623W        W38884   0.579  12.748  13.265  0.0106  0.0708 -0.0718
22624W        W38885   2.206  16.155   1.762  0.3786 -0.0545 -0.3032
22625W        W38886   2.120   8.666  13.128  0.1155 -0.1847 -0.1168
22626W        W38887  10.335   3.454   2.603  0.2118 -0.0172  0.2410
22627W        W38888  11.109  12.232   1.756 -0.1002  0.1745 -0.1423
22628W        W38889  16.447  15.030   4.301 -0.0075 -0.0861  0.3628
22629W        W38890   1.412   1.506  15.249 -0.1777 -0.1407 -0.1179
22630W        W38891  18.714   0.425  11.162 -0.0229 -0.2641  0.0958
22631W        W38892   4.021   8.141   0.689  0.0296 -0.1076  0.1105
22632W        W38893   1.087   1.776   3.679  0.0915 -0.0082  0.1665
22633W        W38894   1.350  18.328   4.315  0.0396  0.0201 -0.1925
22634W        W38895   3.610  10.403   1.860 -0.0822  0.1485  0.3476
22635W        W38896   1.559  17.652   2.918 -0.4003  0.0384  0.3235
22636W        W38897   4.959   9.629   0.621  0.2797  0.2453 -0.0388
22637W        W38898  13.821   5.887   1.445 -0.3125 -0.2094 -0.1023
22638W        W38899  18.713   9.719  14.235  0.0741 -0.2746 -0.2358
22639W        W38900   6.542  18.207   2.919 -0.2345  0.3447 -0.1570
22640W        W38901   3.235   1.396  11.749 -0.1382  0.0902  0.4260
22641W        W38902   9.042  17.888  14.849  0.0580 -0.0312 -0.2236
22642W        W38903   2.053   7.946  14.885  0.0251  0.2016  0.0641
22643W        W38904  12.946  11.879   1.168 -0.0020 -0.1463  0.1459
22644W        W38905  16.775  14.321  12.608 -0.0550  0.0812  0.2990
22645W        W38906  15.406   6.559  14.993 -0.0259 -0.0563 -0.1614
22646W        W38907  16.003   2.979   3.733  0.0544 -0.0937  0.3232
22647W        W38908   0.804  11.213   3.175 -0.2337 -0.4039  0.2361
22648W        W38909   7.589   7.631  15.239 -0.2289 -0.1780  0.2824
22649W        W38910  18.101   2.286   0.550  0.3224  0.2516  0.2439
22650W        W38911  16.511   8.523  12.166 -0.0472 -0.2077  0.2193
22651W        W38912   9.993   0.378   4.130 -0.2992  0.0579 -0.2520
22652W        W38913  14.654   6.310   4.988 -0.0087 -0.0371 -0.0096
22653W        W38914  11.686  10.495   5.007  0.0804  0.0767  0.0269
22654W        W38915  11.338  11.016  15.543 -0.2694 -0.0706  0.0390
22655W        W38916  13.145   1.149  14.406 -0.0142 -0.0611 -0.1035
22656W        W38917   6.052  16.491  13.424  0.4633 -0.4196 -0.0998
22657W        W38918  17.883  15.671   4.765 -0.0164 -0.0939 -0.0368
22658W        W38919   1.138   1.682  11.635 -0.0821  0.1437 -0.1125
22659W        W38920   1.957   0.811   0.777  0.2699  0.1646  0.1037
22660W        W38921   6.523   3.832  14.207  0.1754  0.1864  0.0863
22661W        W38922  15.939  10.799   9.412  0.1233  0.1843  0.1059
22662W        W38923   7.571   6.047  14.171 -0.0919  0.1619 -0.2085
22663W        W38924   0.670   6.962  14.607  0.1791 -0.1016 -0.0765
22664W        W38925   9.631  10.782   2.393  0.0034 -0.2172 -0.0727
22665W        W38926   3.853   4.669   5.350 -0.1107  0.0817 -0.0295
22666W        W38927  15.278  18.792   4.944 -0.1456  0.0380 -0.3233
22667W        W38928   1.609   9.522   2.410 -0.1152 -0.0283  0.6265
22668W        W38929   7.186  15.396  10.925 -0.0506  0.1038  0.2556
22669W        W38930  12.716   5.965  12.207  0.2295 -0.1646  0.0279
22670W        W38931  14.279   9.615   4.505 -0.1642 -0.0331  0.2106
22671W        W38932  18.528  14.534   5.114  0.4417 -0.4178 -0.0076
22672W        W38933  17.569   6.492  11.510 -0.2334  0.1553 -0.1137
22673W        W38934   9.258   2.981  15.118  0.5972 -0.1714 -0.1793
22674W        W38935  11.430  17.461  14.304  0.2711 -0.1494 -0.2472
22675W        W38936  14.285  11.547   5.012 -0.0000 -0.0783  0.3371
22676W        W38937   4.342   6.195  14.206 -0.1766  0.2317  0.1376
22677W        W38938   6.780   4.086  10.917 -0.0718 -0.2199  0.2441
22678W        W38939   2.849  13.814  13.619  0.0186  0.0513  0.0629
22679W        W38940  18.408   6.272   1.077 -0.0735  0.0146  0.2787
22680W        W38941   2.867   4.619  12.622  0.2062 -0.2318 -0.1528
22681W        W38942  18.643  15.969  11.220 -0.2264 -0.2310  0.0021
22682W        W38943  15.842   5.352  11.958 -0.1876 -0.1950 -0.0419
22683W        W38944  12.331   5.096  10.545 -0.1347 -0.3542  0.0521
22684W        W38945  18.076   4.073   5.748  0.0377  0.1199 -0.1520
22685W        W38946   4.909   9.523   1.158 -0.1233 -0.1229  0.0064
22686W        W38947  16.476   0.502   5.004 -0.0395 -0.1276  0.2398
22687W        W38948  13.947   4.154  15.189  0.1062 -0.0268  0.0166
22688W        W38949   7.545   0.489  11.201  0.0958  0.0144 -0.0718
22689W        W38950  16.993   0.012  13.452 -0.0542 -0.0732  0.1097
22690W        W38951  17.396   2.552   3.833 -0.0535 -0.5409  0.0379
22691W        W38952   2.260   0.868  15.644 -0.0700  0.1411 -0.2613
22692W        W38953   1.196  13.742  13.283 -0.2737  0.0375  0.1669
22693W        W38954   1.977   1.483   2.036 -0.1194  0.1062 -0.0673
22694W        W38955   3.189  10.402   2.296  0.1372 -0.1086 -0.0432
22695W        W38956  12.923   3.447  12.147  0.0533  0.0503  0.0121
22696W        W38957  12.524  18.100   1.870  0.2108 -0.0995  0.0734
22697W        W38958   5.905   7.521  11.865 -0.2187 -0.2904  0.0187
22698W        W38959  12.253  18.558   1.805  0.1134 -0.1689 -0.2677
22699W        W38960   3.046  11.433  14.133 -0.0313  0.2298  0.0046
22700W        W38961  16.539   0.735  12.158  0.0848 -0.0053 -0.1383
22701W        W38962  10.455   4.752   5.603 -0.0112 -0.2232  0.0182
22702W        W38963  17.648   3.995   5.374  0.0568 -0.1475 -0.1894
22703W        W38964  16.575  11.471   5.016 -0.3226 -0.2831 -0.1272
22704W        W38965  16.036  15.311  15.132 -0.1289 -0.4734  0.1059
22705W        W38966   9.515  12.731  12.251  0.1027 -0.4096  0.1256
22706W        W38967   2.974  11.864   3.114  0.1187  0.3974 -0.2119
22707W        W38968   1.496   1.495  12.346 -0.2355 -0.1099  0.1238
22708W        W38969   1.875  18.395  12.441  0.0248 -0.0314 -0.0159
22709W        W38970  15.049   7.376   0.382 -0.2635  0.2252 -0.2803
22710W        W38971  11.072   1.942   2.279 -0.2999  0.0315  0.2799
22711W        W38972  16.542  16.552   4.669 -0.0320  0.2245  0.0711
22712W        W38973   6.138  15.764  13.912  0.3191 -0.1532  0.0370
22713W        W38974   6.177   6.428  15.115 -0.1753  0.2265 -0.2039
22714W        W38975   3.665  16.832  12.670 -0.1077  0.0818  0.3668
22715W        W38976  12.890  10.573   2.793  0.2381 -0.0202 -0.2429
22716W        W38977  15.238   2.797   4.111  0.0350 -0.2360  0.1891
22717W        W38978   2.519  16.292   3.482 -0.1351  0.0936  0.0823
22718W        W38979  18.803  10.947   9.603 -0.1994  0.0615  0.5134
22719W        W38980   3.148   7.975   3.072  0.1774 -0.2814 -0.0093
22720W        W38981  15.316  14.146  14.642  0.3468  0.1618 -0.1746
22721W        W38982   9.217   2.490   0.433  0.0086 -0.0524  0.1012
22722W        W38983  11.519   8.045   2.096  0.0824 -0.2303  0.0614
22723W        W38984  11.826   3.192  13.577  0.1305 -0.1834 -0.2022
22724W        W38985  15.815   3.929   2.364  0.1607  0.1171 -0.2025
22725W        W38986   3.038  15.356   0.446  0.0960 -0.2208  0.1078
22726W        W38987   2.120  10.541   2.839  0.3149 -0.3786 -0.0637
22727W        W38988  11.042   5.427   0.897 -0.2783  0.2063 -0.1158
22728W        W38989   1.836  18.628  11.461 -0.2380 -0.1406  0.1273
22729W        W38990  15.934  17.021   0.370 -0.0861 -0.0654  0.1896
22730W        W38991  15.941  11.894   2.495 -0.0827 -0.1946  0.7364
22731W        W38992  10.039   7.154   5.746 -0.3076  0.0883  0.1364
22732W        W38993  14.659  10.232  14.712 -0.1644 -0.2061  0.1153
22733W        W38994   0.878  14.413  10.569  0.2279 -0.1652 -0.1879
22734W        W38995   3.052   8.101   3.593  0.2414 -0.1313 -0.0368
22735W        W38996  15.220  17.900  14.094 -0.0750 -0.0917  0.0194
22736W        W38997   5.066  12.226  11.298  0.1202 -0.1602  0.0350
22737W        W38998   9.261  11.519  15.342  0.3224 -0.1354 -0.1122
22738W        W38999   5.181  18.177  11.248 -0.2399  0.2774  0.5499
22739W        W39000   3.361  18.640   3.956 -0.0648  0.3952  0.0948
22740W        W39001   9.747  12.913   1.571 -0.0294  0.1094 -0.0204
22741W        W39002   9.706  10.832  12.813  0.3918  0.0096 -0.0903
22742W        W39003  16.940  11.141  11.874 -0.2336 -0.3073 -0.3702
22743W        W39004   2.814  15.902  12.633 -0.2645  0.0490  0.1669
22744W        W39005  14.686  16.312   2.791 -0.4316  0.1817 -0.1475
22745W        W39006   5.740  17.487  11.381  0.4319  0.0633  0.2408
22746W        W39007  16.759   1.846   4.074  0.5196  0.0757  0.1421
22747W        W39008   1.176  13.226  10.925 -0.1973 -0.1187  0.0377
22748W        W39009  11.194  11.723   1.683  0.2644  0.0504 -0.2478
22749W        W39010   1.002  15.750   3.290  0.1020 -0.1625  0.3871
22750W        W39011   4.251   5.205   2.598 -0.4232  0.1385 -0.1185
22751W        W39012  15.593  11.728  11.474 -0.2788 -0.2458 -0.2084
22752W        W39013   9.473   4.708   5.524  0.2437  0.0785 -0.0750
22753W        W39014   4.390   5.044   4.188  0.4521 -0.0050  0.3101
22754W        W39015   7.114  12.564   5.397  0.2458  0.2395 -0.0119
22755W        W39016  10.402   5.304   4.840  0.0596  0.1178  0.0774
22756W        W39017   8.618  11.381  11.473 -0.1178 -0.2260  0.2600
22757W        W39018   0.062  18.726  14.300 -0.0762 -0.0063 -0.2323
22758W        W39019  16.242  16.097   3.953 -0.0886  0.0689 -0.2431
22759W        W39020  11.060  11.826   5.341 -0.1678 -0.0040 -0.3646
22760W        W39021   6.804   8.391   5.264  0.0713  0.0731  0.2321
22761W        W39022   2.610   0.240   2.601  0.1919  0.1812 -0.0393
22762W        W39023  17.627   0.679   0.650  0.1932 -0.5688  0.0038
22763W        W39024   9.148  13.553  10.866  0.1198  0.1721 -0.2459
22764W        W39025   9.287   3.418  15.386 -0.2506 -0.3521  0.0706
22765W        W39026  14.823  17.016  15.288 -0.0075  0.2857 -0.0716
22766W        W39027   4.196  13.653  13.086  0.2801 -0.0459 -0.0099
22767W        W39028  11.830   2.793  11.155  0.0224 -0.0671 -0.2209
22768W        W39029  12.469   7.882   2.684 -0.0928 -0.0841 -0.0419
22769W        W39030   2.557  11.727  12.033  0.4941 -0.0226  0.3352
22770W        W39031   9.267  16.968   2.742  0.0938 -0.1328 -0.2298
22771W        W39032  16.825   1.485   3.038 -0.0818 -0.0020 -0.2848
22772W        W39033   8.962  17.534   2.731  0.1143  0.1709 -0.2881
22773W        W39034  10.181   3.054  12.557 -0.2267 -0.1865  0.2051
22774W        W39035  11.542   4.238  10.681 -0.0696  0.0029 -0.1409
22775W        W39036   1.388   7.830   2.465 -0.1608 -0.0974 -0.1232
22776W        W39037   4.836   2.130  14.607  0.0863 -0.0243  0.0953
22777W        W39038   2.417   2.900  11.942  0.2636  0.1382 -0.1305
22778W        W39039  15.988  15.152   4.436  0.1244  0.0584 -0.1986
22779W        W39040  16.876  10.957  12.504 -0.0644 -0.1279  0.1854
22780W        W39041  16.114   4.272  12.412 -0.1246  0.0205 -0.1794
22781W        W39042  17.654   5.319   0.418 -0.0361 -0.1312  0.1781
22782W        W39043  12.590   3.719   2.601  0.0185 -0.0365 -0.0147
22783W        W39044   9.169  12.134   1.286  0.1598 -0.3809  0.0558
22784W        W39045   0.725   9.548   3.301  0.1409 -0.2427  0.0552
22785W        W39046   2.841   9.048  14.731 -0.0159 -0.0341 -0.1511
22786W        W39047   5.116  17.219   0.081  0.2087 -0.2687 -0.0816
22787W        W39048  11.345   6.278  15.401 -0.1655  0.2265  0.3453
22788W        W39049   7.785   6.353   2.594 -0.1268  0.1603 -0.0015
22789W        W39050  13.983  16.238  15.233 -0.3264 -0.2572 -0.4101
22790W        W39051  11.130  16.199   1.908  0.1455 -0.0261 -0.2798
22791W        W39052  13.024  18.429  11.632  0.3477  0.1514 -0.2343
22792W        W39053   0.696   0.822  11.112 -0.1631  0.2676 -0.2662
22793W        W39054   1.270   1.040   0.133  0.1643 -0.4547 -0.0907
22794W        W39055  11.065  16.529  15.502  0.1451 -0.3402  0.0846
22795W        W39056  13.599  17.049   5.183 -0.2937 -0.0914  0.1105
22796W        W39057  13.617   1.059   5.646  0.0457 -0.4826 -0.2211
22797W        W39058  12.135  17.892   2.695 -0.0709  0.2385 -0.0747
22798W        W39059  17.585   5.750   1.889  0.0324 -0.0299 -0.3012
22799W        W39060   2.159   7.450  14.753  0.1318 -0.0382  0.1308
22800W        W39061  14.190  15.591   4.005 -0.0764  0.2546  0.2020
22801W        W39062   1.703   8.164  15.180 -0.3198  0.0488  0.0338
22802W        W39063  16.046   7.172  10.792  0.0371 -0.1144 -0.3058
22803W        W39064  16.557  17.679  15.417  0.1421  0.0178  0.0856
22804W        W39065   8.082  14.011   0.753  0.0277  0.0463  0.0672
22805W        W39066   8.489  17.604   4.651 -0.1044  0.3608 -0.3161
22806W        W39067   6.382   4.393   5.297 -0.0787  0.1811 -0.0002
22807W        W39068  15.362   0.679  11.901  0.1713  0.0570  0.1560
22808W        W39069  15.374  11.677   2.507  0.0687 -0.1499 -0.1787
22809W        W39070   2.369  15.551  11.775  0.0415 -0.0011  0.0443
22810W        W39071   6.637  16.528  13.511  0.0316  0.2568  0.1381
22811W        W39072  11.701  16.715   4.215 -0.0840 -0.0926 -0.0338
22812W        W39073   7.768   9.704  12.879 -0.4146  0.3217 -0.1885
22813W        W39074  11.874   1.490   1.855 -0.3009  0.0367  0.2420
22814W        W39075   0.814   0.002  11.515  0.0307 -0.2226  0.3874
22815W        W39076  11.774  11.251  15.450  0.2630  0.3839  0.1867
22816W        W39077   3.440  11.064   2.964  0.1097  0.0201  0.0918
22817W        W39078   9.725   4.526   3.178 -0.1157  0.1955  0.1214
22818W        W39079  18.082  12.482  13.379 -0.0446  0.3073 -0.0358
22819W        W39080   4.971   3.304   1.137  0.1238  0.0925 -0.2274
22820W        W39081   6.919  12.172   1.396 -0.2741  0.1019  0.2218
22821W        W39082   7.600   7.076   5.525  0.2386  0.1618  0.3061
22822W        W39083  14.277   5.110   3.773 -0.2105  0.0172  0.2789
22823W        W39084   0.703  11.345  11.939  0.0487 -0.1184 -0.1889
22824W        W39085  18.266  12.977   2.340 -0.2406 -0.0951  0.0448
22825W        W39086   6.691  17.767   5.602  0.0304  0.2356  0.0092
22826W        W39087  10.598   8.175   5.025  0.1683  0.0836  0.2086
22827W        W39088   1.933   1.500   5.645  0.4052 -0.2377  0.2320
22828W        W39089  15.740  13.567   1.873 -0.2659  0.2031 -0.2035
22829W        W39090  11.582   8.250   6.188  0.0227 -0.1873  0.0795
22830W        W39091   2.122  13.438   4.424 -0.2201 -0.1735 -0.0796
22831W        W39092  10.638   9.656  12.603  0.0787 -0.1177 -0.0015
22832W        W39093  16.149  17.457   0.507  0.1281  0.1761 -0.0411
22833W        W39094  18.452   2.321   4.438  0.0194  0.0779  0.0629
22834W        W39095   6.702  12.492   2.843  0.0125 -0.2673 -0.1349
22835W        W39096   3.369   1.073   2.991 -0.1459 -0.0126 -0.1397
22836W        W39097   6.637  16.972  14.873  0.3017 -0.1702  0.0581
22837W        W39098   0.903   1.970   0.436  0.2776  0.2798  0.1710
22838W        W39099  18.192  13.523   2.292  0.0540  0.0497  0.0584
22839W        W39100   4.575  14.002  15.529 -0.2812  0.0532 -0.1379
22840W        W39101  16.036   3.773   1.128  0.1716  0.3648 -0.0559
22841W        W39102   3.805   5.172  13.883  0.1082  0.2781 -0.1518
22842W        W39103   3.321  11.201   5.809 -0.1418  0.2308 -0.2498
22843W        W39104  16.457   2.442  14.237 -0.0484 -0.1529  0.1109
22844W        W39105   8.762  12.757   0.123 -0.3461 -0.2900  0.1923
22845W        W39106  17.695   5.670   9.898  0.0658 -0.0326 -0.0457
22846W        W39107  17.534   4.246   1.236  0.0394 -0.1448  0.1611
22847W        W39108  12.456  18.285  11.539  0.0223  0.2257 -0.1328
22848W        W39109   4.860   0.435  12.933 -0.1512  0.0206  0.2995
22849W        W39110  17.028  10.243   3.800 -0.2298 -0.1937 -0.0590
22850W        W39111  10.325  15.315   1.121 -0.0665  0.2585  0.0014
22851W        W39112  12.786  10.478  14.841  0.2847  0.2200 -0.0463
22852W        W39113   3.522   3.736   2.975 -0.0714  0.2354  0.1776
22853W        W39114   8.866  13.347  15.131  0.2902 -0.0365 -0.2891
22854W        W39115  12.176  12.008   4.398 -0.0114  0.0614  0.2342
22855W        W39116  12.231   5.084   3.987 -0.0975 -0.0269  0.0183
22856W        W39117  16.335  10.825   5.836 -0.1450 -0.1587 -0.0588
22857W        W39118  13.995  13.914   2.558 -0.1059 -0.1045  0.1249
22858W        W39119   1.554   2.460  12.426  0.1126  0.0943 -0.4493
22859W        W39120  10.999   9.965   0.629  0.4223 -0.1924  0.0222
22860W        W39121   6.143   3.530  14.359 -0.3023  0.1637  0.1658
22861W        W39122  11.317  18.796   4.608 -0.3134  0.0402 -0.0227
22862W        W39123  14.347   8.089   3.004 -0.0147  0.2391 -0.2564
22863W        W39124  16.468  12.695   0.660  0.0206 -0.1350 -0.3351
22864W        W39125  18.695   2.069   2.303  0.2180  0.2849  0.0084
22865W        W39126   1.791   0.348   2.050 -0.1070 -0.0872  0.0185
22866W        W39127   2.686  15.729  15.230  0.1134  0.0337  0.3783
22867W        W39128   9.749  11.437   4.015  0.4377 -0.0388 -0.0802
22868W        W39129   8.868   4.811  14.444  0.1694  0.1135  0.0897
22869W        W39130   6.927  15.192   2.266  0.0774 -0.2100  0.0917
22870W        W39131  10.740  14.013  13.999 -0.3116 -0.0597 -0.3320
22871W        W39132  18.531   3.768  11.642 -0.1637  0.1549  0.2442
22872W        W39133  11.479   2.140   3.911  0.0156  0.1032  0.0739
22873W        W39134  15.779  10.982  12.477  0.0290  0.0750  0.0319
22874W        W39135  17.383   3.422   1.724  0.0513  0.1000 -0.0994
22875W        W39136  12.621   9.622  11.325  0.2252  0.2850  0.1272
22876W        W39137  16.954  11.172   2.699  0.0226  0.0184  0.0029
22877W        W39138  10.112   6.544   1.052  0.0580  0.0766  0.0238
22878W        W39139   5.849  16.048  14.700 -0.1212 -0.0309 -0.1525
22879W        W39140   2.040   4.199  11.976 -0.0740  0.0324  0.1091
22880W        W39141  14.574   4.213  11.495  0.4085 -0.0448  0.3560
22881W        W39142   9.865   3.293  11.870 -0.0788  0.1009 -0.1797
22882W        W39143   4.035  11.064   4.863  0.0582  0.0184 -0.1315
22883W        W39144   0.429  18.565  11.805 -0.0757  0.2917 -0.2905
22884W        W39145  10.792  14.927  12.099 -0.3344 -0.2321  0.0733
22885W        W39146  13.333   6.565   1.525 -0.2870 -0.2675 -0.1690
22886W        W39147  11.087  10.878   2.969 -0.2027 -0.1587  0.2911
22887W        W39148  17.148   9.317  11.163  0.3604 -0.0158  0.0980
22888W        W39149  18.741  18.214   4.215 -0.0779 -0.1649  0.0282
22889W        W39150  11.201  18.652   2.448 -0.0035 -0.0131  0.1711
22890W        W39151  15.035  18.730   2.229 -0.0634 -0.1979 -0.1632
22891W        W39152  17.455  12.988  11.061 -0.1109  0.1725 -0.1420
22892W        W39153  12.006   9.907  14.919  0.3794  0.1525 -0.0094
22893W        W39154  18.200  11.606   4.135  0.1923 -0.4430  0.0168
22894W        W39155  14.129  13.823   1.326  0.0570  0.0445  0.0224
22895W        W39156   5.390   8.241   4.520 -0.0766  0.2426 -0.1975
22896W        W39157   3.317  14.473  13.113 -0.0168  0.1386  0.0495
22897W        W39158   3.914  12.767   3.347 -0.0843  0.1220 -0.0495
22898W        W39159   2.251  18.176  10.896 -0.1706 -0.0558 -0.0530
22899W        W39160  14.713  15.942  11.166  0.0438 -0.0141 -0.0885
22900W        W39161  10.558   6.067   0.221  0.0911  0.1448 -0.0200
22901W        W39162  17.939   8.244   2.908 -0.2082  0.2504  0.0225
22902W        W39163   6.807  14.675  15.411 -0.0244  0.0865  0.0275
22903W        W39164   5.862   8.177   4.318 -0.2564 -0.3526 -0.1683
22904W        W39165  18.163  15.056   3.081  0.0531 -0.0832  0.0526
22905W        W39166   8.094  11.223  13.444  0.0723  0.1959  0.0532
22906W        W39167  18.673  17.858   0.429  0.1003 -0.1223 -0.0891
22907W        W39168  15.226   6.697   3.223  0.0492 -0.1768  0.4053
22908W        W39169   5.024   5.139   5.219  0.1609  0.3111 -0.2304
22909W        W39170   9.663  17.021   1.882  0.0507  0.0574  0.2721
22910W        W39171   5.529   4.507   0.748 -0.1199  0.0708  0.0300
22911W        W39172  12.141   7.779  12.116  0.0086  0.0379  0.3066
22912W        W39173  12.849   1.061   2.772  0.2183  0.1019  0.0371
22913W        W39174   8.023  16.110   0.912  0.2080  0.0494 -0.1137
22914W        W39175   9.390  13.259  12.291  0.3311  0.1415  0.0500
22915W        W39176  13.190  12.815  12.114  0.0082 -0.1464  0.0284
22916W        W39177   3.649  10.239  12.853  0.0955  0.0878 -0.1055
22917W        W39178  15.530  16.043  14.899  0.0111  0.1653  0.2692
22918W        W39179   3.864  11.649   2.114 -0.3754 -0.0248 -0.2115
22919W        W39180  10.820   5.599   5.915 -0.0311  0.0504 -0.0335
22920W        W39181  13.812  17.706   4.036  0.0188  0.1607  0.0316
22921W        W39182   2.180   7.872   1.306 -0.0214  0.2770 -0.0897
22922W        W39183  14.068   5.651  11.948  0.0614 -0.2189  0.1431
22923W        W39184   0.329   0.811   4.508  0.1518 -0.0833  0.0312
22924W        W39185   4.803   7.604   4.460 -0.3325  0.1536  0.4169
22925W        W39186  13.073  16.659  12.374  0.0255  0.1076 -0.0112
22926W        W39187   5.822   8.326  11.501 -0.2141  0.0982 -0.0926
22927W        W39188  12.488  18.535  12.388 -0.1322 -0.0792  0.2731
22928W        W39189  18.391  11.868  13.679 -0.4375 -0.1112  0.2634
22929W        W39190   7.898  13.011  13.983  0.1861  0.1532 -0.1435
22930W        W39191   0.126   6.632   0.082 -0.3235 -0.1111  0.1661
22931W        W39192  18.616  18.426  10.793  0.2460  0.1844 -0.4655
22932W        W39193   1.644   3.856  13.844 -0.1029 -0.3116 -0.0007
22933W        W39194   8.409   4.647  11.887  0.2452  0.2737 -0.1369
22934W        W39195  16.305  17.733   3.675  0.1289 -0.1711  0.1400
22935W        W39196   1.005   0.429  13.575 -0.3509  0.1422 -0.1160
22936W        W39197  14.971   6.849   0.400  0.0568 -0.1984  0.0141
22937W        W39198  13.731   4.664  12.617 -0.0374  0.3944  0.1811
22938W        W39199  12.695   4.032  12.165 -0.0009  0.2872 -0.2183
22939W        W39200  17.261   4.742  10.450 -0.0110  0.0135 -0.0119
22940W        W39201   1.231   7.574   2.938  0.0093  0.0648  0.0447
22941W        W39202   0.636  11.697  10.529  0.0788 -0.1005 -0.1825
22942W        W39203  16.769   7.805  14.128 -0.1685 -0.1300 -0.0260
22943W        W39204   2.068   3.965   0.878  0.0029  0.0123  0.1228
22944W        W39205   4.492  12.410   9.977 -0.0630  0.4952 -0.0259
22945W        W39206   2.441  12.316  14.303  0.1617  0.1657  0.1212
22946W        W39207   0.620   7.788  13.633  0.0354  0.0431  0.2688
22947W        W39208  11.370   4.515   5.262 -0.2903 -0.2653 -0.0758
22948W        W39209   0.748   2.657  12.740  0.6051  0.2842  0.1885
22949W        W39210  14.667  13.650   3.391 -0.3352  0.0356 -0.3307
22950W        W39211   5.927   4.194   4.386 -0.1322  0.0113 -0.2306
22951W        W39212   5.880   6.061   0.776  0.1523 -0.0365  0.0096
22952W        W39213   8.304   3.042   0.144 -0.1989  0.0624 -0.0538
22953W        W39214  11.280  18.134   0.268 -0.1475 -0.0239  0.0822
22954W        W39215  11.850  15.415  13.629 -0.1069 -0.1362 -0.0683
22955W        W39216   1.912  15.148   2.624 -0.0853  0.0443 -0.3708
22956W        W39217  16.476  13.826   0.828  0.2113 -0.2421 -0.0005
22957W        W39218   4.934  10.391   3.836 -0.0670 -0.0150  0.2712
22958W        W39219  11.751  13.815   3.949  0.5040  0.0352 -0.0549
22959W        W39220  13.736   5.990   4.901 -0.0973 -0.2210 -0.0479
22960W        W39221   0.642   5.377  11.003 -0.0575  0.0085 -0.2409
22961W        W39222   8.755   4.095   5.426  0.2811 -0.0861  0.0353
22962W        W39223  11.905  12.233  14.434  0.3441  0.1546 -0.0060
22963W        W39224  14.033   2.224  12.914  0.3366  0.0307  0.4360
22964W        W39225  12.607   7.096   1.374  0.2936 -0.0967  0.0925
22965W        W39226   3.293  14.347   4.620 -0.0522 -0.0941 -0.1363
22966W        W39227  14.453  12.224   5.598 -0.1111  0.4130 -0.2121
22967W        W39228   5.274   6.077   5.110  0.1720 -0.0750  0.1982
22968W        W39229   5.385  16.859   5.234 -0.0166 -0.0801  0.0786
22969W        W39230   6.106   5.379   4.464  0.0178 -0.1231 -0.2355
22970W        W39231  10.873   4.349   4.516 -0.1301  0.0225  0.1735
22971W        W39232  14.172  18.245  11.129 -0.1773 -0.2775  0.1892
22972W        W39233  10.407  13.792   1.717  0.1356  0.1346  0.2545
22973W        W39234   5.824   9.709  14.711  0.1650 -0.1507 -0.2736
22974W        W39235  12.761   2.805   2.597 -0.0710  0.1603 -0.2434
22975W        W39236  14.297  10.572   2.573 -0.1959 -0.1996 -0.0370
22976W        W39237  13.546   4.489  13.545  0.2542  0.2306  0.0551
22977W        W39238  17.205   1.439   3.394  0.2021  0.1655  0.0577
22978W        W39239  15.468  14.257  13.611 -0.4149  0.0411  0.0962
22979W        W39240  15.322  18.445  13.997 -0.2537  0.0067  0.2665
22980W        W39241  16.617   4.140   4.781 -0.1082 -0.2295 -0.2302
22981W        W39242   6.898   4.807  15.453 -0.1687  0.2164  0.0440
22982W        W39243   1.007   7.761   9.837  0.0362 -0.2827 -0.1091
22983W        W39244  15.935  15.305   3.941 -0.0269  0.2309 -0.0672
22984W        W39245  13.748   8.083  13.906  0.2728  0.2411  0.3627
22985W        W39246  13.821   0.148  13.643  0.1066 -0.0174 -0.3871
22986W        W39247   3.587  14.060  15.301  0.0552  0.2155  0.1040
22987W        W39248   9.412  13.898   2.991 -0.0011 -0.0005  0.3312
22988W        W39249  11.700  13.777  13.829 -0.0591  0.0241  0.0639
22989W        W39250   6.637   6.469  14.209  0.0008  0.0945  0.3521
22990W        W39251   0.127  17.736   2.092 -0.1274  0.0224 -0.2879
22991W        W39252   6.852  18.760  14.194  0.0797 -0.0473  0.0759
22992W        W39253   3.699  15.754  14.540 -0.0356  0.1687  0.0437
22993W        W39254   0.100  13.527   0.334  0.0522  0.0590  0.0943
22994W        W39255   9.731   9.556   2.624 -0.0344 -0.0157  0.3425
22995W        W39256   8.912  17.093   3.559  0.1319 -0.0606 -0.0682
22996W        W39257   1.414  15.039  14.629  0.2892  0.0689 -0.2938
22997W        W39258   2.043  18.201   2.402 -0.1081 -0.1918  0.1075
22998W        W39259  16.531  16.510  15.521  0.0536 -0.4273 -0.1081
22999W        W39260   5.682  11.797   4.825  0.1988 -0.1465 -0.1035
23000W        W39261   5.958   2.301   1.668 -0.1587 -0.0385 -0.2011
23001W        W39262  14.929   4.299   1.049 -0.0018 -0.2088  0.1345
23002W        W39263  13.063   1.865  14.484  0.0935 -0.1733 -0.3953
23003W        W39264   3.693  15.540  15.046  0.0685 -0.1994  0.2520
23004W        W39265  11.668   0.350   1.930 -0.3654 -0.0594  0.1012
23005W        W39266  13.340  15.505  10.137 -0.0253 -0.5252  0.3629
23006W        W39267   2.087   1.658  10.584 -0.1315 -0.0023  0.3714
23007W        W39268  15.473   8.218  11.310 -0.2165  0.1830 -0.0795
23008W        W39269  14.998  17.026   3.698  0.1570 -0.1406 -0.0626
23009W        W39270   3.883   5.227   0.751  0.1238 -0.1042 -0.1823
23010W        W39271  12.649  16.572   4.236 -0.1834 -0.0362  0.0939
23011W        W39272   0.991  10.763  15.497 -0.3380 -0.0530  0.1949
23012W        W39273  13.240   9.367   2.959  0.0788  0.3513 -0.1739
23013W        W39274  13.945   5.599   0.729 -0.2224  0.2697  0.2480
23014W        W39275  16.091  14.724  15.413 -0.4375 -0.0636  0.0053
23015W        W39276  18.442   0.618  11.522  0.0817  0.1024 -0.0306
23016W        W39277   1.989  10.178  12.365 -0.0094 -0.0751  0.1424
23017W        W39278  11.404   3.850  11.308 -0.1020 -0.1775 -0.0747
23018W        W39279  11.131   7.158   0.260  0.3433  0.1437 -0.0697
23019W        W39280   0.473  13.302   1.445  0.0825 -0.0433  0.1658
23020W        W39281   5.676  14.556   2.786 -0.1171 -0.1475  0.4070
23021W        W39282   7.429   2.836   4.031  0.1332  0.2826  0.0557
23022W        W39283   7.734   8.048  13.565 -0.4491 -0.1207  0.0601
23023W        W39284  12.902  11.168  12.257  0.2387  0.0946 -0.1626
23024W        W39285  15.578  12.486  15.571  0.0646  0.0733 -0.1770
23025W        W39286  13.494   4.157   2.235 -0.1506  0.1466  0.0230
23026W        W39287   7.830  17.448   3.198  0.1039 -0.1255  0.2021
23027W        W39288  11.763   9.994   1.112 -0.0555  0.2014  0.1169
23028W        W39289  14.778   4.030  11.075  0.1397 -0.3704 -0.0625
23029W        W39290   3.451   7.872  14.262  0.1133 -0.2187 -0.1076
23030W        W39291  11.223   0.946   4.036  0.1973 -0.0479  0.0663
23031W        W39292   5.449   6.329  12.113  0.0655 -0.0867 -0.1661
23032W        W39293   9.259   6.610  14.575 -0.2023 -0.2926 -0.0215
23033W        W39294   2.185   1.799  12.066 -0.2355 -0.1228 -0.2697
23034W        W39295   4.842   1.133  14.243 -0.1822  0.1514 -0.1545
23035W        W39296   3.924   8.531   3.831  0.1350  0.0021  0.0882
23036W        W39297  17.044  15.083  14.701  0.0578 -0.1328  0.0988
23037W        W39298  18.405   8.177  11.019 -0.1447  0.1354 -0.1028
23038W        W39299  11.500  18.728   5.100  0.2007 -0.2249 -0.1291
23039W        W39300   5.505   2.555   5.569 -0.0779 -0.0231  0.1697
23040W        W39301   3.253   5.919  13.035  0.0367  0.4108 -0.1657
23041W        W39302  13.908  16.870   1.489 -0.1308  0.0282  0.3181
23042W        W39303  14.898   0.550  12.768  0.3352  0.1707  0.2792
23043W        W39304  14.675   9.711   2.033  0.1659 -0.0697  0.0923
23044W        W39305   3.538   0.504   1.498  0.0510 -0.1316  0.0194
23045W        W39306   4.982   6.659   0.325 -0.4295  0.3119 -0.0004
23046W        W39307   1.670  12.054   3.863  0.0727 -0.1478 -0.1509
23047W        W39308   2.527   3.315   3.825 -0.2003  0.0423 -0.1235
23048W        W39309  13.453   8.793   5.043  0.1272 -0.1183 -0.2870
23049W        W39310  15.027  14.323  12.147  0.2107  0.0859  0.0929
23050W        W39311  13.313   5.556  11.065 -0.2210 -0.2416  0.0803
23051W        W39312  10.201   7.772  13.838  0.0781 -0.0711 -0.3111
23052W        W39313   5.946   9.809  14.253 -0.4261 -0.2410 -0.0920
23053W        W39314  13.021  16.587  13.709 -0.4094  0.0008 -0.2707
23054W        W39315  13.464   7.870   2.714 -0.0226 -0.0546 -0.5613
23055W        W39316   4.743  10.183  14.277  0.1704  0.0323 -0.1453
23056W        W39317  15.299  11.073  12.687 -0.1223  0.0072  0.1508
23057W        W39318   4.305   9.020   0.466  0.3710 -0.3526 -0.2183
23058W        W39319   4.734  14.243   4.976 -0.0938  0.1906  0.0450
23059W        W39320  14.873   2.086  13.484  0.1182  0.0356 -0.0030
23060W        W39321  12.890  18.821  14.255 -0.0963 -0.1233  0.0808
23061W        W39322   7.698   8.522  15.229 -0.1267  0.0677  0.2371
23062W        W39323  12.938   7.175  15.026  0.1714  0.0825 -0.0923
23063W        W39324   6.527   9.220  14.837 -0.2455 -0.0700  0.3682
23064W        W39325   4.230  13.586  11.289 -0.1171  0.2908 -0.0508
23065W        W39326   8.227   7.236   2.673 -0.1203 -0.0276  0.0567
23066W        W39327  16.292  10.815  10.769  0.1759 -0.0962 -0.6212
23067W        W39328   5.546  15.980   4.447  0.2374 -0.2221 -0.0865
23068W        W39329   0.778  12.499   3.950 -0.4328  0.3340 -0.0427
23069W        W39330  11.593   1.776  10.151  0.2461  0.2744 -0.0556
23070W        W39331   2.840   6.099  15.301  0.0258 -0.1281  0.0504
23071W        W39332  17.083  16.546  12.157 -0.1489  0.0594 -0.1627
23072W        W39333  12.353  14.242   1.042  0.0123  0.0037 -0.3078
23073W        W39334  10.214   0.568  12.315  0.2595 -0.1570 -0.0097
23074W        W39335   0.807  14.129   1.213  0.0102 -0.2600  0.0438
23075W        W39336   4.335   8.379   2.823  0.0281  0.1714  0.1165
23076W        W39337   9.783   8.933  14.062 -0.1158  0.0691 -0.1440
23077W        W39338  12.209  16.465   2.904 -0.0055 -0.2344 -0.2196
23078W        W39339  10.566   1.481  13.586 -0.1940  0.1044  0.4524
23079W        W39340  15.581  13.513   3.953  0.1341  0.4186 -0.1402
23080W        W39341  18.483   1.653   0.713  0.2168  0.1407  0.2337
23081W        W39342   7.414   5.760   2.493 -0.0791 -0.2192 -0.3462
23082W        W39343   9.168   0.664   2.923  0.1088 -0.0445 -0.1104
23083W        W39344   2.918   3.783  11.139  0.0379  0.3285 -0.2705
23084W        W39345   0.781   0.332   9.740 -0.1662  0.2054  0.1770
23085W        W39346   3.268   9.593  13.459  0.2045 -0.2117  0.1085
23086W        W39347  12.926  18.546   3.595 -0.0449 -0.1632  0.2071
23087W        W39348   7.040   7.107   0.014  0.2285 -0.0699 -0.2139
23088W        W39349  14.032   6.177   2.617 -0.2759  0.3737 -0.0388
23089W        W39350   4.358  14.097   3.065  0.0455 -0.2890  0.0189
23090W        W39351   6.712   6.671   6.403  0.2261 -0.2168 -0.1273
23091W        W39352  14.986   4.685  12.389 -0.2702 -0.1727 -0.0381
23092W        W39353  14.063   0.831   5.612 -0.0966  0.2027 -0.2179
23093W        W39354  11.264  10.172   2.094 -0.0577 -0.2173  0.0843
23094W        W39355  11.957  15.779  14.061 -0.0562 -0.0725 -0.2995
23095W        W39356  14.369  17.051  11.754  0.0419  0.1895  0.1438
23096W        W39357   5.250   1.033   0.020  0.0608 -0.1727 -0.0527
23097W        W39358  17.099   9.292  14.366 -0.1407  0.0551 -0.0162
23098W        W39359   4.731  18.473  11.494  0.0652 -0.1063  0.1101
23099W        W39360   5.071  13.166   5.163 -0.0795  0.0995 -0.0380
23100W        W39361   9.705  18.729  12.056 -0.0875  0.0104  0.1514
23101W        W39362   2.944  16.735  10.479  0.0886  0.1328 -0.0051
23102W        W39363   1.392  12.488   0.582  0.1477 -0.3555  0.3208
23103W        W39364   5.083   3.171  12.799  0.1954 -0.0994 -0.3839
23104W        W39365  11.298  11.090   2.506 -0.0913 -0.0566 -0.2249
23105W        W39366   6.823  12.793   1.998  0.0956  0.3312 -0.0843
23106W        W39367   2.040   6.988   1.859  0.0869  0.2994 -0.1291
23107W        W39368  12.870   9.103  15.452  0.1743 -0.1419  0.1780
23108W        W39369   5.196   5.687   0.569 -0.1977  0.1093  0.0744
23109W        W39370  10.649  10.957   4.922 -0.1746  0.1150  0.1040
23110W        W39371  10.717  16.968   1.161  0.1136 -0.3257 -0.1893
23111W        W39372   1.603   5.721   1.602  0.0434  0.0071 -0.0780
23112W        W39373  10.380  18.695   2.092 -0.0878 -0.1411  0.0621
23113W        W39374   7.897   0.093  15.398 -0.0025 -0.0451 -0.2325
23114W        W39375  14.828  14.012  14.825 -0.1694  0.2031  0.1719
23115W        W39376  11.296  14.137  11.521  0.1653 -0.4228  0.3539
23116W        W39377  10.185  13.566   1.028 -0.1046 -0.1595 -0.0601
23117W        W39378   6.747   3.187   0.208  0.0864 -0.1060 -0.0123
23118W        W39379  12.077   6.694  14.802 -0.2228  0.0252 -0.4286
23119W        W39380   3.715  14.248   2.011  0.5269 -0.0110 -0.5120
23120W        W39381  10.501  17.705  13.638 -0.1842  0.1447  0.1683
23121W        W39382   6.557  15.027   1.816 -0.4141  0.0004 -0.0723
23122W        W39383  16.200  11.226  15.161  0.0617  0.2338  0.0972
23123W        W39384  10.584   0.678   1.667 -0.1525 -0.2075 -0.0328
23124W        W39385  12.933   4.516   3.881 -0.1190 -0.2295 -0.2290
23125W        W39386  18.336  16.594   1.134 -0.4339  0.1712 -0.2202
23126W        W39387   7.865   5.156  14.311 -0.1161  0.0727  0.0861
23127W        W39388   7.610   4.377   6.045  0.0045  0.2413  0.0343
23128W        W39389  17.549  12.997   5.197 -0.1862  0.0081  0.1218
23129W        W39390  17.051  17.537   1.608  0.0610  0.1001 -0.1002
23130W        W39391  17.806   6.193   2.979 -0.1132  0.3022 -0.0243
23131W        W39392   2.192  10.430   1.330  0.0944 -0.2861  0.4453
23132W        W39393   9.369   8.184   4.339  0.1073  0.2011 -0.1292
23133W        W39394  10.260  13.169  13.787 -0.1097 -0.0834  0.2216
23134W        W39395  11.913  17.466  12.343 -0.0737 -0.2466  0.3209
23135W        W39396   5.230  18.415   1.580  0.1927 -0.4580 -0.0422
23136W        W39397  12.585  10.085   5.282  0.0763 -0.1992  0.0288
23137W        W39398   6.028  17.020  12.778 -0.0074  0.3093 -0.0771
23138W        W39399   5.722  12.531   5.303  0.5876  0.0558 -0.1265
23139W        W39400  18.084   6.356   4.761  0.1098  0.0742  0.1658
23140W        W39401   3.962   8.778   0.092  0.1825  0.2672  0.1847
23141W        W39402  18.481  18.794  10.427  0.2912 -0.2577 -0.0462
23142W        W39403  14.310   8.246   2.260 -0.0551  0.0387 -0.0207
23143W        W39404  15.719   5.902  14.545  0.0853 -0.1777  0.0896
23144W        W39405  11.075   2.946   2.985  0.1706 -0.1236  0.2022
23145W        W39406   8.860   1.531   5.420  0.0808  0.1996  0.1847
23146W        W39407   4.581  16.399   2.385  0.3602  0.0738  0.0673
23147W        W39408  18.415   5.954  12.495 -0.0164 -0.2534 -0.0578
23148W        W39409   5.282  11.424   1.683 -0.0857 -0.0115 -0.0016
23149W        W39410  10.740  10.598  13.103 -0.2862  0.0087  0.0741
23150W        W39411   7.099  12.189  12.561 -0.1072  0.1673  0.2371
23151W        W39412  18.796   9.509   4.340 -0.0441 -0.3354  0.0521
23152W        W39413   4.050   7.004  13.861 -0.1762 -0.0423 -0.2317
23153W        W39414   2.718  17.440   2.764  0.2371  0.2705  0.1497
23154W        W39415   6.489  15.424  13.829 -0.3489  0.2199  0.0197
23155W        W39416   5.228   0.785  12.060 -0.1885  0.1161 -0.0939
23156W        W39417  12.551  13.914  12.095  0.0134  0.4141  0.1622
23157W        W39418   4.704   5.055  14.979  0.0791 -0.0173 -0.3980
23158W        W39419  14.611   9.531   3.242 -0.0282  0.0398 -0.1716
23159W        W39420  10.551  15.766   0.925  0.1891 -0.0486 -0.3673
23160W        W39421  13.736  12.227  14.386 -0.1288 -0.0394 -0.0596
23161W        W39422  12.522  15.095   4.437 -0.1332  0.2031  0.1914
23162W        W39423  14.134   0.687   2.968 -0.5803  0.2331 -0.0690
23163W        W39424   8.259   0.516   1.225 -0.2955 -0.0106  0.1681
23164W        W39425   4.705   4.520   1.962 -0.0226  0.1041  0.0779
23165W        W39426  15.042   2.150   4.913  0.4124 -0.1185 -0.0126
23166W        W39427   6.489   3.465   2.850  0.2054  0.3328  0.1262
23167W        W39428  11.255   5.335  11.298  0.1248 -0.1336 -0.1819
23168W        W39429  10.503   7.615   5.227 -0.2332 -0.0859  0.1329
23169W        W39430  18.039  12.317  11.653  0.2699 -0.1974 -0.1527
23170W        W39431  16.471  10.532   0.650  0.0246 -0.3134 -0.2738
23171W        W39432   8.443  18.151   0.883  0.1736 -0.0458  0.0146
23172W        W39433   5.331  11.431   4.998 -0.4795  0.0006 -0.0908
23173W        W39434  16.024   6.697   5.017 -0.3299  0.1846  0.4099
23174W        W39435   1.262  14.296   4.267  0.4543 -0.1523  0.1869
23175W        W39436   9.511  15.252   0.507 -0.2344  0.0650 -0.3404
23176W        W39437  12.105  14.326   1.500  0.0548  0.2455 -0.3233
23177W        W39438   8.678  12.911  13.558  0.0001  0.1636 -0.2414
23178W        W39439  17.989   1.603  14.193 -0.2518 -0.1622  0.3110
23179W        W39440  17.970   9.473   5.088 -0.0714 -0.2733  0.1216
23180W        W39441  16.869  17.376   2.626  0.0156 -0.4055  0.0219
23181W        W39442   6.191   6.279  13.769 -0.2909 -0.1006 -0.2131
23182W        W39443   6.329  17.478   2.226  0.1758  0.1636  0.0228
23183W        W39444  12.440  15.817   3.354 -0.1633 -0.3710  0.1397
23184W        W39445   7.632   3.327  13.617 -0.0510 -0.1283 -0.4596
23185W        W39446   1.285   6.581  10.734 -0.0962 -0.1234 -0.0713
23186W        W39447  18.171  11.457  13.393 -0.0480  0.0089 -0.0669
23187W        W39448  16.123   1.871   3.405 -0.0724 -0.0444  0.4586
23188W        W39449   3.078  18.711  12.350  0.0080 -0.3369 -0.2796
23189W        W39450  15.955   0.963   1.341  0.1739 -0.0417 -0.1834
23190W        W39451  17.304  13.272   4.009 -0.0820  0.0771  0.3328
23191W        W39452   3.471   7.482  11.505  0.0159  0.1591  0.1983
23192W        W39453   9.621   5.200  13.842 -0.0282  0.1517 -0.0451
23193W        W39454  18.108   6.623  11.490 -0.0546  0.2171 -0.2102
23194W        W39455  11.079   0.591   1.898 -0.1929 -0.3256 -0.0987
23195W        W39456   5.246   6.076  13.560  0.3161 -0.0730 -0.0518
23196W        W39457   9.059   6.002   5.823 -0.0303 -0.0153  0.1077
23197W        W39458  11.878  14.066  13.328 -0.1661  0.2794 -0.1862
23198W        W39459   5.248  11.888   0.826 -0.0505  0.2481  0.1550
23199W        W39460  13.337   5.769   9.780  0.2108 -0.0432  0.1588
23200W        W39461   1.796   6.294   0.977  0.0778  0.1723  0.0348
23201W        W39462   5.674  18.088   2.825 -0.3370  0.0021 -0.1054
23202W        W39463  13.311   0.510   1.726  0.1946 -0.1887  0.2876
23203W        W39464  14.751   9.499  13.328 -0.1196  0.1097  0.0042
23204W        W39465  13.579   2.398  15.104  0.2093 -0.1618  0.2936
23205W        W39466  12.240   9.816  11.734  0.2454 -0.0808 -0.0354
23206W        W39467  12.955   9.821   0.348  0.2219  0.0747  0.0212
23207W        W39468   5.049   8.107   0.417 -0.2120 -0.2473 -0.2989
23208W        W39469   5.727  16.344   5.073 -0.3606  0.1232  0.2208
23209W        W39470   6.827  10.753   3.199  0.4563 -0.3305 -0.1461
23210W        W39471  11.955   9.886  12.222  0.1089  0.1337 -0.0934
23211W        W39472   2.111   8.796   4.188 -0.0105  0.1367  0.0535
23212W        W39473   9.294  11.700   4.137 -0.2074  0.0130  0.0832
23213W        W39474   1.431  12.188  10.786  0.1950 -0.2696 -0.0552
23214W        W39475   9.214   3.856   0.036 -0.0103 -0.0226 -0.0469
23215W        W39476  16.309  16.505  13.269  0.0710  0.1361 -0.1549
23216W        W39477   5.236   2.827   0.469 -0.3169  0.0732  0.3155
23217W        W39478   8.146   4.840  14.774 -0.2483 -0.0615  0.2382
23218W        W39479   8.150  15.132   3.421 -0.0228 -0.2177 -0.0514
23219W        W39480   9.889   8.724  12.369 -0.1483  0.3650 -0.1060
23220W        W39481   6.979   1.518   0.776  0.1037  0.1698  0.2632
23221W        W39482   7.898   2.289  15.243 -0.0470  0.1714 -0.0112
23222W        W39483   1.705   3.872   1.621  0.1057  0.3342 -0.0203
23223W        W39484   9.558  15.662   4.563 -0.0781 -0.0684 -0.0378
23224W        W39485  13.398   8.445   1.046 -0.0818  0.2448  0.0314
23225W        W39486   7.135   1.608   5.909 -0.0373  0.0343  0.0416
23226W        W39487   3.335   6.556  10.220 -0.0709  0.2213 -0.2220
23227W        W39488   7.182   0.665   2.792 -0.1870  0.0830 -0.2594
23228W        W39489  10.712   1.866   3.654 -0.1912  0.1578 -0.3758
23229W        W39490   7.999  18.627   3.645 -0.5434 -0.1289 -0.0708
23230W        W39491   7.144   6.967   4.782  0.1611  0.0593 -0.0215
23231W        W39492   9.035   8.199  12.769 -0.1414 -0.1373 -0.1338
23232W        W39493  17.266   3.561  15.149 -0.0449 -0.1278  0.0005
23233W        W39494   0.019  18.006  11.003  0.2720  0.1507  0.2106
23234W        W39495   8.435   4.491  12.868 -0.1344  0.0197 -0.0576
23235W        W39496   1.473   9.930  10.932  0.0414 -0.0695  0.0928
23236W        W39497  18.211   9.027   3.272  0.0641 -0.3126 -0.0602
23237W        W39498  13.345   8.373   0.513 -0.0533  0.1367  0.1065
23238W        W39499  15.331  11.489   0.263 -0.0570  0.1425 -0.0726
23239W        W39500   0.549   0.223  13.667 -0.2631 -0.2656  0.0917
23240W        W39501   1.654  16.315  14.400  0.0835 -0.1265  0.0088
23241W        W39502   1.756   7.404  12.732  0.2635  0.3042  0.1650
23242W        W39503  15.284  13.809  11.307 -0.1913 -0.1303 -0.2400
23243W        W39504   2.157  12.600  13.910 -0.1159  0.0263  0.2200
23244W        W39505   6.268   4.464  12.806 -0.3437 -0.2324  0.0329
23245W        W39506   1.129   8.948  13.160  0.1690 -0.1260 -0.1667
23246W        W39507  17.534  12.239  10.491  0.4295 -0.1094 -0.0069
23247W        W39508   8.874  18.628   1.231  0.2982  0.1823 -0.1054
23248W        W39509   9.096   8.747   6.455 -0.1117 -0.2056  0.3331
23249W        W39510   5.406  15.738  11.694 -0.0790  0.1690  0.1888
23250W        W39511   1.663   3.969  14.690 -0.2574 -0.0860 -0.0057
23251W        W39512   7.342   6.866   3.758 -0.1137  0.2127 -0.0212
23252W        W39513  14.934  11.805   4.905  0.0818 -0.0754 -0.1170
23253W        W39514  10.185   9.921  10.461  0.0659 -0.0474  0.1126
23254W        W39515  18.417  11.727  14.140  0.0750 -0.0384  0.0052
23255W        W39516   6.507  16.290  14.018  0.3393 -0.0245 -0.2071
23256W        W39517   7.261   4.323  12.195  0.2133 -0.0242 -0.0147
23257W        W39518  15.932   4.878   4.946  0.0487 -0.0776 -0.0656
23258W        W39519  13.165  12.509   0.508  0.2047  0.3531  0.2417
23259W        W39520   6.779   3.164   1.900 -0.0139 -0.2172 -0.2422
23260W        W39521   3.411  15.017  12.558 -0.0743 -0.1388 -0.0049
23261W        W39522  14.993   9.880   4.018  0.3050  0.1259  0.1322
23262W        W39523  10.895   3.471   2.669  0.0215 -0.0917 -0.1257
23263W        W39524  17.322  11.075  12.237  0.1027 -0.0178 -0.4903
23264W        W39525  15.888  13.337  14.579 -0.0083 -0.0440 -0.3233
23265W        W39526  13.268  11.175   0.233  0.0766 -0.1446  0.2670
23266W        W39527   8.908  14.104  14.332  0.0810 -0.2908 -0.0383
23267W        W39528  13.102   2.462   1.744 -0.3918 -0.4266 -0.1461
23268W        W39529  11.689   9.308   0.384  0.1520 -0.1869  0.2093
23269W        W39530   6.662   3.193  12.580  0.1021  0.0493 -0.1355
23270W        W39531  13.476  10.120  13.700  0.1126  0.0068  0.2187
23271W        W39532  14.832  18.439   3.654  0.1928 -0.3115 -0.1844
23272W        W39533  18.723  18.671   0.942 -0.0649 -0.2422 -0.1365
23273W        W39534   5.040  17.239   0.869  0.4280  0.0739  0.0468
23274W        W39535  16.161  14.532   2.265 -0.0449 -0.0083 -0.0784
23275W        W39536  14.813   2.136  11.181  0.0826 -0.0627 -0.1713
23276W        W39537   2.824   8.548   3.582  0.0189  0.0096  0.1906
23277W        W39538  13.807   2.068   3.381  0.0123 -0.0379  0.2250
23278W        W39539  15.986   9.463   1.006 -0.3423  0.3594  0.0207
23279W        W39540  17.587   6.657  13.464  0.0047 -0.2068  0.0016
23280W        W39541   9.453   7.268  14.026  0.1561  0.1123  0.0929
23281W        W39542   5.794   2.738  13.823  0.1788  0.1612  0.1773
23282W        W39543  18.816   8.590   1.538  0.0183 -0.1199  0.0634
23283W        W39544  17.469   0.682  12.583 -0.1411 -0.0283  0.3283
23284W        W39545   3.139  15.936   2.828  0.0707  0.0882 -0.1404
23285W        W39546   2.606  15.579  11.275  0.0045  0.0340  0.1085
23286W        W39547   2.210  10.904   1.429 -0.0861 -0.1942 -0.0777
23287W        W39548   9.213   3.945   1.452  0.1932  0.2190 -0.3129
23288W        W39549   3.271  18.434   1.182  0.1937 -0.0886  0.3152
23289W        W39550   3.053   0.190  14.189  0.4300  0.3009 -0.3304
23290W        W39551  10.605   6.469  15.526  0.0593 -0.1270 -0.2015
23291W        W39552   7.646  13.681  13.265  0.3607  0.0005 -0.3459
23292W        W39553   2.403   8.682   3.803 -0.1185  0.0616  0.0954
23293W        W39554   9.528   4.197   1.835 -0.3537  0.0083  0.0703
23294W        W39555   5.441  17.262  11.720  0.1931  0.1371  0.1835
23295W        W39556   5.310  14.373  12.102 -0.0415 -0.0473 -0.2280
23296W        W39557  11.590   2.405   3.160 -0.1868 -0.1743  0.2561
23297W        W39558   4.567  13.136   2.848  0.1764 -0.0265 -0.1036
23298W        W39559  15.073   8.689   0.685  0.0032  0.2885  0.2407
23299W        W39560  14.013  15.666   2.246 -0.0686  0.0359 -0.1483
23300W        W39561   6.016  15.501   0.369 -0.1792  0.0175  0.2785
23301W        W39562   6.636   2.984   6.302  0.1383 -0.1600 -0.0228
23302W        W39563  17.228   1.867   3.692  0.3001  0.1471  0.2340
23303W        W39564  15.152   6.128  11.555 -0.3495 -0.1948  0.1684
23304W        W39565   9.805   9.936   2.331  0.2394  0.0084  0.1464
23305W        W39566   6.592   4.236   2.571 -0.2261 -0.1253 -0.2003
23306W        W39567  12.841   9.535  13.060  0.1631  0.1210  0.1287
23307W        W39568  17.776  10.790   2.579  0.3033  0.2902 -0.1492
23308W        W39569  14.193  11.998   3.042 -0.0429  0.2925 -0.1678
23309W        W39570   9.465  13.406  13.408 -0.0937 -0.0435  0.1547
23310W        W39571   5.454  18.560  10.131  0.0983 -0.2159 -0.2189
23311W        W39572  16.364   2.419   4.480 -0.3493 -0.1564 -0.1174
23312W        W39573  15.777   0.711   4.801 -0.1794  0.0147 -0.0579
23313W        W39574   7.963   1.421   1.429  0.0789  0.1754 -0.2617
23314W        W39575   7.640   9.630   9.890  0.1336  0.1475 -0.1895
23315W        W39576  18.370   3.208  14.625 -0.2390  0.1021 -0.2723
23316W        W39577   2.610  13.905  13.170  0.0337  0.0831  0.0182
23317W        W39578  14.350   2.070  12.440  0.1714  0.0317  0.0210
23318W        W39579   2.440  13.312  14.551 -0.0730 -0.0325 -0.0241
23319W        W39580  18.680  14.703  11.655  0.1416 -0.0435  0.3759
23320W        W39581  10.270   2.428   1.046 -0.2518  0.0451  0.1721
23321W        W39582   0.659   1.019   3.166 -0.2107 -0.0523 -0.1324
23322W        W39583   8.856  18.032   2.625  0.0487 -0.1184  0.0250
23323W        W39584  11.959   7.801  11.589 -0.2100 -0.3557  0.0630
23324W        W39585   0.219  17.542   3.078  0.1702 -0.1470  0.0485
23325W        W39586   5.990   2.823  11.384 -0.0460 -0.1685  0.0988
23326W        W39587   5.324  16.953   4.760  0.1392 -0.2555  0.1585
23327W        W39588  16.423   9.457  12.303  0.0137 -0.3451  0.3475
23328W        W39589   8.136  18.360  14.101  0.0711  0.1050  0.1234
23329W        W39590  18.185   1.970  14.457  0.2459  0.0811 -0.3285
23330W        W39591   6.386  16.348   2.200 -0.0334  0.0379  0.0394
23331W        W39592   0.670   0.367   0.611  0.3337 -0.0110  0.0500
23332W        W39593  12.893   0.527   2.011  0.0356 -0.0054 -0.2996
23333W        W39594  11.059  10.216   5.345 -0.2609  0.1380  0.0021
23334W        W39595  16.970   4.015  13.928  0.0092 -0.0971 -0.1030
23335W        W39596  11.677  13.519  11.997  0.0614  0.0261 -0.2712
23336W        W39597  13.417  14.849  13.414  0.2528 -0.2809  0.3414
23337W        W39598   8.453   1.531   3.478  0.0450  0.0055 -0.2959
23338W        W39599  11.569  14.209   4.279 -0.1231  0.0761  0.1118
23339W        W39600  17.051  15.205   5.107  0.1746 -0.0164  0.0395
23340W        W39601   0.609  14.396   2.994 -0.5469  0.0929  0.1153
23341W        W39602  11.102   9.025  14.444 -0.1089  0.0071 -0.0045
23342W        W39603   4.615  18.526   3.562  0.1777 -0.0142 -0.2906
23343W        W39604  12.766   1.971  11.252  0.1697 -0.0454 -0.1798
23344W        W39605   1.747   2.194   4.356  0.3598  0.1263  0.1880
23345W        W39606  16.336  17.990   2.114  0.0023  0.0913 -0.1272
23346W        W39607   4.456   7.114   0.872  0.0485  0.1608  0.0032
23347W        W39608  15.864  12.629  13.641  0.5003 -0.2444  0.3387
23348W        W39609   6.125   2.835   0.474 -0.0872  0.4490 -0.0187
23349W        W39610   5.073   9.388   3.653  0.0340 -0.0829 -0.0147
23350W        W39611   2.744   6.264   3.897 -0.0475 -0.0493 -0.0367
23351W        W39612  17.817   3.897   0.526 -0.3511  0.0629 -0.3701
23352W        W39613   4.792   3.491  11.011 -0.4217  0.1254  0.1039
23353W        W39614  10.918   6.453   1.537  0.2198 -0.0468  0.2842
23354W        W39615   8.294  17.633  15.353 -0.2951  0.2378  0.0257
23355W        W39616  10.915   5.512  11.649  0.2830 -0.1715  0.1728
23356W        W39617  16.233   9.820   1.766  0.0278 -0.0658  0.1450
23357W        W39618   2.184   8.273  10.855 -0.0241 -0.0465 -0.2701
23358W        W39619  16.900  17.455   3.178 -0.0778  0.3567  0.1091
23359W        W39620   5.810   1.652  11.276  0.1292  0.0463  0.0858
23360W        W39621   4.582  17.765   3.807 -0.3451 -0.2090 -0.0789
23361W        W39622   8.656   4.832   0.039 -0.4169  0.0185  0.2038
23362W        W39623   4.826   6.293  13.820 -0.0656 -0.4173 -0.0600
23363W        W39624   4.206  15.433   3.205  0.1382 -0.0102  0.1989
23364W        W39625  12.894  17.492   0.737  0.0511  0.1236  0.0503
23365W        W39626  17.695   8.682   3.571 -0.2288  0.1527  0.0153
23366W        W39627  13.427  15.319   2.708  0.0171  0.1252 -0.1927
23367W        W39628  14.750   6.412   3.305  0.1493 -0.0861 -0.0069
23368W        W39629  12.952   8.145   2.237 -0.2629  0.1868  0.0287
23369W        W39630   0.480   9.552   5.238 -0.3987  0.2967  0.1579
23370W        W39631  16.097   7.991   5.667  0.1003 -0.1205  0.0552
23371W        W39632   6.102  11.073   5.159 -0.0915 -0.1415  0.1068
23372W        W39633  10.010   4.340   1.383 -0.0875 -0.0595 -0.1212
23373W        W39634  10.598   4.761   3.135  0.4338  0.0483 -0.2749
23374W        W39635   6.720  12.916   2.514 -0.0575 -0.0691 -0.0210
23375W        W39636  18.165   3.290   2.344 -0.2152  0.1812  0.1671
23376W        W39637  15.937  18.815  13.154 -0.1117  0.0179  0.0617
23377W        W39638   4.276   6.855  15.536  0.1149  0.1332 -0.0882
23378W        W39639  17.380   0.141   1.440 -0.0615 -0.1519  0.0884
23379W        W39640   0.216  15.358   4.272  0.0248  0.5119 -0.1099
23380W        W39641   8.493   4.020  14.663  0.0003 -0.3229 -0.1929
23381W        W39642   8.826   0.706   5.276 -0.0843 -0.2883  0.0613
23382W        W39643  13.126   4.398   0.121 -0.0534  0.1410  0.2297
23383W        W39644  14.729  14.212  14.309  0.2961 -0.2091 -0.0586
23384W        W39645   2.958  16.526   5.400 -0.1356 -0.0706 -0.2105
23385W        W39646   6.436  10.201   2.882  0.3953 -0.0094 -0.1922
23386W        W39647  10.742   4.842   5.212 -0.1187  0.0708 -0.2096
23387W        W39648   6.010  12.332   1.458 -0.0867  0.2521  0.0203
23388W        W39649   1.467   4.297   1.577 -0.0682 -0.0357  0.2833
23389W        W39650   5.254   4.382  13.856 -0.2888  0.0474  0.1329
23390W        W39651  18.712   0.814   1.211  0.1961 -0.0974 -0.0909
23391W        W39652  15.782  15.258   1.724 -0.2805  0.1300 -0.3691
23392W        W39653   4.591   4.082   4.495 -0.3075  0.2569  0.0395
23393W        W39654  12.282  18.631  11.111 -0.1309 -0.0496 -0.3365
23394W        W39655  11.314   8.229   2.992  0.0472  0.1429  0.1630
23395W        W39656  10.193   9.827  12.776  0.1090 -0.1275 -0.1848
23396W        W39657   5.477  12.100   1.648 -0.1791 -0.0987  0.1591
23397W        W39658  14.468  11.272  13.646  0.3687 -0.0984  0.2418
23398W        W39659   6.595   9.742   2.136  0.0612 -0.1516  0.0749
23399W        W39660  12.611   7.527  15.068 -0.2626  0.0251 -0.1666
23400W        W39661   8.242   3.046   2.264  0.0762  0.2450  0.3351
23401W        W39662  13.921  10.907  15.003 -0.0742 -0.4627 -0.4491
23402W        W39663   2.816   2.792  12.463 -0.2408 -0.1653  0.2156
23403W        W39664  10.538  10.302  13.988 -0.0499 -0.1107  0.1450
23404W        W39665  15.551  16.170   1.932  0.1067  0.1527 -0.1825
23405W        W39666   7.924   3.041  14.401  0.1603 -0.4614  0.1892
23406W        W39667  17.646  18.404   0.852  0.3276 -0.0941  0.3897
23407W        W39668   9.513  13.595   1.857  0.2037 -0.1242 -0.2505
23408W        W39669  16.817  17.618   5.146 -0.2994  0.2973  0.0661
23409W        W39670  10.499  10.233   2.821  0.2838  0.1145  0.0643
23410W        W39671  10.768   3.255  14.649 -0.1147 -0.0701  0.1540
23411W        W39672  15.601  13.848   0.846 -0.0497 -0.1721  0.0747
23412W        W39673   3.503   7.503  15.161 -0.1334 -0.0322  0.2403
23413W        W39674  13.659   4.266   2.747  0.0039  0.2566  0.1503
23414W        W39675  18.451  15.121   4.415 -0.2073  0.0209  0.0537
23415W        W39676   6.523   7.898   2.464  0.0325  0.2097 -0.0051
23416W        W39677  16.777  18.220  11.000  0.2635  0.2435 -0.1138
23417W        W39678   6.923   2.265  15.100 -0.0202 -0.1721 -0.1282
23418W        W39679   5.758  13.996   1.957 -0.1088  0.1752  0.1691
23419W        W39680   0.651   8.944   4.495 -0.2249 -0.0183  0.0100
23420W        W39681   1.877  17.037  12.247 -0.1158 -0.4421  0.1118
23421W        W39682   4.611   1.660   2.554 -0.3111  0.2409 -0.4129
23422W        W39683   8.239  15.105  11.586 -0.0243 -0.0135 -0.0163
23423W        W39684  15.820   5.413   4.200  0.2233 -0.1726  0.0534
23424W        W39685   7.169  12.043   0.728  0.0245  0.1325 -0.1745
23425W        W39686   2.284  15.469  10.805  0.0396  0.1656 -0.1395
23426W        W39687  12.239   6.231  13.378  0.5477  0.1686  0.0563
23427W        W39688  17.387   4.284  14.429  0.0626 -0.2371  0.1902
23428W        W39689   9.581   5.001   3.451 -0.1204 -0.0521  0.1835
23429W        W39690   9.573   3.278  14.010  0.4924 -0.1408  0.0534
23430W        W39691   3.478   7.653   0.248  0.1281 -0.3097 -0.2993
23431W        W39692  14.051  12.371  13.671  0.2417 -0.4199 -0.0558
23432W        W39693   9.328   1.268  12.962 -0.4070  0.1834 -0.0235
23433W        W39694  18.033   5.927  15.527 -0.0136 -0.0619 -0.1064
23434W        W39695  18.180   5.639   2.859 -0.1096 -0.0612 -0.2501
23435W        W39696  16.867   0.170  14.419 -0.2638  0.0783 -0.2418
23436W        W39697   9.103   9.835   3.468 -0.1388 -0.3020 -0.1440
23437W        W39698  15.192  17.844  11.014  0.1380 -0.0394 -0.3331
23438W        W39699   9.907  15.582  12.640  0.3069  0.1697 -0.0525
23439W        W39700  18.708  11.553  11.686  0.0841 -0.1829  0.0910
23440W        W39701  18.561  10.544   2.201 -0.0211 -0.1862 -0.1173
23441W        W39702   0.709  18.100  10.836  0.1765  0.0502 -0.1142
23442W        W39703  17.697  17.810  13.233  0.3656 -0.1564 -0.0648
23443W        W39704   4.481  15.132   3.462 -0.2055 -0.2848 -0.1767
23444W        W39705   0.143   4.369   0.736  0.0088  0.1847 -0.0014
23445W        W39706  15.206   2.390   5.391 -0.0487  0.0290  0.2181
23446W        W39707   6.848  12.571  14.058 -0.1542 -0.0035  0.3759
23447W        W39708  10.181   5.467   3.948 -0.0482  0.4483  0.1952
23448W        W39709   3.770   9.291  15.179  0.1285  0.0234  0.1590
23449W        W39710  12.301   8.238  15.166  0.0174  0.0270 -0.0859
23450W        W39711   3.034   4.697   0.326  0.3678  0.1288 -0.0033
23451W        W39712   0.067   3.887  14.745 -0.1796  0.1881  0.0532
23452W        W39713   4.357   7.838  15.571  0.1086 -0.0147  0.0207
23453W        W39714   8.346   3.895  13.020 -0.0437 -0.1960  0.2535
23454W        W39715   7.275  13.454   5.154 -0.0927 -0.0467  0.3753
23455W        W39716   8.590   1.255  14.665  0.2473 -0.0289  0.0698
23456W        W39717   0.030   7.563  13.631  0.0513  0.0545  0.0701
23457W        W39718  15.667   4.322   1.071  0.0987 -0.3115  0.0507
23458W        W39719  16.584   2.514  11.002 -0.1238  0.0935 -0.1050
23459W        W39720   6.434  10.470  14.546  0.2461 -0.1640  0.2245
23460W        W39721  16.221   1.094  10.659  0.0166  0.2308  0.1110
23461W        W39722   8.654  16.147   3.082 -0.0773 -0.3529  0.1511
23462W        W39723  14.974  10.494  10.141 -0.2321 -0.2775  0.1818
23463W        W39724  16.237  15.679  14.578 -0.2615 -0.1581 -0.5213
23464W        W39725  16.874  16.804  10.719  0.0617 -0.0462  0.4418
23465W        W39726   8.544  16.981   3.988 -0.2645 -0.1007 -0.2492
23466W        W39727  12.361   5.603   3.753  0.0785  0.3129 -0.1904
23467W        W39728   1.317  10.731  13.800  0.2093 -0.2237 -0.1350
23468W        W39729   7.805   2.323   0.576  0.1995  0.0128 -0.0867
23469W        W39730  15.450  10.893   0.392 -0.1278 -0.2204  0.0367
23470W        W39731  11.179  13.630  11.868 -0.1433 -0.0171 -0.1577
23471W        W39732   8.068   8.339  12.074  0.2446  0.1906  0.2676
23472W        W39733  18.534  14.351  12.955  0.5235 -0.1982 -0.0603
23473W        W39734  14.565  10.439  12.252  0.0430  0.3504 -0.2790
23474W        W39735   2.911   4.496  13.927 -0.1792  0.2458  0.1910
23475W        W39736   7.519   0.729   3.831  0.0909 -0.1497  0.0643
23476W        W39737   3.619   1.562   2.745 -0.1799  0.1778 -0.0327
23477W        W39738   2.552  13.591   4.151  0.0871  0.0393 -0.3078
23478W        W39739   0.498  17.775   1.690 -0.1534  0.2049 -0.4796
23479W        W39740   2.475   0.890   4.245  0.2364  0.0824  0.1314
23480W        W39741  12.389  15.277   0.556 -0.2802 -0.2114 -0.0481
23481W        W39742   2.687  18.695   5.352  0.1320  0.3013 -0.0460
23482W        W39743  15.357   5.829   3.476  0.0849 -0.0000 -0.2225
23483W        W39744   3.302  14.594  15.323 -0.0284  0.0632 -0.3383
23484W        W39745   8.206  15.673   4.615 -0.0052 -0.3013  0.0830
23485W        W39746  18.280  16.710   0.604 -0.3377  0.0527  0.2761
23486W        W39747   0.677   8.621   2.161  0.1163 -0.0523 -0.3536
23487W        W39748   1.725   0.165   4.616 -0.2532  0.0251  0.0994
23488W        W39749  13.881  17.359  11.689  0.0871  0.1622  0.0697
23489W        W39750  17.151   4.023  13.290 -0.2894  0.0760 -0.2183
23490W        W39751  15.278  12.197   3.993 -0.0834  0.0623 -0.1394
23491W        W39752  18.467  12.753   1.336 -0.3953  0.1894  0.1096
23492W        W39753  18.202  10.898   3.471 -0.1998  0.0269 -0.1036
23493W        W39754  12.203  10.246   2.437 -0.1418 -0.2436 -0.1594
23494W        W39755  13.074   4.270  13.778 -0.2974  0.2238  0.1623
23495W        W39756   5.225  13.900  12.017 -0.2967  0.2339  0.1553
23496W        W39757  11.175   8.465   0.288 -0.1362 -0.1550  0.0336
23497W        W39758  13.846  13.199  14.298 -0.0800 -0.1207 -0.0264
23498W        W39759   4.669   7.422   2.471 -0.0616  0.2375 -0.1280
23499W        W39760   6.180   7.965   3.479 -0.0432  0.2634 -0.1222
23500W        W39761   1.547  14.555   3.290 -0.0437  0.0205  0.2478
23501W        W39762   4.696  17.479  11.264 -0.1051  0.1574  0.4453
23502W        W39763   5.001  10.989   5.051  0.0183 -0.0148 -0.2480
23503W        W39764   5.980  14.798  11.009  0.1137 -0.5311  0.1927
23504W        W39765  10.815  17.570  11.155 -0.5408 -0.2635  0.0614
23505W        W39766  10.727   0.593   4.829  0.1175 -0.2800  0.1044
23506W        W39767  17.276   8.937  12.116  0.0602 -0.1011  0.0623
23507W        W39768   1.541   6.968   2.274  0.2676  0.3193  0.1459
23508W        W39769   0.873   8.199   5.392 -0.1730 -0.3447 -0.2811
23509W        W39770  16.359   5.088  11.350 -0.0433  0.2425  0.2195
23510W        W39771  16.864   5.099  11.787  0.1626  0.1406 -0.2209
23511W        W39772  18.687   5.243  10.790 -0.2250  0.2219 -0.1649
23512W        W39773  12.988  18.069   1.549  0.0848  0.1765 -0.0593
23513W        W39774   8.062  14.411   1.499 -0.0441 -0.1777 -0.2512
23514W        W39775   9.296   4.406  15.122 -0.1643 -0.1035  0.2761
23515W        W39776  16.997   2.553  11.373 -0.0147  0.0942 -0.0449
23516W        W39777  14.882  15.527  11.462 -0.1730  0.0062  0.0966
23517W        W39778  14.880  12.452   5.129  0.1870  0.1471 -0.1000
23518W        W39779   5.612   5.670  11.043 -0.4146  0.0237 -0.0624
23519W        W39780   2.934   6.708  10.962  0.4519 -0.0463  0.0188
23520W        W39781  14.163   0.334  12.852 -0.0243  0.1239 -0.1693
23521W        W39782   8.730  15.733  12.809  0.2343  0.1456 -0.0565
23522W        W39783  12.620  13.314  15.126  0.1875 -0.0027 -0.0419
23523W        W39784   8.935  17.226   4.759 -0.0872  0.3587 -0.0872
23524W        W39785  14.462  14.958   4.143 -0.0097  0.2043  0.4471
23525W        W39786   6.827  17.181  14.297  0.2995  0.1008  0.0497
23526W        W39787   6.831   3.823   3.064  0.0107  0.1318 -0.0107
23527W        W39788  13.823   3.182  14.110 -0.0941  0.0869  0.1629
23528W        W39789  11.769  18.781  10.945 -0.1834  0.3565 -0.1678
23529W        W39790   3.890   7.019   1.965  0.2118 -0.0894 -0.4051
23530W        W39791   3.648  15.271  12.166 -0.0200 -0.1183  0.0631
23531W        W39792   4.449   3.693   1.669  0.4263  0.4264  0.0405
23532W        W39793  10.424   1.638   2.772 -0.1333  0.1045 -0.1066
23533W        W39794  18.191  12.673  13.820  0.1032 -0.0667 -0.0714
23534W        W39795  17.133   6.930   2.659  0.0160 -0.4211 -0.2531
23535W        W39796  14.125   8.643   3.693  0.0396 -0.1075 -0.3046
23536W        W39797   0.257   8.594   4.591 -0.1004 -0.1019  0.2108
23537W        W39798  13.091  14.552  14.766 -0.0484  0.0192 -0.2691
23538W        W39799  12.463  10.111  14.674  0.0727 -0.2514 -0.2035
23539W        W39800  14.451  11.760  13.158  0.1424  0.1734 -0.3010
23540W        W39801  17.513  10.283  15.258 -0.0850  0.3720 -0.3370
23541W        W39802   5.200  17.934   3.096 -0.3847  0.0220 -0.2363
23542W        W39803  16.650   6.859  14.967 -0.1103 -0.0002 -0.0841
23543W        W39804   2.368   0.326  13.726 -0.1311  0.2337  0.0545
23544W        W39805   8.757   6.731  12.844  0.2917 -0.0086 -0.3582
23545W        W39806   0.980  17.089   2.236 -0.2083 -0.1531  0.1904
23546W        W39807  17.358  10.973   1.394 -0.2277 -0.0045  0.0938
23547W        W39808   6.604  11.089   1.447 -0.3842  0.4538 -0.1152
23548W        W39809   5.405   9.419  14.498 -0.1653  0.5144  0.1064
23549W        W39810  18.269  10.067  14.183 -0.3223  0.1978  0.0087
23550W        W39811  18.363   8.039  15.039 -0.0166  0.0161 -0.3262
23551W        W39812  17.127   9.807   5.550 -0.0287  0.0265  0.2507
23552W        W39813  10.012   3.127   5.531 -0.0833 -0.3749  0.0178
23553W        W39814   1.786  13.829   2.926 -0.0186 -0.0262  0.3364
23554W        W39815   0.128   7.401  10.280  0.1122 -0.5339  0.0353
23555W        W39816  10.924  10.051  10.475 -0.1150 -0.2373  0.0019
23556W        W39817   3.147   6.361  12.188 -0.1514  0.2279 -0.0572
23557W        W39818   8.806  17.392  14.616  0.3026  0.1223  0.1754
23558W        W39819  16.924   9.594   0.660 -0.1808 -0.3386 -0.0182
23559W        W39820   7.295   2.461   2.462 -0.1976 -0.2616  0.1107
23560W        W39821  16.954   6.171  14.012 -0.2011 -0.3034 -0.0101
23561W        W39822  13.076   0.190   2.372  0.2929  0.0234 -0.2888
23562W        W39823   6.548  14.839   2.311 -0.3853 -0.0803 -0.1180
23563W        W39824  17.818  12.122   2.370  0.2014  0.1271  0.0209
23564W        W39825  13.835   7.487  13.341 -0.1013  0.3394  0.1478
23565W        W39826  14.873  11.734   2.316 -0.2339 -0.2648 -0.0871
23566W        W39827   9.110  17.563   1.262  0.0915  0.2095 -0.0780
23567W        W39828  16.416  14.810  12.336  0.1547 -0.0551 -0.1298
23568W        W39829  13.363   7.982   3.385 -0.3125 -0.0036  0.3294
23569W        W39830   6.903  11.521  13.068 -0.0080 -0.0981  0.0949
23570W        W39831   6.229   6.622   1.384 -0.3140  0.1969  0.0219
23571W        W39832  10.126  17.248   5.530 -0.0437 -0.3027 -0.2665
23572W        W39833   8.901   4.696  12.006 -0.3204 -0.0166 -0.0741
23573W        W39834   4.686   9.446  14.520 -0.1012 -0.0207 -0.0606
23574W        W39835   0.798   4.998   1.595  0.2585 -0.2993  0.0675
23575W        W39836   0.894   2.833  14.488  0.0580  0.0103 -0.3995
23576W        W39837  11.864   9.392  13.671 -0.4781 -0.0529  0.0128
23577W        W39838   2.254   9.056   5.373 -0.0673  0.0197  0.0174
23578W        W39839   4.228  10.187   5.122 -0.0536  0.5078 -0.1036
23579W        W39840   1.957   9.961  15.397 -0.0191  0.0927 -0.0187
23580W        W39841  11.019  16.168  14.066 -0.1684 -0.2213 -0.0427
23581W        W39842   6.472  11.983   5.119  0.1721 -0.1577  0.3102
23582W        W39843  17.255   4.466   2.750  0.0303 -0.1326  0.0690
23583W        W39844  11.438  14.098   0.870 -0.0930  0.1967  0.1388
23584W        W39845   6.979   5.471   1.696  0.0720 -0.4789 -0.1352
23585W        W39846  12.035  11.830   0.072 -0.3013 -0.2654 -0.1856
23586W        W39847   7.642   7.460  11.694 -0.0265 -0.2461  0.0450
23587W        W39848   3.495   0.343   5.075  0.0459  0.1320 -0.0217
23588W        W39849  14.320  18.270  14.384 -0.0151  0.0019  0.1218
23589W        W39850  14.768   3.361  10.424 -0.1562 -0.2992 -0.0940
23590W        W39851   6.103   6.067  11.939 -0.1799 -0.0933  0.0736
23591W        W39852   8.861   1.412   3.723 -0.4026  0.1114  0.1414
23592W        W39853   8.120  13.442   4.158  0.0246  0.1367  0.1959
23593W        W39854   6.102   6.123   4.420 -0.1509  0.2173 -0.0839
23594W        W39855  14.502  17.156   3.207 -0.2779  0.0434 -0.0751
23595W        W39856   7.190   2.075   0.086 -0.1825 -0.0510  0.0383
23596W        W39857   1.842   8.139  12.506  0.2489 -0.0224  0.4560
23597W        W39858  17.779   5.909   1.109  0.0548 -0.2287  0.2665
23598W        W39859   4.036   9.340   2.623  0.0576 -0.0646  0.1273
23599W        W39860   1.693   4.756  13.946  0.0236  0.4167  0.0625
23600W        W39861   4.264  13.761   1.674  0.0267  0.1401  0.3068
23601W        W39862   6.761   2.167  11.708  0.1046  0.2130 -0.1022
23602W        W39863   6.019   9.735   1.859 -0.4031  0.2139  0.0280
23603W        W39864   4.599   7.810  12.669  0.1998 -0.0792 -0.3299
23604W        W39865   8.439  12.390   0.339  0.0818  0.2602 -0.1277
23605W        W39866  14.532  18.699   3.106  0.0277 -0.2973 -0.1894
23606W        W39867  12.310  13.858   3.936  0.2194 -0.2485 -0.1151
23607W        W39868  13.552  12.535  13.551  0.1661 -0.1672 -0.2157
23608W        W39869   2.210  14.291   2.105  0.0687  0.2536 -0.1996
23609W        W39870  11.459   1.612  10.946  0.0464 -0.1084  0.1528
23610W        W39871   8.562  15.573  15.517  0.2057 -0.2974  0.0435
23611W        W39872  13.215   7.813  13.891  0.1761 -0.1956  0.0440
23612W        W39873   0.411   4.604   5.196 -0.0550 -0.3627 -0.2575
23613W        W39874   6.282  10.594  11.545  0.0573 -0.2305 -0.0623
23614W        W39875  15.704  17.542  10.940 -0.0019  0.1272  0.1777
23615W        W39876   6.923  12.383  14.832  0.1131  0.1833  0.3767
23616W        W39877  16.587   7.625  12.062  0.1843 -0.2012 -0.1524
23617W        W39878   7.921  14.398  13.925  0.0888  0.1239 -0.3041
23618W        W39879  15.383   8.165  10.478 -0.1346 -0.2301 -0.3137
23619W        W39880  10.501  14.372  12.572  0.1393 -0.2368  0.1321
23620W        W39881   1.518   0.705   0.577  0.1711 -0.3875 -0.3363
23621W        W39882   3.856   2.061  14.539 -0.0611 -0.0668 -0.2264
23622W        W39883   7.408   0.382  14.838  0.2333 -0.3704 -0.0289
23623W        W39884   2.707  12.307   3.107  0.3826 -0.0017  0.2382
23624W        W39885   6.218  14.341  14.721  0.4768 -0.0087  0.1391
23625W        W39886  13.250   6.807   2.357  0.2076  0.1294  0.3035
23626W        W39887   3.669  16.691   2.170  0.4125 -0.0945 -0.1296
23627W        W39888   7.032   4.331   5.210  0.0454 -0.1482 -0.0323
23628W        W39889  10.472   5.007   0.904 -0.0548  0.1297 -0.0724
23629W        W39890   9.411  10.617   1.164  0.0347 -0.1674 -0.3199
23630W        W39891   9.210   3.689   6.121 -0.2414 -0.1748  0.4099
23631W        W39892   5.335   9.166   1.750  0.0528  0.0050  0.2360
23632W        W39893   4.226   5.883  10.456 -0.0046 -0.0118 -0.1461
23633W        W39894   9.675   1.110  13.451 -0.1418 -0.0825  0.0532
23634W        W39895  17.578   0.887  14.127  0.1423 -0.0426  0.0296
23635W        W39896   5.535   4.771  12.996  0.2487 -0.0433 -0.1511
23636W        W39897  11.053  12.366  11.940 -0.1688  0.0621 -0.2005
23637W        W39898  11.132   8.080   2.480  0.1138  0.3246 -0.1537
23638W        W39899   2.341   2.804  14.865 -0.0512  0.0591  0.0296
23639W        W39900   8.565  16.003   4.807  0.3117  0.4072 -0.1423
23640W        W39901   9.082  17.133   1.587 -0.2045 -0.3528  0.0739
23641W        W39902  15.107  12.061  14.750 -0.2678 -0.0565  0.0122
23642W        W39903  12.552  14.043   2.783  0.0035  0.1753  0.0878
23643W        W39904  16.687   5.889  10.958 -0.1597  0.2659 -0.3612
23644W        W39905   3.111   6.191   2.245 -0.2397 -0.1983 -0.2400
23645W        W39906   2.570  16.898  12.563  0.5868 -0.1302 -0.3803
23646W        W39907  18.318   5.345  14.928  0.0523 -0.2654  0.2139
23647W        W39908  17.367   4.625   2.031  0.3508  0.0611 -0.1725
23648W        W39909   3.246  10.443  15.336  0.0514  0.0582  0.1236
23649W        W39910   5.574  13.690   3.708 -0.0863 -0.1491 -0.1029
23650W        W39911   5.729   5.228   3.616 -0.0437  0.0687 -0.2791
23651W        W39912   5.959   2.317  11.074  0.1296  0.0120 -0.1461
23652W        W39913  10.446  16.386   2.240 -0.2151 -0.1069  0.2217
23653W        W39914   7.654  15.769  11.401  0.0831 -0.0076  0.2446
23654W        W39915  11.287   1.192   1.110  0.1585 -0.2526  0.0749
23655W        W39916   1.255   6.112  14.054  0.4262  0.1128  0.0606
23656W        W39917   2.681  11.503   3.343  0.0310  0.0382 -0.0800
23657W        W39918  17.865   7.893   0.295  0.0934  0.2202 -0.3231
23658W        W39919  14.824  12.869  14.643 -0.2698 -0.2901  0.0712
23659W        W39920  13.508   2.874   1.566  0.2239  0.1419  0.2082
23660W        W39921  17.671   7.437  14.262  0.4376 -0.1053 -0.0669
23661W        W39922   4.882  10.692   2.472  0.0889  0.0434 -0.2000
23662W        W39923  16.293  14.514  10.786  0.0358 -0.0039 -0.0993
23663W        W39924  10.991   5.837  14.493  0.2499 -0.0262  0.4416
23664W        W39925   0.718  16.575  14.765 -0.0959  0.3990  0.0992
23665W        W39926   5.498   8.028  13.775 -0.0418  0.0306 -0.1399
23666W        W39927  15.572  14.015  14.209  0.4320 -0.0671 -0.1790
23667W        W39928   7.752   8.488  11.627 -0.2468  0.1355  0.0316
23668W        W39929   1.363  12.562   1.069 -0.1025  0.2839  0.0332
23669W        W39930  17.404  18.636   2.676 -0.1963 -0.2123 -0.0350
23670W        W39931   6.481  13.090  15.222 -0.1885 -0.0027  0.0928
23671W        W39932   3.069   2.404  15.184 -0.1913  0.1479  0.1683
23672W        W39933   0.219   4.327  12.378  0.0028 -0.0005  0.0099
23673W        W39934  14.484   3.990  12.489  0.4335  0.2111  0.0745
23674W        W39935   1.324   6.515   2.135  0.0152 -0.1043 -0.1434
23675W        W39936   1.806   6.954   4.005 -0.4364 -0.1407 -0.0601
23676W        W39937  10.875  16.152  10.931  0.0040 -0.0690  0.1561
23677W        W39938   1.330  12.443   3.857  0.2566 -0.0639 -0.2222
23678W        W39939   3.512   3.440  14.904 -0.1162  0.1954  0.3362
23679W        W39940   8.044   7.040  13.337 -0.1197  0.1213 -0.1725
23680W        W39941  18.568  16.192   0.707  0.1607  0.2971  0.1003
23681W        W39942  13.621   6.490  11.316 -0.0066 -0.0064  0.0632
23682W        W39943  11.644  10.083  11.066 -0.2050 -0.4615 -0.1621
23683W        W39944   1.299  13.966   0.644 -0.1112  0.2613  0.1567
23684W        W39945  10.829   4.208  14.164  0.1916 -0.1579  0.0253
23685W        W39946   5.625  10.916  10.198  0.0370  0.2408 -0.0098
23686W        W39947   9.426   7.676   0.584  0.0916  0.3568  0.1921
23687W        W39948  13.232   1.709   0.794  0.2603 -0.0936  0.2460
23688W        W39949  12.144   7.855   0.369 -0.2679 -0.0821 -0.3435
23689W        W39950  17.127   7.133  12.116  0.0560 -0.0755  0.1075
23690W        W39951   0.583   1.176  15.275 -0.0036  0.0008 -0.2088
23691W        W39952   1.015   8.103  14.968 -0.0762  0.1170  0.1970
23692W        W39953   5.228   0.504   4.470  0.2684 -0.0870 -0.0572
23693W        W39954   5.495   5.813  12.705  0.0787 -0.0102  0.1261
23694W        W39955   4.262   3.756  14.794 -0.0503 -0.0949  0.0484
23695W        W39956  10.760  14.619   0.150  0.1089  0.1295  0.0295
23696W        W39957   1.222   8.761   3.646  0.1512 -0.0492 -0.2415
23697W        W39958   9.523  10.519   5.008  0.0578  0.2039 -0.2424
23698W        W39959   7.512  10.777   1.236 -0.4570  0.0376  0.1045
23699W        W39960  11.393  15.551   3.112  0.3641  0.2634  0.0649
23700W        W39961   2.942   8.967  13.084  0.3473 -0.1664 -0.0841
23701W        W39962   2.303  14.660  14.199 -0.3790 -0.3380 -0.1307
23702W        W39963  10.994   6.284  12.870  0.2206  0.1510 -0.1263
23703W        W39964  12.652   8.842   2.766 -0.0380 -0.0856 -0.1322
23704W        W39965   3.954   1.526   4.781 -0.2629 -0.0094  0.3687
23705W        W39966  12.599  14.349  12.412  0.1568  0.0563 -0.0334
23706W        W39967  13.874  17.692   0.347  0.1189 -0.1485 -0.0738
23707W        W39968   3.164   4.218  10.205  0.2871  0.1953 -0.0681
23708W        W39969   2.159  14.458   1.120  0.1327  0.2450 -0.0635
23709W        W39970  13.501  10.427  10.794  0.2096 -0.2756  0.2449
23710W        W39971  15.114  11.477   1.237 -0.2077  0.0743 -0.1497
23711W        W39972   3.587   8.605   4.219 -0.1262 -0.3072 -0.1022
23712W        W39973  11.565  13.746   4.923  0.3282 -0.1326  0.3200
23713W        W39974   2.674  12.173  15.363  0.1716  0.2067 -0.2549
23714W        W39975  16.963   6.469   4.887 -0.0880 -0.1748 -0.0112
23715W        W39976  17.542   6.408  14.980  0.1018  0.1397 -0.1051
23716W        W39977   6.803   4.601   5.588  0.1968 -0.2175 -0.3038
23717W        W39978   3.576  18.177   5.129 -0.1807  0.2125  0.2827
23718W        W39979   4.814  11.998   1.002 -0.0912 -0.2091 -0.0333
23719W        W39980   0.097   5.704   3.178  0.1038 -0.0124 -0.1952
23720W        W39981   7.083   1.098  15.419 -0.1029 -0.2139 -0.1868
23721W        W39982   5.460   9.837  13.109  0.0336 -0.1152 -0.1815
23722W        W39983   7.837   7.294   4.628 -0.1508  0.3409  0.1941
23723W        W39984  15.592   8.206  12.997 -0.2035 -0.3599  0.3708
23724W        W39985  17.202  15.647  13.403 -0.2285  0.0003 -0.0945
23725W        W39986   7.370  15.640   0.155  0.2648  0.3636  0.2637
23726W        W39987   3.478   1.117   2.455 -0.0809 -0.2413 -0.0355
23727W        W39988   4.997  11.444   4.615 -0.1475  0.2267 -0.1728
23728W        W39989  10.468   1.985   4.146  0.3674 -0.2415  0.3906
23729W        W39990   9.198   7.491   0.151 -0.0914 -0.1886 -0.0483
23730W        W39991   2.141  11.536   1.536  0.2310  0.0068 -0.2882
23731W        W39992  15.315  13.658  14.668  0.6164  0.1199  0.0025
23732W        W39993   0.495  14.885  12.190 -0.0859 -0.1718  0.2915
23733W        W39994  16.777  11.643  14.723 -0.1353  0.0282 -0.1602
23734W        W39995   4.904   0.429   3.305 -0.0752 -0.0799 -0.0454
23735W        W39996   5.874  17.935   4.037 -0.1337 -0.1117  0.0073
23736W        W39997  10.946  12.448   4.355 -0.0186  0.0941 -0.2595
23737W        W39998   8.585  17.873  12.002 -0.2651 -0.2131 -0.0623
23738W        W39999   1.825   2.934  14.751  0.0994  0.0829 -0.0860
23739W        W40000  10.169   3.325  14.996 -0.1493 -0.0035  0.0502
23740W        W40001   2.139   6.582   4.566  0.3455  0.3313  0.3553
23741W        W40002   8.458   1.576   5.155 -0.0452  0.3450  0.2409
23742W        W40003   3.249   0.623   0.691  0.2604 -0.0535  0.0929
23743W        W40004   8.236  10.516  11.814  0.0921  0.0370 -0.0213
23744W        W40005   0.640  12.294   4.777  0.0326  0.0554 -0.1483
23745W        W40006   8.227   2.780   5.796 -0.0188  0.1385  0.1080
23746W        W40007   1.904  10.247   1.732  0.1801 -0.3368  0.2402
23747W        W40008  11.779  15.417  15.018  0.1977 -0.2425 -0.2280
23748W        W40009  18.724   2.505   3.028  0.0716  0.2447 -0.0217
23749W        W40010  16.823  10.268   5.505  0.0947  0.0272 -0.0861
23750W        W40011  15.546  16.034  12.636 -0.3304 -0.1817 -0.1388
23751W        W40012  18.101   8.367  10.612  0.0160 -0.2940  0.3099
23752W        W40013   9.810   1.676   2.072 -0.1484 -0.3828 -0.2583
23753W        W40014  13.240  16.667  15.104  0.0457  0.1242 -0.1447
23754W        W40015  13.409  11.714  12.954  0.4004  0.2022 -0.0961
23755W        W40016  18.492   9.236  14.562 -0.1081 -0.1688 -0.0913
23756W        W40017   4.293   0.761   5.655  0.2737 -0.1315 -0.1751
23757W        W40018   7.822  16.964   4.098 -0.3009 -0.1595  0.2345
23758W        W40019  16.071  14.673  14.541 -0.1361  0.0072  0.0865
23759W        W40020   9.669   9.102  12.801 -0.2687  0.0368  0.0764
23760W        W40021   5.877  15.294  11.035 -0.1807  0.2805  0.1130
23761W        W40022   1.152  11.697   1.990  0.1427  0.0574  0.1046
23762W        W40023  18.724   7.713  12.864  0.0184  0.0637 -0.1557
23763W        W40024   1.909   4.989  15.213 -0.3173 -0.1034  0.2920
23764W        W40025   5.097   3.886   3.258 -0.2146 -0.1858  0.3251
23765W        W40026   4.261  16.856   4.076  0.0734  0.1192  0.1418
23766W        W40027  14.685  15.079   2.849 -0.0334 -0.0774 -0.0156
23767W        W40028  15.855  17.813   3.446 -0.2976  0.1026  0.0458
23768W        W40029  17.109  16.941  11.267 -0.1964  0.1890 -0.0981
23769W        W40030   7.838   3.427   3.980  0.4684 -0.0010  0.3366
23770W        W40031  13.384  11.541   1.150  0.2627 -0.2696 -0.1127
23771W        W40032   2.622   6.325   2.348 -0.4411 -0.0998 -0.2957
23772W        W40033   7.357  17.213   4.106 -0.0356  0.0991  0.3398
23773W        W40034  14.241  16.065  11.890  0.1930 -0.2311  0.1628
23774W        W40035   8.977  10.308   3.444 -0.0829  0.1711 -0.0233
23775W        W40036   1.972   5.712  14.618  0.2763 -0.0221  0.1153
23776W        W40037  18.546  12.902  15.320 -0.1207  0.0407  0.0219
23777W        W40038   2.463   4.613  11.349 -0.1402  0.2030  0.2459
23778W        W40039   9.478   1.477   2.565 -0.2762  0.0729 -0.2256
23779W        W40040   7.938   5.829   2.745 -0.2261 -0.1673  0.3372
23780W        W40041   3.200  10.826  11.823  0.0778 -0.1447 -0.0340
23781W        W40042   1.505  17.490   4.381 -0.0797 -0.0932 -0.0218
23782W        W40043   3.310  13.727   0.839  0.1856 -0.1323 -0.0885
23783W        W40044   8.380   8.597  13.365  0.0625  0.2530 -0.3102
23784W        W40045   6.385   0.744   1.743 -0.0209 -0.0291  0.1449
23785W        W40046  16.265   6.091   1.546  0.0721 -0.1659  0.1155
23786W        W40047  11.937  12.763  11.090 -0.2220 -0.2479 -0.0610
23787W        W40048   1.395   4.287   3.390 -0.1940 -0.0853 -0.2594
23788W        W40049  10.208   8.581  11.834 -0.2802 -0.4639 -0.0489
23789W        W40050   1.041   2.242   0.853  0.0950  0.1388 -0.0358
23790W        W40051  12.039  13.456  10.208  0.0916 -0.1915 -0.0864
23791W        W40052   8.081   9.186   2.331  0.2215 -0.1020  0.1585
23792W        W40053  14.009   5.668  15.344  0.1239 -0.1228 -0.1561
23793W        W40054   9.140  12.452   4.931 -0.3387  0.0378 -0.4750
23794W        W40055  14.068   0.846  12.969  0.0244  0.3370  0.3175
23795W        W40056   4.175   8.778  11.492  0.0264 -0.2281 -0.1440
23796W        W40057   8.946  15.878   0.634 -0.3709  0.2085  0.2574
23797W        W40058  16.076  15.825  11.303  0.3224 -0.1416  0.1201
23798W        W40059  18.771  15.942  11.866 -0.0465  0.1573  0.1528
23799W        W40060   8.836  17.494  12.498  0.2208 -0.3212 -0.0305
23800W        W40061  12.374  13.781  12.552  0.1254  0.2901  0.4197
23801W        W40062   8.432   5.588  14.983 -0.1116  0.0421 -0.0271
23802W        W40063   6.125   3.058   2.959 -0.2908  0.0375  0.4046
23803W        W40064  11.136   9.651   1.209  0.3331  0.4066 -0.1141
23804W        W40065  11.859   4.015  12.590 -0.2044 -0.0908 -0.0818
23805W        W40066   7.661  16.018  14.476 -0.0550  0.1190 -0.3477
23806W        W40067  12.773   0.667  12.670 -0.2455  0.2406 -0.1948
23807W        W40068   4.706  12.879   4.448  0.1168 -0.3193 -0.0664
23808W        W40069  11.828  17.032  10.309  0.1544  0.2327 -0.1922
23809W        W40070  17.882   3.891   4.445  0.1925 -0.2486 -0.1316
23810W        W40071   7.375   7.315   4.491 -0.2049  0.1762 -0.3602
23811W        W40072  10.121   7.403  15.282 -0.0206  0.0685 -0.0771
23812W        W40073   4.355  14.551  14.362 -0.2151  0.0580  0.3505
23813W        W40074  10.079   0.299  15.033 -0.0206 -0.0458 -0.0727
23814W        W40075   5.658   9.525  11.114 -0.1408 -0.1274 -0.0875
23815W        W40076  13.666   7.516   0.544 -0.0297 -0.0391  0.1095
23816W        W40077   1.975   7.509  15.216  0.0560  0.1232  0.5300
23817W        W40078   1.313  13.754   4.082 -0.1704  0.1954 -0.0607
23818W        W40079  12.100  12.454  13.770  0.2168 -0.1293  0.3416
23819W        W40080  16.877  16.597   3.732  0.1216 -0.1197 -0.2932
23820W        W40081  14.489  16.755   9.703 -0.1206  0.0961  0.0704
23821W        W40082  10.747   4.417   2.734 -0.0187  0.0522 -0.2276
23822W        W40083   2.388  17.677   0.411 -0.1251 -0.0344 -0.0410
23823W        W40084   0.709  13.125   4.729 -0.0910  0.3314 -0.0594
23824W        W40085  17.975   0.771   3.437  0.0534  0.2141 -0.3833
23825W        W40086  10.831  11.982   2.393  0.0810 -0.0832 -0.0651
23826W        W40087  17.528  17.456   2.406  0.2514 -0.0951 -0.2631
23827W        W40088   0.009  12.643  10.950  0.5581  0.7355  0.0097
23828W        W40089   0.103  15.513   1.433  0.2118  0.1060  0.3138
23829W        W40090   6.041  16.490   1.794  0.0549  0.0766  0.0806
23830W        W40091   2.273  17.130   4.973  0.1640 -0.4638 -0.2489
23831W        W40092  10.989   2.108   4.022  0.0186 -0.2654  0.4110
23832W        W40093  10.815   2.322   4.459  0.6378 -0.0028 -0.3800
23833W        W40094   2.724   0.343   2.038 -0.2644  0.0880  0.0426
23834W        W40095   9.386  13.037   3.600 -0.0075  0.2485 -0.2480
23835W        W40096  14.859   5.729  12.363  0.1927 -0.0419 -0.1717
23836W        W40097   0.708  10.975  14.556  0.4712 -0.1150  0.1956
23837W        W40098  12.080   2.200   5.753 -0.2051  0.1931 -0.0437
23838W        W40099  15.413   3.936  14.995  0.2725 -0.0145  0.0454
23839W        W40100  12.523  17.339  15.281  0.1237  0.1836 -0.0850
23840W        W40101  11.270  17.845   1.572  0.1498 -0.1563 -0.1156
23841W        W40102   5.344   2.569  15.606 -0.1472 -0.3072  0.2133
23842W        W40103  10.963  11.870  14.593 -0.0413 -0.2789 -0.2926
23843W        W40104   6.710   3.397   1.021  0.0342 -0.1311  0.0180
23844W        W40105  15.399   4.829  15.311  0.1964 -0.1749 -0.0704
23845W        W40106  11.060   1.910  14.295 -0.2463  0.1103  0.2384
23846W        W40107  12.793  12.566  12.205  0.1114 -0.1826 -0.0474
23847W        W40108   7.714  17.663   4.214 -0.2295  0.2439 -0.0676
23848W        W40109   2.193   9.387  10.722  0.5044 -0.0199 -0.0862
23849W        W40110   3.681   0.134  12.351 -0.2989 -0.3068 -0.2245
23850W        W40111   8.419   4.645   3.603 -0.0761 -0.2380  0.1903
23851W        W40112   6.941  14.628   5.326 -0.1327  0.2400 -0.3784
23852W        W40113   1.668  18.610  14.624  0.0134 -0.3135  0.2748
23853W        W40114   2.961   1.574   1.757 -0.0523  0.0865 -0.0110
23854W        W40115  14.153  15.243  10.349  0.1897 -0.0480  0.2796
23855W        W40116  13.042   5.668   1.181  0.0117 -0.0835  0.0327
23856W        W40117   8.732   2.052   0.949  0.1382 -0.1038  0.0820
23857W        W40118   3.540   9.879   4.486  0.1001  0.2435  0.0199
23858W        W40119  17.638  10.718  12.208 -0.0125 -0.3867 -0.2971
23859W        W40120  15.724  11.039   3.806  0.0150  0.3375 -0.0931
23860W        W40121  16.606   4.867   2.857 -0.1090  0.0473 -0.3486
23861W        W40122  15.582  13.982   3.788  0.2098  0.1921  0.2399
23862W        W40123   5.231   4.347  12.894  0.2622 -0.0047  0.4459
23863W        W40124   9.791  13.158  13.772 -0.4378  0.1897  0.3363
23864W        W40125   0.322   0.711   3.684  0.0716  0.1352  0.0539
23865W        W40126  10.744  18.032   5.950 -0.0155  0.1422 -0.1188
23866W        W40127   9.591   4.676   1.687 -0.3265  0.1003 -0.0907
23867W        W40128   8.621   6.575   0.348 -0.0761  0.1676  0.1372
23868W        W40129  10.148   7.116   0.150 -0.0151 -0.0236  0.3299
23869W        W40130  18.056   5.261   3.258 -0.0298 -0.2631 -0.1246
23870W        W40131   0.752  11.751  12.852  0.1652 -0.0229 -0.0352
23871W        W40132  16.585   7.059   0.473 -0.0009 -0.1149 -0.0659
23872W        W40133  18.392   3.922   0.538  0.2352  0.2280  0.0192
23873W        W40134  15.118  14.243   2.372  0.0570  0.0736 -0.1778
23874W        W40135   6.465   8.280   4.308  0.0045 -0.1054  0.1906
23875W        W40136   0.174   1.775   3.272 -0.1136 -0.3363  0.0623
23876W        W40137   0.762   1.931  11.373  0.3344  0.1602 -0.1504
23877W        W40138  11.273   9.408   4.245 -0.0987 -0.1127  0.0107
23878W        W40139   1.442  14.372   5.694  0.0318  0.0373 -0.0245
23879W        W40140   8.362  11.635  10.746  0.0659 -0.0078 -0.0858
23880W        W40141   4.143   2.245   3.311  0.0281  0.2608 -0.1385
23881W        W40142   4.134  12.769  13.028 -0.1459 -0.0074 -0.0655
23882W        W40143   8.345  16.899  13.219 -0.2834  0.0105  0.2146
23883W        W40144   1.796   5.941  13.340 -0.0742 -0.0077 -0.0510
23884W        W40145   9.474   0.939  10.774 -0.0479  0.1047 -0.3014
23885W        W40146  17.379   5.168   2.646 -0.1018  0.1096 -0.0440
23886W        W40147  15.603  17.648  13.986  0.0780  0.0981  0.3359
23887W        W40148   4.661   7.696  14.374 -0.1939  0.0182  0.2260
23888W        W40149   3.402  13.341  11.625  0.1053 -0.0239  0.0536
23889W        W40150   7.190   6.470   0.417 -0.1256  0.1261  0.0226
23890W        W40151   2.459  16.257   2.174 -0.1062  0.4043 -0.1970
23891W        W40152  11.451   3.145   2.676  0.1006  0.0625  0.1346
23892W        W40153   2.215   8.156   3.031  0.4617 -0.0722  0.2243
23893W        W40154   5.555  13.051   5.261  0.0416  0.1591  0.0359
23894W        W40155  15.852   1.537   2.151  0.0871 -0.1049  0.3268
23895W        W40156  17.629   1.694  13.798  0.2969 -0.1604 -0.2420
23896W        W40157  13.523  13.907  15.095  0.1678  0.0441 -0.0205
23897W        W40158   8.983   1.352  12.276  0.0452  0.3124  0.1475
23898W        W40159  13.502   3.656  14.488  0.3900 -0.0523 -0.0311
23899W        W40160  18.819  17.598  12.559 -0.0072  0.0144 -0.1890
23900W        W40161   2.305   6.150  12.041 -0.3044  0.0490 -0.0121
23901W        W40162  18.653  13.069   0.681 -0.1514 -0.1607  0.5782
23902W        W40163  16.673   0.602   2.705 -0.0255  0.2618  0.2864
23903W        W40164   9.036   5.849   5.204 -0.3015  0.1757  0.2789
23904W        W40165   5.310  16.506   0.231  0.1452 -0.0352 -0.0251
23905W        W40166   2.262   9.925   1.083 -0.0508  0.0898 -0.0782
23906W        W40167  18.681  13.272  11.781  0.2684  0.0537 -0.3415
23907W        W40168  10.307   8.857  11.401  0.2134  0.0699 -0.1207
23908W        W40169   2.202   6.403   2.547 -0.1288  0.0776 -0.0416
23909W        W40170  15.688  18.726  14.153 -0.2148  0.0391  0.1642
23910W        W40171  15.067  11.703  11.280  0.0112 -0.0951 -0.3215
23911W        W40172   7.375  16.519  14.587  0.0173  0.0605  0.1733
23912W        W40173   8.918  17.821   1.686 -0.1562 -0.1007 -0.2131
23913W        W40174   8.488  13.329  14.052  0.1426  0.3859  0.2493
23914W        W40175   1.004   9.524   4.477 -0.0406 -0.0343 -0.2370
23915W        W40176  12.790   3.850  11.692 -0.2629 -0.0274 -0.1108
23916W        W40177  11.134   9.465  12.547 -0.4202  0.1310  0.0902
23917W        W40178   1.056  12.809  14.913  0.1920 -0.0203  0.0517
23918W        W40179  12.635  15.764   0.520  0.1924 -0.0152  0.0568
23919W        W40180  17.482   4.531  13.443  0.0121  0.2567  0.0764
23920W        W40181   0.766   4.334   0.293  0.2048 -0.2621 -0.0325
23921W        W40182   2.833  18.048  14.323  0.1051 -0.0043  0.0610
23922W        W40183   6.810  15.647   2.126 -0.1491  0.0085  0.1540
23923W        W40184  16.883  18.373   3.888  0.1933 -0.0958  0.0658
23924W        W40185  18.086  10.698   0.360  0.1294  0.0692 -0.2764
23925W        W40186  11.189   5.900  11.384  0.4665 -0.2229  0.2898
23926W        W40187  14.370  18.201  13.016 -0.0084  0.2743 -0.2056
23927W        W40188  18.405  10.106  13.282 -0.1241 -0.1197 -0.1660
23928W        W40189   6.306   5.223  15.101  0.1476  0.2246  0.0464
23929W        W40190   0.883  17.169  12.894 -0.0368 -0.0341 -0.3032
23930W        W40191  18.232   1.601  10.351  0.0991 -0.0382  0.1782
23931W        W40192   4.111  12.263  12.274 -0.2496  0.0373  0.0057
23932W        W40193  16.024  14.109  10.609 -0.4001  0.0372 -0.0090
23933W        W40194  18.467   3.070   2.703 -0.1621  0.0320  0.2388
23934W        W40195  14.245  13.144  11.469 -0.1467  0.0175 -0.1240
23935W        W40196  15.899   7.635   2.377 -0.2569  0.0248 -0.2305
23936W        W40197  14.131  14.890  11.171 -0.0796 -0.2000 -0.0234
23937W        W40198  18.138   3.914  13.466  0.2753 -0.0540  0.0173
23938W        W40199   6.810  16.229  14.439 -0.3764  0.2103 -0.2088
23939W        W40200  17.292   7.230  13.562  0.0657 -0.0955  0.0125
23940W        W40201   5.748   9.776   6.060 -0.0555  0.0724 -0.1722
23941W        W40202  18.305   8.857   0.284  0.3458 -0.0640 -0.1903
23942W        W40203   1.647   6.794  13.125 -0.0639 -0.1946  0.3942
23943W        W40204   4.125  15.493   4.810  0.0899 -0.0275  0.3076
23944W        W40205   2.837   4.571   2.303  0.1047 -0.0998  0.1811
23945W        W40206  17.025   5.563   1.291 -0.1938  0.2748  0.0441
23946W        W40207   9.236   7.670   2.102 -0.2078 -0.3672  0.0340
23947W        W40208   4.373   2.782   0.048  0.1060 -0.2441  0.2686
23948W        W40209  10.863   9.038   3.280  0.3457 -0.1359 -0.2787
23949W        W40210   8.666  18.058   2.106 -0.0873 -0.1137 -0.2794
23950W        W40211   2.307   1.083   0.544  0.2357 -0.1531  0.1173
23951W        W40212   9.488  10.602  14.127  0.0939 -0.0780  0.3867
23952W        W40213   8.053  13.195  15.192 -0.1261 -0.0664  0.0798
23953W        W40214  10.952  14.794   0.747 -0.0239 -0.0672 -0.1173
23954W        W40215   3.327   1.618   2.232 -0.0997 -0.0452  0.3150
23955W        W40216   9.935  15.282   1.634 -0.1647  0.0025 -0.0807
23956W        W40217   7.964   1.879  12.066  0.0069  0.3451 -0.0593
23957W        W40218  13.589  17.157  12.090 -0.2754  0.1569 -0.2371
23958W        W40219   2.002  16.446  11.430  0.1044  0.1712  0.2041
23959W        W40220   0.665  18.768   4.384 -0.1566  0.1567  0.0449
23960W        W40221   1.339   3.932   4.304 -0.0223 -0.2359 -0.2014
23961W        W40222  17.967  17.195  10.624 -0.0349  0.0986  0.2648
23962W        W40223  10.941  11.878  10.680  0.1513  0.1200 -0.0887
23963W        W40224   8.091  15.309   2.189 -0.0618 -0.2048 -0.2080
23964W        W40225   8.913   7.325   1.662 -0.0969  0.1888 -0.0825
23965W        W40226   7.971   6.716  15.285 -0.2541 -0.0423  0.1383
23966W        W40227   0.021   6.595   0.878 -0.1021  0.3338  0.0455
23967W        W40228  10.509  14.123  15.055 -0.1712  0.0308 -0.1290
23968W        W40229   0.278  17.075   3.667 -0.1677  0.1530 -0.0966
23969W        W40230  14.482  16.217  10.238  0.0063 -0.2139 -0.1324
23970W        W40231  17.591  17.972  14.939  0.2751 -0.3156 -0.0007
23971W        W40232   4.001  12.621  14.627 -0.2689 -0.2499 -0.0197
23972W        W40233   9.449  15.820  11.538  0.2707  0.2491 -0.3732
23973W        W40234  16.096  17.575   2.080  0.2561 -0.0580  0.1417
23974W        W40235   7.450  15.597  11.933 -0.0831 -0.0766  0.0109
23975W        W40236   5.551  10.974   5.139  0.2479  0.0856 -0.1900
23976W        W40237   0.743  10.009   3.540  0.0069  0.1581 -0.1156
23977W        W40238   3.750   1.613  14.407  0.1026  0.1534 -0.1317
23978W        W40239   4.841  12.143   2.880  0.3727  0.1849  0.1583
23979W        W40240  16.667  12.518  12.091  0.0719 -0.0419 -0.0874
23980W        W40241   4.667   3.257   3.971 -0.2344 -0.0657 -0.0706
23981W        W40242  11.753   1.039  14.683 -0.0462  0.2330 -0.2909
23982W        W40243   5.761  14.085  11.521  0.0038 -0.2401  0.1329
23983W        W40244   8.537  12.175   4.007 -0.0953 -0.0440 -0.1580
23984W        W40245  11.821   9.412   5.732  0.0747  0.0396  0.0856
23985W        W40246   5.714   7.901   3.446 -0.4121 -0.3808  0.0558
23986W        W40247   4.030   5.156   3.826  0.0510 -0.0502  0.0294
23987W        W40248   1.416   7.076   2.826 -0.2118  0.1810 -0.3988
23988W        W40249  14.259   7.509  12.989  0.1848 -0.2321  0.0017
23989W        W40250   9.135  10.740   2.628 -0.0425  0.0469  0.1704
23990W        W40251   8.271   5.614   3.705  0.0661  0.3321 -0.1459
23991W        W40252   9.686   7.302  15.051 -0.1892 -0.0602 -0.0792
23992W        W40253   4.147  13.992   1.202  0.0773 -0.1599 -0.1020
23993W        W40254   1.728   3.140  15.535  0.1791  0.2552  0.1765
23994W        W40255   7.688   0.277   2.990  0.2867  0.1960 -0.2116
23995W        W40256  12.354   7.272  13.961 -0.1371 -0.0493  0.0876
23996W        W40257   6.938   9.049  12.911 -0.1680 -0.0287  0.1491
23997W        W40258   2.173   4.962   1.308 -0.0524  0.2607  0.0375
23998W        W40259   5.969   7.028   3.187 -0.4345 -0.1303 -0.0361
23999W        W40260  13.434   3.224   5.173  0.0916 -0.1491  0.0887
24000W        W40261   0.052  10.254   1.179 -0.2118  0.0872 -0.0224
24001W        W40262  16.654  18.050   0.500 -0.1484 -0.0776  0.0957
24002W        W40263   7.900   2.364   1.044  0.2328 -0.1691  0.0246
24003W        W40264  16.309  11.234  13.154  0.2886 -0.4383  0.0948
24004W        W40265   5.797  13.532   1.514 -0.1009 -0.1010 -0.1323
24005W        W40266   5.136  17.392  14.375 -0.0136  0.3152 -0.3869
24006W        W40267   8.484   5.402   3.271 -0.1074  0.0758 -0.0357
24007W        W40268   7.319   4.164   2.328  0.0283 -0.1274 -0.0603
24008W        W40269  12.451  13.784   4.429  0.1193  0.0673 -0.0675
24009W        W40270   5.988   9.748   3.095 -0.0387 -0.1500 -0.3290
24010W        W40271   1.635   9.480  11.825  0.1634  0.3072 -0.1309
24011W        W40272   3.161  16.384  13.658  0.0020  0.2103  0.2751
24012W        W40273   4.328   3.090   5.476  0.3034 -0.2856  0.2566
24013W        W40274  14.238  13.496   4.127 -0.3603 -0.1135  0.0021
24014W        W40275   1.500   5.912   0.762  0.2344  0.0134 -0.0466
24015W        W40276   4.132  10.697  11.684  0.1163 -0.1302 -0.1634
24016W        W40277  10.094  11.640  15.301  0.1711  0.1272 -0.2325
24017W        W40278   0.050  15.786  14.775  0.1763 -0.0979  0.1139
24018W        W40279   1.397   5.061  11.009  0.2690  0.0610  0.0405
24019W        W40280  17.787  11.443  10.953  0.1248 -0.0758 -0.0772
24020W        W40281   7.242   3.732   4.387 -0.0041 -0.1745  0.0588
24021W        W40282   9.899   2.579   1.335  0.0678 -0.3775  0.2313
24022W        W40283   8.324  11.941  12.154  0.3075  0.2018  0.0277
24023W        W40284  14.954  12.628  10.955  0.1272 -0.1389 -0.2263
24024W        W40285  18.383   6.701  11.106  0.0359 -0.1178  0.0504
24025W        W40286  18.038  13.755   1.100 -0.3029  0.3764  0.1971
24026W        W40287  13.506  17.853  11.783  0.0718  0.0404  0.1466
24027W        W40288  18.394   4.590  11.962  0.0710 -0.1550 -0.0056
24028W        W40289   1.545   2.918  13.312  0.1829 -0.2254 -0.2436
24029W        W40290   5.146  18.650   3.850  0.1816 -0.1427 -0.1956
24030W        W40291   0.540  16.053  14.667 -0.0952 -0.0725  0.0813
24031W        W40292   1.387  11.003  11.419 -0.0302  0.0506  0.0755
24032W        W40293   3.334   6.084   0.479  0.1269 -0.1159 -0.1546
24033W        W40294  18.348   9.020  15.133 -0.1431 -0.0815 -0.0480
24034W        W40295  17.496  18.041   5.876 -0.1974 -0.3630 -0.1069
24035W        W40296  14.207  13.999  14.027  0.0560 -0.1569 -0.2381
24036W        W40297  16.825   1.503   2.408 -0.0647  0.1772 -0.0502
24037W        W40298   8.249   7.249   5.747  0.3128  0.1927  0.2233
24038W        W40299  12.577   7.900  11.505 -0.1518  0.1614 -0.0636
24039W        W40300  13.591   3.328   0.715 -0.0900  0.0315 -0.0086
24040W        W40301   5.760   6.229   3.319  0.2196  0.2073  0.2146
24041W        W40302   9.284   5.849   2.631 -0.0088 -0.2926  0.3590
24042W        W40303   9.163   4.208   0.875  0.1607  0.0464 -0.0664
24043W        W40304  16.187  11.589  12.271 -0.3844 -0.1109  0.0567
24044W        W40305   6.615   3.620   1.937  0.1016  0.1356 -0.3079
24045W        W40306  10.820   0.544   5.359  0.2841  0.2312  0.3510
24046W        W40307  12.198  14.300  11.755  0.1003  0.0439 -0.2991
24047W        W40308   8.923   1.016   0.699  0.1976  0.1775  0.0496
24048W        W40309   1.058   8.837   2.683  0.4455  0.0662  0.0467
24049W        W40310  14.380   6.642   3.514  0.2531  0.2042  0.0200
24050W        W40311   3.461   2.977   2.151  0.1014 -0.0019  0.1874
24051W        W40312   4.501   3.660  11.408  0.2808 -0.0570 -0.1314
24052W        W40313   4.963   6.372   5.468 -0.1362 -0.2273  0.0966
24053W        W40314  15.682  13.653  12.570 -0.1144 -0.1337 -0.1375
24054W        W40315   6.167  10.202  12.417  0.2178  0.2830  0.3369
24055W        W40316  12.414   9.385  13.466  0.2914 -0.0540  0.4304
24056W        W40317   6.287  12.824   2.753 -0.0112  0.0296  0.1649
24057W        W40318  15.724   3.547   4.564  0.0525 -0.2940 -0.2147
24058W        W40319   1.240  13.338   1.786 -0.0225  0.0777  0.2148
24059W        W40320  15.946  10.698   0.582  0.0383 -0.3772 -0.0754
24060W        W40321  12.372  14.743   1.711  0.1872  0.0278  0.0801
24061W        W40322  12.090   1.809  14.933  0.0223 -0.1471 -0.0826
24062W        W40323   1.905   7.985  14.373  0.0356  0.4576 -0.2483
24063W        W40324   2.477  10.929  12.619 -0.1179  0.0117 -0.1860
24064W        W40325   4.241  18.680  14.080  0.0521 -0.1338  0.1340
24065W        W40326   8.569   6.332   3.231  0.1841 -0.1646 -0.1377
24066W        W40327   1.507   9.826   0.064 -0.0326 -0.0367 -0.2359
24067W        W40328   9.712  10.016   4.883 -0.0969  0.0590  0.0789
24068W        W40329  11.233  18.390  10.232 -0.0513 -0.1063 -0.0370
24069W        W40330  17.149  15.029  11.695  0.0716 -0.3756  0.1726
24070W        W40331   0.215  18.457   3.571  0.3264  0.1546  0.2570
24071W        W40332  11.588  13.185  13.366  0.0350  0.0465  0.1751
24072W        W40333  14.986   1.370  14.153  0.2144  0.2418 -0.2542
24073W        W40334  15.172   8.312  13.399  0.0102 -0.0752 -0.3092
24074W        W40335   7.774   7.113   3.584 -0.2969  0.0368 -0.0032
24075W        W40336  10.235  14.413   4.473  0.1254  0.2251 -0.0968
24076W        W40337  11.007   4.605   1.936 -0.0425  0.0194  0.2717
24077W        W40338   7.318  11.048   5.801 -0.2295  0.2401 -0.0850
24078W        W40339   6.886   8.524   0.854 -0.0011 -0.0786 -0.2315
24079W        W40340  12.673   2.333   2.112  0.0030  0.0360  0.3465
24080W        W40341  12.482   8.796  15.646 -0.1624  0.1961  0.2424
24081W        W40342  12.784   6.053  11.163 -0.0004 -0.3364 -0.0010
24082W        W40343  17.966  12.203  14.018 -0.4022  0.1979  0.0173
24083W        W40344   5.347  11.551   3.750  0.0878  0.1237  0.0849
24084W        W40345  13.547   4.333   0.458  0.1533  0.2940 -0.0519
24085W        W40346  12.325  16.124   1.728  0.2963  0.1725 -0.0822
24086W        W40347  13.181  16.790  10.988  0.1224  0.0032  0.2574
24087W        W40348   9.006  10.720  12.719 -0.3066 -0.0812 -0.2981
24088W        W40349  12.027   2.711   3.239  0.1000 -0.1979 -0.1188
24089W        W40350  17.541   1.191  11.255  0.1756  0.1692  0.0149
24090W        W40351  11.310  12.338  15.370 -0.3702 -0.0015  0.2218
24091W        W40352  11.485  11.283  11.850 -0.1598  0.3647 -0.0574
24092W        W40353   2.097  12.066   5.535 -0.0341  0.1460  0.5977
24093W        W40354  16.482  11.114   2.341  0.1897 -0.1347  0.2545
24094W        W40355   6.188  15.218  13.476  0.1348  0.3214  0.2023
24095W        W40356   6.227   3.453   5.481  0.1352 -0.2526  0.1397
24096W        W40357   8.339  14.706  12.907  0.2266  0.2837  0.1479
24097W        W40358  18.051  11.927  11.215 -0.1889 -0.1396 -0.0936
24098W        W40359   2.512   9.648   3.089 -0.1250  0.1786  0.2352
24099W        W40360   6.481   8.434   1.786 -0.1320  0.0946 -0.1273
24100W        W40361  15.240  15.150  11.320  0.0428  0.2756 -0.3452
24101W        W40362  17.190  17.529   3.680 -0.1537 -0.3626 -0.0156
24102W        W40363   5.280   6.791  12.103 -0.2094  0.0691 -0.4076
24103W        W40364   2.575   4.091  13.387  0.2141  0.3027 -0.0112
24104W        W40365   3.956  13.317  12.225 -0.1009  0.1579 -0.2241
24105W        W40366   2.319  17.529  11.961 -0.1242 -0.2084 -0.0060
24106W        W40367  13.651   5.202  14.966  0.1259 -0.0284  0.0376
24107W        W40368  13.270  17.828   0.408  0.4090 -0.2197  0.1671
24108W        W40369   6.425   8.971   2.905  0.0638  0.3159 -0.1612
24109W        W40370  15.429   7.095  11.231  0.0361 -0.0082 -0.1127
24110W        W40371  13.045   5.342   0.456 -0.0898  0.0207 -0.1398
24111W        W40372  15.205   3.395  13.662  0.2971  0.1705 -0.0306
24112W        W40373  18.083  17.415   1.599  0.1856  0.1766  0.1246
24113W        W40374  12.142   5.969  10.369  0.2778  0.0058  0.1120
24114W        W40375  10.494   9.556  14.417  0.0053  0.2189  0.1494
24115W        W40376   2.221  10.248   4.369 -0.1013 -0.0662 -0.1674
24116W        W40377   8.370  12.310   3.256 -0.0911  0.2805  0.2714
24117W        W40378  11.739   8.081   5.422 -0.0584  0.2744 -0.0873
24118W        W40379  12.128  16.012  14.505 -0.2791 -0.1558 -0.0832
24119W        W40380   7.676  11.732   5.086  0.1358 -0.1633  0.0500
24120W        W40381   8.685  16.389   2.107 -0.0188 -0.0669 -0.3197
24121W        W40382   0.293   9.585   1.291 -0.0570  0.0143 -0.0900
24122W        W40383   2.307   5.689   1.193 -0.1560  0.2662 -0.0126
24123W        W40384   8.358   1.198   1.082 -0.0982  0.1896  0.2351
24124W        W40385  16.853   4.990   1.177 -0.0105 -0.1962  0.0810
24125W        W40386   0.635   4.354   3.553  0.0685 -0.0170  0.1259
24126W        W40387  14.304  16.721   5.918 -0.1964 -0.0872  0.0233
24127W        W40388   8.216   1.070   4.437  0.0596  0.2591  0.3697
24128W        W40389   3.447   2.992  11.305  0.3901  0.0468 -0.3205
24129W        W40390  17.559   3.636   3.631 -0.0133  0.1717 -0.1806
24130W        W40391  12.843   9.624   3.154  0.0055 -0.1459  0.3042
24131W        W40392   2.132  11.619   4.046 -0.1210 -0.0272  0.2342
24132W        W40393   1.211   6.020   2.430  0.3424  0.4335 -0.2195
24133W        W40394   2.464   8.993   0.326  0.0826 -0.0244 -0.0769
24134W        W40395   6.223  16.020   1.068  0.4241  0.0968  0.3968
24135W        W40396   8.583  11.091  15.575 -0.1556  0.3119 -0.0072
24136W        W40397   7.419  15.933   5.614  0.0916  0.1228 -0.2845
24137W        W40398  12.857  17.977  13.615 -0.2986 -0.1086 -0.0226
24138W        W40399  12.819  15.589   4.645 -0.2867 -0.0379  0.0691
24139W        W40400   6.887   8.941   0.548  0.2417 -0.2782 -0.0314
24140W        W40401   9.025  10.263  13.072 -0.3674 -0.0276 -0.0447
24141W        W40402  13.631   7.895   2.194  0.0004  0.3479 -0.2021
24142W        W40403   4.136  18.690   2.128 -0.0887 -0.1148 -0.1362
24143W        W40404  12.744  12.832  15.242  0.1180  0.1046 -0.4488
24144W        W40405   4.823  11.726   3.663 -0.0427  0.0448  0.1074
24145W        W40406   6.561   0.472   0.548 -0.0942 -0.1936 -0.0781
24146W        W40407  16.483   6.778   2.817 -0.0297  0.4353  0.1198
24147W        W40408  11.769   5.469   5.032 -0.1098  0.1602  0.1815
24148W        W40409   3.836  16.626  14.529 -0.0990 -0.3547 -0.0677
24149W        W40410   0.526   5.721   4.231  0.1593 -0.0346  0.2403
24150W        W40411  14.690  10.402   4.040 -0.0023 -0.0552 -0.2593
24151W        W40412   0.721  14.025  11.117 -0.3971  0.0331 -0.0401
24152W        W40413  15.930  18.413  13.809  0.1357 -0.0078 -0.1688
24153W        W40414   0.841  16.641  13.105 -0.1645 -0.1143 -0.2488
24154W        W40415  10.580   6.764  11.007  0.0579  0.4138  0.4981
24155W        W40416   4.750   7.345  11.895 -0.1266 -0.1257 -0.3005
24156W        W40417   3.992  17.829  12.712 -0.1022 -0.1601 -0.0495
24157W        W40418   1.553  13.911  10.262 -0.1347 -0.0936  0.2688
24158W        W40419  18.451  10.183  12.763  0.2154  0.2459  0.0627
24159W        W40420   5.765   5.515  12.283 -0.0729 -0.1343  0.0602
24160W        W40421   0.163   3.225  15.623  0.0292  0.2315 -0.0589
24161W        W40422  16.755  18.496  11.570  0.0724  0.1000 -0.0111
24162W        W40423  11.707   4.814  15.387 -0.2495  0.2899 -0.1026
24163W        W40424   9.866   8.313   4.278  0.1935  0.0885  0.1335
24164W        W40425   2.707   3.039  13.428  0.0447 -0.2719  0.1083
24165W        W40426   7.755   2.147  11.129  0.0808  0.4192  0.0343
24166W        W40427  11.984  12.707  14.485  0.1934 -0.0537 -0.0557
24167W        W40428  14.609  15.245  15.322 -0.1962 -0.4981  0.2828
24168W        W40429   7.688  13.914   5.477  0.0028 -0.2060 -0.2929
24169W        W40430  11.573   8.045   1.215  0.0122 -0.2152 -0.1043
24170W        W40431  10.088   1.629  14.485  0.1457 -0.0719  0.2217
24171W        W40432  10.124  13.741  14.971 -0.0899  0.2915  0.0153
24172W        W40433  17.501   8.376   0.018 -0.0848  0.1064  0.1321
24173W        W40434   9.138   5.837   4.185  0.2260 -0.3991  0.1370
24174W        W40435   7.884  10.264   2.590 -0.0718  0.3558 -0.0969
24175W        W40436   8.382  18.105   5.356  0.0980  0.2757 -0.0568
24176W        W40437   5.958   4.605   0.532 -0.0869 -0.0995  0.0225
24177W        W40438  15.977   3.667  11.353 -0.2350  0.1011  0.0429
24178W        W40439   9.483  11.277   4.568 -0.0027 -0.0080 -0.1763
24179W        W40440  16.208  11.409   4.709  0.3968 -0.0307  0.0301
24180W        W40441   1.226   1.831  14.124  0.1412 -0.0559  0.0838
24181W        W40442   2.034  14.940  13.924  0.1558 -0.0821 -0.0183
24182W        W40443  18.380   3.923   4.367  0.2038  0.1850 -0.1329
24183W        W40444   5.116  11.895   4.878 -0.0863  0.1336  0.1784
24184W        W40445   7.351  14.356  10.777 -0.1304 -0.2994 -0.2627
24185W        W40446   6.004  17.264   3.968 -0.0993 -0.1835  0.1004
24186W        W40447   3.557   1.422  13.531  0.2877 -0.3025 -0.0286
24187W        W40448  14.281   8.914  11.895  0.1206  0.0430 -0.1699
24188W        W40449  15.435   5.183   4.429  0.1009  0.0129  0.1705
24189W        W40450  18.378   6.048   5.312  0.1096  0.3288  0.0153
24190W        W40451  12.904  15.648   1.453 -0.1229  0.0619 -0.0491
24191W        W40452   7.607   4.436   2.668 -0.1308 -0.1751 -0.2245
24192W        W40453  17.616   1.680   3.441  0.3121 -0.2039  0.2293
24193W        W40454   7.231  15.904   5.188 -0.0965  0.1865 -0.0766
24194W        W40455  12.278  16.524  10.701 -0.1768  0.0066  0.4133
24195W        W40456  15.054  18.353  11.303  0.0894 -0.1426 -0.0049
24196W        W40457  13.494  13.583  14.681  0.0138  0.0814 -0.1559
24197W        W40458  11.352  17.281  11.602  0.2697  0.0598  0.0102
24198W        W40459   6.205   5.099   2.781  0.0962 -0.1362 -0.3085
24199W        W40460  10.155   9.798   0.269 -0.1386  0.0070 -0.1782
24200W        W40461   6.668  17.122   2.345  0.0605 -0.4621 -0.1242
24201W        W40462   7.650   7.938  11.494  0.4263  0.0527  0.2056
24202W        W40463   2.293   2.317  14.966  0.3117  0.0646 -0.0676
24203W        W40464  15.962   4.773  12.478 -0.3463  0.2586 -0.0252
24204W        W40465   4.399   5.173  14.598  0.0200  0.1749  0.2065
24205W        W40466   5.603  10.398   1.822  0.4089  0.1046 -0.0115
24206W        W40467   6.733   9.430  14.184 -0.1726  0.0561 -0.2465
24207W        W40468  14.799   0.115  13.024  0.2475 -0.0375  0.1447
24208W        W40469  16.248   8.958   0.296 -0.2168  0.0225 -0.0824
24209W        W40470  10.765  16.295  14.581 -0.0398 -0.1853  0.1333
24210W        W40471   6.343   5.930   3.798 -0.0984  0.2831  0.2688
24211W        W40472   7.283  11.385  13.317 -0.3054  0.1595 -0.0224
24212W        W40473   7.389  18.501   2.537 -0.2106 -0.0896 -0.2509
24213W        W40474   5.637  13.068  14.140 -0.2017 -0.0134 -0.3693
24214W        W40475  12.842   1.409   1.701  0.0528 -0.0560  0.0225
24215W        W40476  14.098  15.698  15.139  0.1508  0.2635  0.1271
24216W        W40477   4.903  13.362   1.875 -0.0664  0.1926  0.1894
24217W        W40478   3.323  16.291   2.020  0.0648 -0.0812 -0.0653
24218W        W40479   4.484  15.596  11.568 -0.0615  0.2119  0.0721
24219W        W40480  14.906   9.096  15.090  0.2379  0.2051  0.0037
24220W        W40481  17.223   9.448   4.220  0.0918 -0.2450 -0.0907
24221W        W40482   7.993   7.440  14.298 -0.0511 -0.2240  0.0354
24222W        W40483  17.389   5.609   3.742 -0.2404  0.3645 -0.0860
24223W        W40484   9.754   5.924   3.006  0.0403 -0.1373 -0.1562
24224W        W40485   1.154  16.627  13.544 -0.1454 -0.2772 -0.0173
24225W        W40486  10.579  16.660   3.300 -0.2573 -0.1040 -0.1296
24226W        W40487   6.972   7.090   6.538 -0.1896 -0.2682  0.0227
24227W        W40488   5.549   3.762   0.422 -0.1138  0.0106  0.0259
24228W        W40489  16.801  11.010   3.597 -0.0177  0.1140 -0.0547
24229W        W40490   0.254  10.896  14.890  0.1230  0.1424  0.1441
24230W        W40491   5.493   9.607   3.436  0.0133  0.3291  0.0826
24231W        W40492   0.893  10.964  11.317  0.2666 -0.1877 -0.2064
24232W        W40493   9.506  10.944  13.791  0.0962 -0.1620  0.0212
24233W        W40494  12.535  13.744   0.238  0.2473 -0.2101 -0.1314
24234W        W40495   1.821   1.481  14.301 -0.2728  0.1256 -0.0094
24235W        W40496  16.966   7.540   3.558  0.4357  0.4937 -0.1000
24236W        W40497   2.030   5.563  13.649 -0.0652  0.1725 -0.1882
24237W        W40498   5.682   8.475   2.194  0.0196 -0.2794  0.4879
24238W        W40499  12.503  17.909  11.151  0.0031  0.4714 -0.0712
24239W        W40500   0.290   6.463  11.062 -0.2234 -0.2066  0.0347
24240W        W40501   1.213  17.998  13.105 -0.0411  0.0851  0.1430
24241W        W40502  16.489  13.009   4.141  0.3595  0.0614  0.0360
24242W        W40503  15.503  15.149  10.925  0.0796  0.0014 -0.2873
24243W        W40504   5.546   8.739  14.280  0.0072 -0.0930 -0.0358
24244W        W40505  18.495   3.989  10.763  0.0171  0.2838  0.2397
24245W        W40506   5.594  12.983  11.988 -0.2395 -0.0410  0.0951
24246W        W40507   2.715   7.146   2.380 -0.0477 -0.1575 -0.0873
24247W        W40508  18.471  16.232   2.003  0.1316  0.1913 -0.0365
24248W        W40509  18.650   3.416   0.812 -0.1335  0.0416  0.0858
24249W        W40510  11.663   3.542  15.090  0.0522  0.2142  0.1660
24250W        W40511   2.972  16.966  11.278 -0.0052  0.2879 -0.1252
24251W        W40512  12.619  15.018   0.133 -0.1485 -0.1751 -0.2182
24252W        W40513   0.871   2.961   3.896 -0.1336  0.0442  0.0807
24253W        W40514   7.248   1.873  15.100  0.0043 -0.0218  0.1567
24254W        W40515   2.371  10.370   0.861  0.3967 -0.2389  0.2563
24255W        W40516   9.763  17.114  13.055 -0.1379 -0.3996  0.1071
24256W        W40517   3.443   2.730  15.402  0.2841  0.2380 -0.2283
24257W        W40518  16.640  12.629   5.163  0.0816  0.1960 -0.1204
24258W        W40519   4.036   5.649  14.759 -0.2096  0.1200 -0.0078
24259W        W40520   8.787   8.811   4.862  0.1223 -0.1945  0.1309
24260W        W40521   7.242  13.402   0.737 -0.4702 -0.3292  0.2647
24261W        W40522   4.017   5.517   2.118  0.1170  0.0870  0.1536
24262W        W40523   1.330   7.723   0.285  0.1136  0.1708 -0.3029
24263W        W40524  18.700  11.375  13.852  0.0857 -0.0252  0.3688
24264W        W40525  18.613   8.669   4.679 -0.0048 -0.1828 -0.0238
24265W        W40526   1.073   6.181   4.671  0.0628 -0.1536 -0.0387
24266W        W40527  15.335   7.112  15.157  0.0485  0.0192  0.2115
24267W        W40528  16.525   5.054   5.312 -0.0555 -0.2662 -0.5206
24268W        W40529   2.009   0.331  14.585 -0.1937  0.0959  0.1047
24269W        W40530   5.804   6.178  11.603 -0.2236  0.1593  0.5452
24270W        W40531   4.462   9.840   4.865 -0.1820 -0.0811  0.0932
24271W        W40532   3.686  18.078   1.956 -0.1000  0.3151  0.1481
24272W        W40533   4.835  11.458   2.656  0.3250  0.0587 -0.2315
24273W        W40534  11.300  15.489   0.980 -0.2177  0.2476 -0.0073
24274W        W40535  16.754   5.461  11.389  0.3002 -0.0596 -0.2217
24275W        W40536   4.998  14.196   3.796  0.1273 -0.0780 -0.1937
24276W        W40537  10.809  15.798   3.388  0.1854  0.1793  0.0823
24277W        W40538   0.195   1.262  11.271 -0.2325 -0.0261 -0.1881
24278W        W40539  13.834   4.261   3.883  0.0245  0.1744 -0.6117
24279W        W40540   9.660  16.394  14.880  0.1241 -0.1149 -0.1395
24280W        W40541   0.256  18.578   1.299 -0.0433 -0.0217 -0.1012
24281W        W40542  12.777  12.288   2.313 -0.0361  0.0524 -0.1539
24282W        W40543   8.161  13.459   3.180  0.0812 -0.0101  0.2655
24283W        W40544  15.305   8.128   0.361 -0.1261  0.2676 -0.0394
24284W        W40545   5.040  14.815   2.734 -0.2489 -0.1050 -0.0259
24285W        W40546   1.924  17.284  10.981  0.1258 -0.0017  0.0124
24286W        W40547   2.445  16.245  15.450  0.0836 -0.1050  0.1358
24287W        W40548  15.148   4.292  14.701  0.0374 -0.1472 -0.1889
24288W        W40549   8.937   0.319   3.240  0.1721  0.3260 -0.2260
24289W        W40550  15.483   4.161   5.023  0.1435  0.0835 -0.0926
24290W        W40551  17.169   0.233   3.007 -0.1441 -0.1595 -0.0500
24291W        W40552   5.643  18.245   0.869  0.0287  0.0795 -0.0224
24292W        W40553   2.047  10.400  12.956 -0.1165 -0.1234 -0.3917
24293W        W40554  10.294  16.225  13.063  0.1263  0.1640 -0.2142
24294W        W40555   6.739  16.455  11.808 -0.3485 -0.2968  0.2801
24295W        W40556   1.137   0.203  11.852  0.2851  0.0249  0.2221
24296W        W40557  17.541  17.576   1.900 -0.0345 -0.0849 -0.3177
24297W        W40558   0.122   0.111   4.461  0.2949  0.0615 -0.0389
24298W        W40559   3.971  15.006   2.997 -0.1414 -0.1330  0.1996
24299W        W40560   9.602   1.230   5.083  0.2463 -0.1274 -0.2312
24300W        W40561  13.837   3.981  13.717  0.2390 -0.2289  0.2205
24301W        W40562   3.817   4.209  11.786 -0.1259  0.0304  0.1384
24302W        W40563  10.774  10.833  11.398  0.0162 -0.1775  0.2587
24303W        W40564   5.209   0.030   4.673  0.1517 -0.0339 -0.1753
24304W        W40565  11.559  13.577   2.828  0.1425  0.3007  0.0863
24305W        W40566   0.779  12.181   2.934  0.0081 -0.1861  0.1827
24306W        W40567  18.006  18.491  11.375 -0.1003  0.0002 -0.1460
24307W        W40568  12.946  13.937  12.384  0.1283  0.1525 -0.1672
24308W        W40569   8.832  12.646   0.588  0.0977 -0.2155 -0.1064
24309W        W40570   9.712   4.551   2.197 -0.2005 -0.1025 -0.3028
24310W        W40571   1.195   5.840   5.435 -0.0872 -0.1068  0.1760
24311W        W40572  16.063   2.785  10.885 -0.2150  0.0645 -0.0345
24312W        W40573  16.233   7.209   0.916 -0.0240 -0.0627  0.1327
24313W        W40574  16.502   3.342   9.585  0.0950  0.2699  0.0549
24314W        W40575   0.431   5.118   3.409  0.1679 -0.0612  0.4205
24315W        W40576   4.673   2.449  11.159  0.2060 -0.3382  0.1376
24316W        W40577   2.851   5.826   2.949 -0.0051  0.4175  0.3802
24317W        W40578   0.851   9.695   2.757 -0.0298 -0.2279  0.2380
24318W        W40579  12.125   9.299   1.269 -0.0049 -0.1151 -0.2603
24319W        W40580   1.752  14.996   3.375  0.0344 -0.1839 -0.2137
24320W        W40581   6.661  10.671   4.736  0.1476 -0.0811  0.3152
24321W        W40582  15.212   4.077   4.188  0.1118  0.0212 -0.5861
24322W        W40583  16.846  14.468  10.145 -0.2258  0.0415  0.1517
24323W        W40584  14.489   6.577   1.877  0.1710 -0.1836 -0.0187
24324W        W40585  16.484  10.171   0.338 -0.0713 -0.0382  0.0199
24325W        W40586  12.308  12.523   0.810  0.0760  0.2366 -0.0084
24326W        W40587  16.278  11.728  15.292 -0.0022 -0.1856  0.1131
24327W        W40588  14.587  13.533   0.966 -0.4549  0.2501  0.0166
24328W        W40589  15.573   2.585  10.831  0.0399 -0.1627 -0.0887
24329W        W40590   5.435   4.408   4.178 -0.0511  0.1107  0.0147
24330W        W40591   1.636   3.400  11.884 -0.2574  0.0000 -0.0673
24331W        W40592  15.859  13.175  14.123 -0.0002  0.0555 -0.1602
24332W        W40593  11.191   4.667  12.607 -0.0155  0.2306  0.0772
24333W        W40594  11.072   0.320  12.900  0.1868 -0.0979 -0.1597
24334W        W40595  15.574   5.355  12.696 -0.1725 -0.1437  0.0206
24335W        W40596   9.488   5.008  13.298  0.2369  0.1687 -0.3453
24336W        W40597  16.293  16.629  11.031 -0.1776  0.0647 -0.0324
24337W        W40598  17.118   7.528  13.185  0.1502  0.0890  0.0900
24338W        W40599  10.845  18.087  15.647  0.2874 -0.0581  0.1487
24339W        W40600  11.291  10.029   4.980 -0.0250  0.0232  0.2621
24340W        W40601   4.118  16.745  11.702  0.1521 -0.0326  0.0054
24341W        W40602  18.566  15.828  12.365 -0.2111  0.1775 -0.2826
24342W        W40603  14.212   1.385   5.222 -0.0337  0.0457 -0.2322
24343W        W40604   0.450   2.239   3.295 -0.1744  0.0910 -0.0725
24344W        W40605  17.473  11.263  14.019  0.1397 -0.1666 -0.2635
24345W        W40606   1.887  10.135  13.515  0.2136 -0.1195 -0.3961
24346W        W40607   5.064  10.569   1.592 -0.3342 -0.1855  0.2447
24347W        W40608  15.702  13.476   2.370 -0.0663  0.0398  0.0974
24348W        W40609  12.339   3.979   2.085 -0.2707  0.1842 -0.0817
24349W        W40610  11.653   5.936   5.101 -0.2554  0.0916 -0.2737
24350W        W40611   0.299  11.550   4.935 -0.5638 -0.0840 -0.1239
24351W        W40612   5.378   6.680  14.912 -0.0108  0.1655 -0.0271
24352W        W40613  14.000  15.211   4.826  0.0306 -0.1760  0.0444
24353W        W40614  16.957  18.051  11.670 -0.0968 -0.3230  0.0618
24354W        W40615   4.390   3.836   2.666 -0.1218  0.2905 -0.4036
24355W        W40616  12.237   6.986  12.490  0.0386  0.2091  0.3276
24356W        W40617  16.947   3.706   4.469  0.0750 -0.0579 -0.0872
24357W        W40618   7.842  15.267  13.448  0.0853  0.2981  0.4062
24358W        W40619  13.622   6.958  14.859 -0.1753 -0.3713 -0.0201
24359W        W40620  10.705   6.332  10.597 -0.0514 -0.0629 -0.1678
24360W        W40621  15.102   5.345   1.670  0.0993 -0.2543 -0.0580
24361W        W40622  17.052   8.001   4.025 -0.2233  0.1813 -0.0178
24362W        W40623  16.875   4.763   5.076  0.2474 -0.0544 -0.1899
24363W        W40624  17.260   8.507  13.950 -0.2802  0.2941  0.1908
24364W        W40625  13.433  18.743   0.211 -0.1679 -0.0930 -0.0261
24365W        W40626   2.974   6.634   0.419 -0.1048 -0.0331  0.0959
24366W        W40627   7.348   4.568  15.347 -0.1769  0.0083  0.0834
24367W        W40628   0.827   7.526   4.198 -0.0372  0.1016 -0.2013
24368W        W40629  11.991   6.362   3.377  0.1043  0.1608  0.1483
24369W        W40630   3.757   1.949  13.893  0.1585 -0.2935  0.0692
24370W        W40631   5.552   2.271  13.903  0.0198  0.2024  0.1436
24371W        W40632  17.186   5.566   5.190 -0.0020  0.0106 -0.1385
24372W        W40633  13.312  10.317  12.682  0.0116  0.2643 -0.1286
24373W        W40634  16.958  13.880   1.589 -0.0876  0.0092 -0.2298
24374W        W40635  18.214  17.631  12.119  0.1464  0.0692  0.0274
24375W        W40636  16.187  17.886  15.146  0.0656 -0.0255  0.0163
24376W        W40637   0.101   2.242  13.986 -0.0538  0.0751  0.0662
24377W        W40638   5.872  10.741  14.677  0.1261 -0.2935 -0.0819
24378W        W40639  16.234   4.396   5.529  0.2349 -0.3163  0.4974
24379W        W40640   0.090   9.859  11.274 -0.1185  0.0514  0.0010
24380W        W40641   6.008  17.257   0.790 -0.1698  0.1988 -0.3451
24381W        W40642   5.895   4.420   4.985 -0.1513  0.0750  0.0907
24382W        W40643  13.518  12.077   3.751 -0.2173  0.4365 -0.0357
24383W        W40644  17.038   3.286   0.538  0.0693 -0.1261  0.1913
24384W        W40645  18.370  14.315   2.531  0.4017 -0.2196 -0.0955
24385W        W40646   3.166  10.380   0.166  0.0608  0.1710 -0.1409
24386W        W40647  15.420   7.107   3.000 -0.3704  0.0737 -0.1230
24387W        W40648  15.110   0.857  14.054  0.0830 -0.1001 -0.0023
24388W        W40649  16.854  16.961  11.792 -0.2495 -0.0936  0.2915
24389W        W40650  11.530   6.711   0.775  0.0255  0.1880  0.3081
24390W        W40651  18.452   5.133   2.945 -0.0267 -0.1100 -0.1288
24391W        W40652  15.987   6.194   2.364  0.1484 -0.1898 -0.0911
24392W        W40653   1.719  14.312   2.333  0.1649  0.0395  0.0655
24393W        W40654  12.000   8.832   4.974  0.3611 -0.1641 -0.3731
24394W        W40655  13.503   8.514   4.416 -0.1356 -0.0003  0.0179
24395W        W40656   8.369  14.671  14.611  0.0154 -0.1103 -0.1218
24396W        W40657   2.753   4.004  13.839  0.0560  0.2367 -0.1316
24397W        W40658   7.387  16.025  13.588 -0.0894  0.1015  0.2656
24398W        W40659   3.738  16.779   3.365  0.0411  0.0047 -0.2614
24399W        W40660  11.283  17.723   0.644  0.0594 -0.3159 -0.1975
24400W        W40661  10.622   9.952  13.015  0.3986  0.1162  0.1629
24401W        W40662  14.623   8.597   3.110 -0.0075 -0.0430  0.2159
24402W        W40663   2.122   0.619  15.146  0.2942 -0.0415  0.2964
24403W        W40664  13.333   8.331   4.909 -0.1669  0.2314 -0.2172
24404W        W40665  16.030  10.119  15.202  0.1143 -0.0352 -0.0705
24405W        W40666   1.054   8.458   1.287  0.1669  0.0988 -0.0738
24406W        W40667   2.132  13.199  11.887  0.0403 -0.3879  0.0872
24407W        W40668   4.855   6.443  11.830  0.1422  0.1497 -0.0800
24408W        W40669  10.507  18.613  11.522 -0.1645 -0.1249  0.1242
24409W        W40670  16.390   4.928  12.752  0.0259 -0.1253  0.3014
24410W        W40671  14.829  11.678  13.653 -0.0573 -0.2210  0.1279
24411W        W40672  11.651   2.893   0.263  0.4008  0.0475  0.0540
24412W        W40673   2.969  15.224  14.517 -0.1220  0.2018 -0.2607
24413W        W40674  14.261   6.505   5.203  0.0779  0.1362  0.2369
24414W        W40675  15.047   8.332   5.331 -0.2209 -0.1497  0.1341
24415W        W40676  12.883   3.845   2.170 -0.0913 -0.0352  0.2667
24416W        W40677   6.950   9.638  12.286 -0.1898 -0.0390 -0.0550
24417W        W40678   8.702  11.142  12.082 -0.0895  0.0818  0.1612
24418W        W40679  14.394  13.189   2.694  0.2367 -0.0577 -0.1754
24419W        W40680  18.424   0.974  14.855 -0.0069 -0.2928 -0.0874
24420W        W40681   8.656  18.293  15.237  0.0648  0.0049 -0.1927
24421W        W40682  14.915  14.189  11.250 -0.0902  0.3303 -0.3346
24422W        W40683  15.233   6.307   3.582 -0.0019 -0.1531  0.1216
24423W        W40684  11.920   2.369   2.440  0.1875  0.2032  0.0089
24424W        W40685   8.362   5.722   0.838 -0.2230  0.1915  0.1485
24425W        W40686   6.811   3.655  13.785  0.1222 -0.3030 -0.1653
24426W        W40687   1.174  13.808   1.565  0.2957 -0.1230 -0.0363
24427W        W40688   5.064   9.989   1.000 -0.1296 -0.2898  0.1840
24428W        W40689   0.101   9.359  12.081 -0.1355 -0.0416  0.1300
24429W        W40690  14.858  16.073  14.781  0.0767 -0.1522 -0.1043
24430W        W40691  15.565   0.159  14.627  0.1654 -0.1337  0.1405
24431W        W40692   3.850   3.819  13.141  0.0235 -0.1910 -0.1745
24432W        W40693  11.627   3.622  11.734 -0.0360  0.6562  0.0868
24433W        W40694  17.655  11.258   3.312 -0.4802 -0.3064  0.0825
24434W        W40695   1.398   4.826   0.728  0.2349 -0.0875 -0.2253
24435W        W40696   3.918   5.408   3.373  0.0658  0.0200  0.1899
24436W        W40697   8.214   9.627  11.193  0.0523 -0.1334  0.3399
24437W        W40698  15.820  10.587   1.975 -0.1833  0.5513 -0.0477
24438W        W40699  10.356  11.762   0.644  0.0590 -0.0099 -0.1731
24439W        W40700  12.643  12.412  13.463 -0.2874  0.1504 -0.4347
24440W        W40701  12.321   4.295   3.295  0.0984  0.0413  0.2836
24441W        W40702  18.039   0.635   4.418 -0.0122 -0.1449  0.0114
24442W        W40703  12.273  12.475   4.886 -0.2158  0.3693 -0.1854
24443W        W40704  10.765   6.218   2.747  0.0149 -0.1317 -0.2138
24444W        W40705  12.382  12.671   3.231  0.0035 -0.3339  0.2367
24445W        W40706   6.620  11.799  15.163  0.0095  0.0348 -0.1152
24446W        W40707   4.821  16.165   0.251  0.2122 -0.4323 -0.0453
24447W        W40708   9.892   4.104   3.000  0.0245 -0.1253 -0.1137
24448W        W40709   2.126  14.395   3.930  0.1465 -0.2701 -0.0740
24449W        W40710  15.527  17.590   5.569 -0.0190 -0.0794 -0.1413
24450W        W40711   9.502  15.658   0.838  0.0119 -0.1282 -0.0931
24451W        W40712  16.230   7.245  12.951 -0.0861  0.1603 -0.2552
24452W        W40713   7.767  10.223  14.525  0.0658  0.2053  0.2242
24453W        W40714   0.607   8.205  12.404  0.0119 -0.1799  0.2534
24454W        W40715   6.329   7.874  15.082  0.1272  0.1705  0.2841
24455W        W40716  16.004  14.267   0.172  0.0233 -0.0532  0.1591
24456W        W40717  15.220  17.254  14.894 -0.0621 -0.1604  0.0262
24457W        W40718  15.406  17.578  14.491 -0.3372 -0.1774 -0.1141
24458W        W40719   6.273  15.248   5.039  0.1224 -0.1411  0.1390
24459W        W40720   4.941   0.230  14.190  0.0396 -0.2087 -0.0662
24460W        W40721   3.994   6.561  12.450  0.2132 -0.0110  0.2719
24461W        W40722  17.858   4.358  10.141  0.0659  0.1467 -0.0152
24462W        W40723  12.569  17.131   0.601 -0.0613  0.1247  0.0572
24463W        W40724  11.315  15.990  12.892  0.1249  0.0058  0.3096
24464W        W40725  17.355   6.777   4.730 -0.2431 -0.2274 -0.0291
24465W        W40726   5.837   0.150   5.355  0.1158 -0.1009  0.0232
24466W        W40727  18.638   1.842  14.114  0.5038  0.0261 -0.2511
24467W        W40728  11.472  12.786  10.760  0.0876 -0.2096  0.0560
24468W        W40729   8.072  11.862   4.766 -0.0970  0.2519  0.0118
24469W        W40730   0.763   6.387   5.083 -0.0654  0.0639  0.1288
24470W        W40731  17.564  16.084   4.532  0.1983 -0.1820 -0.0006
24471W        W40732   0.795  17.557  13.581  0.4768 -0.2673  0.1389
24472W        W40733   4.999  11.910   1.560  0.0989  0.1225  0.2787
24473W        W40734   6.084   1.932   0.559 -0.1776 -0.2780  0.4037
24474W        W40735  17.674  14.358   3.163  0.2853 -0.0646 -0.0626
24475W        W40736   7.965  11.577   1.526  0.0158  0.0820 -0.2286
24476W        W40737  12.287  18.334   3.198 -0.0973  0.2332 -0.2817
24477W        W40738   0.927  17.102  13.406  0.2311 -0.2111  0.1148
24478W        W40739  16.502   8.485  11.254 -0.0763  0.3085 -0.3668
24479W        W40740  13.600   0.779   5.108  0.0726  0.0243  0.1870
24480W        W40741  17.721  12.693  14.596  0.0641  0.0465  0.2528
24481W        W40742   7.267   8.702   4.043 -0.0506  0.1021  0.0218
24482W        W40743   8.660   0.119   0.266 -0.2488  0.3003  0.4211
24483W        W40744  15.191  16.637  12.062  0.1834  0.0670  0.1933
24484W        W40745  18.289   9.661  14.530 -0.0529 -0.1718 -0.3223
24485W        W40746   5.547   5.635   2.128  0.0754 -0.0896  0.0297
24486W        W40747   8.210   2.511   3.813  0.0821  0.1823  0.1065
24487W        W40748  12.707  16.883   0.189  0.2772  0.2554  0.1068
24488W        W40749  18.059  16.974   1.363  0.0916  0.1104  0.1399
24489W        W40750   9.916   1.692  11.320  0.3426  0.0200 -0.2028
24490W        W40751  12.689  16.001   1.226 -0.1870  0.0748  0.1369
24491W        W40752   4.322   1.742   3.386  0.2369 -0.0655 -0.1066
24492W        W40753  15.899   7.206  11.466  0.2849 -0.0232 -0.0108
24493W        W40754   1.960  10.111  10.805  0.0445 -0.1152  0.2270
24494W        W40755   7.969  13.950  14.715 -0.1409 -0.3366 -0.1054
24495W        W40756   3.003   3.702  12.776 -0.1559  0.0111 -0.2026
24496W        W40757   6.773   5.018   1.857 -0.2681 -0.3768  0.2551
24497W        W40758  11.607   8.597   3.456  0.0707 -0.0481 -0.0967
24498W        W40759   2.617  12.365   1.838  0.1143  0.0590  0.5395
24499W        W40760   2.454   5.891  11.173  0.0197  0.3132  0.0711
24500W        W40761   8.614   6.038  10.532  0.0979  0.0738 -0.0707
24501W        W40762  17.802   8.712  10.944 -0.0434  0.0147 -0.1900
24502W        W40763  14.402  11.504   0.557  0.0831  0.2829  0.0071
24503W        W40764   2.908  12.804   4.157 -0.2013  0.0207 -0.1814
24504W        W40765   0.031   8.267  15.237  0.0914 -0.0896  0.0790
24505W        W40766   0.105   0.709  11.543  0.1035 -0.1138 -0.0335
24506W        W40767  10.096  12.462   2.239  0.1335  0.1292  0.0129
24507W        W40768  14.563   8.711   4.148  0.1553 -0.0094  0.1863
24508W        W40769  10.077  17.928   2.379 -0.2101  0.2878 -0.1192
24509W        W40770   4.052  14.574   1.756  0.1509  0.0076  0.1506
24510W        W40771  13.766  12.345  15.354 -0.0470 -0.3623  0.2188
24511W        W40772  13.536  14.322   3.929  0.0209 -0.0486  0.1652
24512W        W40773   0.616  11.182  12.515  0.0632  0.2541  0.2382
24513W        W40774   2.626   3.236  12.305 -0.0316  0.1049 -0.2511
24514W        W40775   3.576  17.296   1.978 -0.1759  0.2356  0.1343
24515W        W40776  15.726   6.410   0.000  0.0222 -0.0749  0.0835
24516W        W40777  18.392   7.107   4.111 -0.0751 -0.2202 -0.1084
24517W        W40778   4.011   4.547   0.556  0.1548  0.0850  0.0126
24518W        W40779  14.352  10.501   2.081  0.3088  0.1379 -0.1657
24519W        W40780   9.835  18.027  15.247 -0.1428  0.0230 -0.2463
24520W        W40781  10.537   9.433   0.537  0.1133  0.2556  0.1745
24521W        W40782  15.985   0.846   4.118  0.2060  0.3535 -0.2738
24522W        W40783   2.404  10.330   0.332 -0.2125 -0.0188 -0.2778
24523W        W40784  10.921  15.925  11.361  0.0338  0.1293 -0.0659
24524W        W40785   2.679  15.581   1.447  0.1901 -0.3963  0.3303
24525W        W40786  16.703  18.580  14.142  0.2908 -0.2734 -0.1152
24526W        W40787   7.508   3.281  15.134  0.3546 -0.0939 -0.1437
24527W        W40788   8.031   3.380  10.630 -0.2402  0.3449  0.0451
24528W        W40789  16.852  18.378  12.136 -0.2645  0.1497 -0.0756
24529W        W40790   6.463  16.483   3.075  0.2009  0.1561  0.1128
24530W        W40791   5.924   3.144  14.044  0.0885  0.1654 -0.0016
24531W        W40792   8.692   1.472  13.758 -0.2700 -0.1281 -0.1950
24532W        W40793  10.984   0.426   3.276 -0.1927  0.0209 -0.1417
24533W        W40794  10.874  18.632   2.098  0.0124 -0.0834  0.1094
24534W        W40795   2.300  18.528  11.673 -0.2179 -0.0986  0.0587
24535W        W40796  17.242  14.175   5.376 -0.2395 -0.0257 -0.2955
24536W        W40797   0.034   4.934   4.400  0.0626  0.1175 -0.0655
24537W        W40798  17.487  15.111  14.529 -0.2845 -0.1478  0.1477
24538W        W40799  12.898   9.921   4.506  0.1937  0.0798  0.1185
24539W        W40800  16.245  14.982   1.356  0.1507  0.0041  0.2266
24540W        W40801  15.791   5.741  12.483  0.1129  0.1591 -0.1453
24541W        W40802   7.822  15.746  12.170  0.0661  0.0059 -0.5142
24542W        W40803   3.768  18.123  12.994 -0.2290  0.0456 -0.1837
24543W        W40804   8.584   4.402   0.326 -0.0887  0.0164 -0.0293
24544W        W40805  17.590   8.497   4.990 -0.0153  0.2133  0.3120
24545W        W40806  18.397   5.084  13.461  0.1611  0.3194 -0.1832
24546W        W40807  11.136  17.138  14.034 -0.0965  0.0389 -0.0880
24547W        W40808   3.565  13.192  12.528 -0.0239 -0.0541 -0.6177
24548W        W40809   1.761  18.208   3.751  0.0671  0.1854 -0.1488
24549W        W40810  14.552   3.942   0.173 -0.1168 -0.2664 -0.1559
24550W        W40811   3.013  13.455   1.240 -0.2393 -0.1311  0.0164
24551W        W40812  10.784  12.187  10.312 -0.0497  0.0899 -0.2120
24552W        W40813   1.171   9.315   2.499  0.0075 -0.1647  0.0712
24553W        W40814  10.549   9.798  11.376 -0.1592 -0.0981 -0.1118
24554W        W40815  15.436   4.256   0.627 -0.2964 -0.1294 -0.1000
24555W        W40816  14.523   9.995   3.794 -0.0418  0.1606 -0.1635
24556W        W40817   6.792  18.015   4.300 -0.1326  0.2211  0.1734
24557W        W40818   4.223  14.114   2.031  0.0926  0.3002  0.1916
24558W        W40819  17.245  18.044   0.301 -0.1443  0.2180  0.1252
24559W        W40820  14.342  15.263  13.467 -0.3035  0.3384 -0.1178
24560W        W40821  13.604  16.391   2.902  0.2086 -0.0154 -0.1220
24561W        W40822   2.430  11.186   5.813 -0.1814 -0.0263 -0.0167
24562W        W40823   8.212  10.635  11.288  0.0823  0.0746  0.0139
24563W        W40824  13.190   1.271   3.121 -0.1630 -0.1476 -0.2885
24564W        W40825   3.568  12.269  11.046 -0.1747  0.1295  0.0402
24565W        W40826   3.725  14.236   0.963 -0.5089 -0.0702  0.1063
24566W        W40827   5.650   7.860   4.843  0.1946  0.1192  0.2708
24567W        W40828   5.463   9.645   1.422  0.0917 -0.0043 -0.0001
24568W        W40829  18.586   1.844   5.118  0.3051 -0.1091 -0.0987
24569W        W40830   5.986  15.529   1.945 -0.4424 -0.1700  0.0993
24570W        W40831  16.932  13.918   5.083  0.0810 -0.0875  0.1316
24571W        W40832   2.055   9.991  14.014 -0.1133  0.2902  0.3716
24572W        W40833  16.243  12.321   2.258 -0.2358  0.3388  0.0423
24573W        W40834   7.205  15.980  14.193  0.0855  0.0450  0.0875
24574W        W40835  17.856  12.705  10.538 -0.3198  0.0865  0.1030
24575W        W40836   5.389   1.355  11.096  0.1531 -0.1467  0.4553
24576W        W40837  18.011   6.612  14.963 -0.0522  0.2905 -0.0017
24577W        W40838   2.533  10.133  11.318 -0.1059 -0.2040  0.0238
24578W        W40839   5.837   6.727   2.470  0.3543  0.0793  0.1198
24579W        W40840   2.931  15.734  10.906 -0.0424  0.0049  0.0101
24580W        W40841   7.255  10.413   1.808  0.2431 -0.2012  0.1096
24581W        W40842   3.463  16.339   3.109 -0.0662  0.2888  0.2330
24582W        W40843   4.515  17.339   5.492  0.0260  0.1827 -0.0250
24583W        W40844   7.958  14.121  15.575 -0.2130 -0.0115  0.0386
24584W        W40845  10.433   5.061   0.026  0.1359  0.1131 -0.0334
24585W        W40846   9.968  16.844   5.789 -0.1847  0.1844 -0.1535
24586W        W40847  17.235  11.844  11.802 -0.4278 -0.0601 -0.2771
24587W        W40848  11.456  12.516   4.560  0.1622  0.2683  0.0247
24588W        W40849  12.287  12.882  11.492 -0.2191  0.4144 -0.1872
24589W        W40850   6.230  12.914  12.171 -0.3493  0.1329  0.1122
24590W        W40851  17.192  11.362   2.188  0.0532 -0.2863 -0.0934
24591W        W40852   8.198   3.749   3.654 -0.0381 -0.2820 -0.0874
24592W        W40853  12.886   1.577   2.820  0.1000 -0.1259  0.2180
24593W        W40854  14.580  10.326  11.375 -0.2893 -0.1153  0.4961
24594W        W40855   3.593   1.654   5.103  0.0836  0.2125 -0.1679
24595W        W40856  17.056   6.347   4.199 -0.4394  0.0705 -0.0293
24596W        W40857   3.543   3.876  12.763 -0.0745 -0.0274  0.2496
24597W        W40858   0.613  13.153  14.169  0.0658  0.0724 -0.4508
24598W        W40859   1.682   7.411   2.116 -0.1787  0.0431  0.3002
24599W        W40860   9.382  12.739   0.065  0.0545  0.3252  0.1730
24600W        W40861   6.656  16.670   5.026  0.1130  0.0266 -0.2907
24601W        W40862  10.671   6.473  13.222 -0.1207 -0.2339  0.2605
24602W        W40863   7.548  11.625   0.629 -0.0198 -0.1357 -0.0046
24603W        W40864  15.087   4.738  13.392 -0.1900  0.0062 -0.2760
24604W        W40865  16.488   6.776   4.198 -0.1773 -0.2591  0.3181
24605W        W40866   7.874  18.163   5.290  0.3375 -0.1458  0.0479
24606W        W40867   8.360  17.859   1.671 -0.0832 -0.0769  0.1551
24607W        W40868   4.720  13.032   3.958  0.0549  0.0178 -0.2974
24608W        W40869  14.971   0.441  10.351 -0.0234 -0.0398 -0.3666
24609W        W40870   1.686   8.294   5.168  0.0190  0.0430 -0.2421
24610W        W40871   7.232   0.370  11.999  0.0070  0.0784 -0.2216
24611W        W40872   9.277   5.843   0.773 -0.0706  0.1424 -0.2504
24612W        W40873   1.271   1.606   0.687  0.0775 -0.1828  0.2293
24613W        W40874   3.077  14.303  10.508 -0.1853 -0.0264  0.2114
24614W        W40875   3.461  15.349   0.762  0.4747 -0.1478  0.2642
24615W        W40876   5.913  17.572  15.076 -0.0065  0.2625  0.1945
24616W        W40877   0.965   4.087   5.829  0.1061 -0.0270  0.0980
24617W        W40878   6.349  16.126  13.573 -0.1528  0.1646  0.1606
24618W        W40879   5.232   6.038   4.545 -0.2718  0.4207  0.0088
24619W        W40880   0.706   8.246   0.679 -0.3079 -0.0506  0.0197
24620W        W40881  15.874   3.297  14.355 -0.1412  0.0440 -0.3197
24621W        W40882   8.536   2.243  11.448 -0.1089 -0.1889  0.1979
24622W        W40883   3.462   6.360  13.151 -0.1441 -0.2124 -0.2270
24623W        W40884  14.612  14.747  12.454  0.1275 -0.2381  0.2664
24624W        W40885   5.483  15.190  15.345  0.2345 -0.0939 -0.4772
24625W        W40886   6.198   7.618  11.334 -0.2392 -0.2043 -0.2561
24626W        W40887   3.391   2.402  13.189 -0.2145  0.0722 -0.0099
24627W        W40888   8.979   1.996  11.970 -0.1986  0.1922  0.0908
24628W        W40889  17.664   4.291  12.970 -0.3782  0.0818  0.1079
24629W        W40890  11.821  10.016   4.924  0.1379 -0.2995  0.1719
24630W        W40891  14.358   6.233   1.489  0.2598 -0.1994  0.0575
24631W        W40892   7.537   3.701   2.101  0.2317  0.3534 -0.1635
24632W        W40893  15.996   6.752  12.979  0.1965  0.2864 -0.1170
24633W        W40894   3.983   5.901   3.970 -0.1710  0.0216 -0.0043
24634W        W40895  14.030  13.625  14.552  0.0573  0.2375 -0.0856
24635W        W40896   2.463   0.262  12.014  0.1504 -0.0218  0.3636
24636W        W40897  13.434   5.750   4.495  0.5145 -0.1784 -0.1219
24637W        W40898   3.116  11.974  15.127  0.0442  0.2500  0.1161
24638W        W40899   4.520   0.769   1.030  0.0949  0.4088 -0.0142
24639W        W40900  11.312   5.064  12.275  0.0108  0.1667 -0.0035
24640W        W40901   1.230  17.844   4.077  0.0772  0.1640 -0.0229
24641W        W40902  11.172  15.208  11.807 -0.3050  0.1015 -0.0983
24642W        W40903  17.627   4.468   3.707 -0.0172  0.0678  0.1940
24643W        W40904  18.383  16.132  14.147  0.1045 -0.1016  0.0767
24644W        W40905   3.529  17.205   4.258 -0.0184  0.0499  0.0852
24645W        W40906   3.226  14.711   5.038 -0.1421 -0.1081 -0.1448
24646W        W40907   8.535  17.875   4.091 -0.1578 -0.0136  0.1120
24647W        W40908  17.085  12.428  13.350 -0.2289 -0.2428 -0.0964
24648W        W40909  10.508   7.300  14.416 -0.1368 -0.1411 -0.2530
24649W        W40910   5.533   4.137   3.376  0.2701 -0.2315 -0.5213
24650W        W40911   2.419   8.861  15.039 -0.1670  0.0625 -0.1089
24651W        W40912  16.489  17.489   2.325 -0.3689  0.2251 -0.0889
24652W        W40913  18.093   9.507   0.255  0.3793  0.2353  0.0313
24653W        W40914   4.960  12.668  13.526 -0.5363 -0.1035 -0.4519
24654W        W40915  12.796   4.700  14.679  0.0457 -0.1723  0.2629
24655W        W40916  14.263  18.082  13.487 -0.0158  0.0247 -0.0149
24656W        W40917  17.907   7.211   4.274 -0.3822  0.0769  0.1875
24657W        W40918   4.698   5.522   1.807 -0.1535  0.1706  0.1388
24658W        W40919  17.010  16.879   2.449  0.1526  0.1540  0.0569
24659W        W40920   2.023  11.489  13.284  0.1921 -0.3126 -0.0045
24660W        W40921   6.871   4.014   2.208 -0.0799  0.0605  0.0914
24661W        W40922  17.885   2.503  13.085 -0.1060  0.0774  0.1483
24662W        W40923   5.014   9.780   2.168 -0.0868 -0.0954  0.1199
24663W        W40924   6.038   6.199   5.650  0.1183 -0.0666  0.1559
24664W        W40925   1.590  14.171  15.485 -0.0101 -0.2242  0.0619
24665W        W40926   7.161   0.025   2.050  0.0785  0.0943  0.2550
24666W        W40927   2.528   4.668   0.401 -0.0481 -0.2616  0.1785
24667W        W40928   6.205   5.397  12.500 -0.4162 -0.3660 -0.2999
24668W        W40929   8.160  18.078  15.192 -0.0753  0.0039  0.0548
24669W        W40930  11.741  13.690  14.741  0.0288 -0.2727  0.4661
24670W        W40931  16.772  15.512   4.345  0.0436 -0.1068 -0.1738
24671W        W40932  16.563   8.131   2.940  0.3494 -0.1245 -0.0359
24672W        W40933  12.607   9.898   2.090 -0.3393 -0.0564  0.0339
24673W        W40934   1.435  16.351   3.130  0.2737  0.1422  0.2459
24674W        W40935  15.606   2.625   3.790 -0.0309  0.2181 -0.1000
24675W        W40936   9.685  14.115  15.642 -0.0979 -0.2155  0.1167
24676W        W40937   8.807   1.803  12.411  0.0739  0.3035  0.1942
24677W        W40938  10.037  17.044  12.608 -0.0081 -0.0214 -0.1779
24678W        W40939  15.956   0.902  15.097 -0.0547  0.3240 -0.0359
24679W        W40940  15.690  10.946  11.307 -0.3473 -0.1344  0.2000
24680W        W40941  14.838   3.573  10.852  0.2911 -0.3500  0.0170
24681W        W40942   0.710  13.850   4.786 -0.0158  0.2034 -0.0052
24682W        W40943  13.037   5.636  14.558 -0.1507  0.0028  0.2036
24683W        W40944   1.695   9.005  15.642  0.1139  0.1610  0.1384
24684W        W40945  13.153  15.406  10.797 -0.2262  0.0536  0.1772
24685W        W40946  15.359   5.807  12.515  0.1874  0.1976 -0.1122
24686W        W40947  10.636   2.794  13.879 -0.4400  0.0699  0.1674
24687W        W40948   3.068  15.036   0.841  0.0415  0.0938 -0.0018
24688W        W40949  10.529  13.947   0.658 -0.0906  0.2077  0.1494
24689W        W40950   2.351   8.420  11.342  0.0455  0.1781 -0.1609
24690W        W40951   4.460   9.023  14.571  0.2560  0.1725 -0.1447
24691W        W40952  13.070  15.180   4.542 -0.1597  0.0844 -0.0073
24692W        W40953   4.881   8.278   3.739  0.1707 -0.2751 -0.0949
24693W        W40954   5.680  11.384   0.225  0.1721  0.0003  0.2811
24694W        W40955  13.993  11.906  14.086 -0.3262  0.1181  0.1001
24695W        W40956   9.805  11.200   2.028 -0.4683 -0.0153  0.0297
24696W        W40957   5.617   6.638  10.792 -0.0124 -0.1015  0.1266
24697W        W40958   9.088  18.155  15.618  0.0914  0.0196 -0.0752
24698W        W40959  11.340   1.128   3.556  0.0997  0.0690  0.3139
24699W        W40960  11.167   8.594   2.671  0.0641  0.2199  0.2380
24700W        W40961   0.595   3.365   3.857 -0.1128 -0.0190 -0.1947
24701W        W40962   4.868   5.945   3.052  0.0329  0.2058 -0.2275
24702W        W40963  13.334   9.076  12.534  0.0454 -0.3140  0.2616
24703W        W40964  10.951  17.824   3.954  0.1013  0.1457 -0.0228
24704W        W40965  11.584  13.530  12.830 -0.0356 -0.1104 -0.0592
24705W        W40966   3.436   6.098  13.966 -0.3036 -0.0313 -0.1105
24706W        W40967   9.591   1.256   1.592 -0.1021 -0.0566 -0.2939
24707W        W40968   2.399  17.780   3.018 -0.2947 -0.2419  0.1260
24708W        W40969  12.461   3.332  12.801 -0.0109 -0.1186  0.0583
24709W        W40970  17.901  11.825   1.917 -0.0331  0.0858  0.0242
24710W        W40971  10.624  16.610  11.886  0.1894  0.0066  0.0022
24711W        W40972   4.239  16.228   4.039  0.1866 -0.5992 -0.2779
24712W        W40973   2.982   6.180  12.612 -0.2368  0.1785  0.3470
24713W        W40974   5.692  11.921  12.898 -0.2768 -0.1924 -0.0018
24714W        W40975  10.522  10.193  11.989 -0.1582  0.1193  0.0556
24715W        W40976   7.765   3.464  14.133 -0.0848  0.0133  0.2591
24716W        W40977   2.295   2.601   1.212  0.1258  0.2485 -0.0485
24717W        W40978   4.264  16.555   4.454 -0.1448  0.0906 -0.0520
24718W        W40979   4.944  13.440  15.431 -0.0208 -0.0006 -0.0771
24719W        W40980  14.737   8.454   0.005  0.0407  0.1156 -0.1713
24720W        W40981  18.476  17.319   2.761  0.1245 -0.1366  0.0012
24721W        W40982   8.367  12.300  12.868 -0.2532  0.2110  0.0712
24722W        W40983  16.904  15.532  11.841 -0.1450 -0.0722  0.1668
24723W        W40984   6.307   6.987   3.852  0.1699 -0.0643 -0.3361
24724W        W40985   2.263  14.797   5.650  0.1226 -0.2453 -0.0959
24725W        W40986   4.910  14.188   2.042  0.2953  0.1560  0.0164
24726W        W40987   4.994  14.809  12.902 -0.1075  0.0624  0.3551
24727W        W40988   6.244  14.312   4.845 -0.2566 -0.0040 -0.2604
24728W        W40989   4.447   7.352  12.467 -0.1135 -0.1368  0.1488
24729W        W40990   3.688  17.588  14.568  0.1423 -0.0649  0.0936
24730W        W40991   4.376   4.175   0.128 -0.1295 -0.1280 -0.0166
24731W        W40992  17.903   0.503  14.313 -0.0362 -0.0203 -0.0222
24732W        W40993   3.840   9.235   2.116  0.1470 -0.0250  0.3895
24733W        W40994  16.596  12.877   4.684  0.2757  0.1364 -0.0924
24734W        W40995  13.485   3.306  12.597  0.0494  0.0440 -0.0028
24735W        W40996  18.785   3.153   3.728  0.0415  0.1184 -0.0490
24736W        W40997   2.771   4.097   2.369  0.0926 -0.1263  0.0767
24737W        W40998  10.992   5.869  15.402  0.0126 -0.3976  0.0487
24738W        W40999  13.916  18.050   1.237  0.2327 -0.0466  0.0794
24739W        W41000  10.358  10.472   0.703  0.0879 -0.0983  0.3577
24740W        W41001  14.163   6.701  13.387  0.0636  0.2499 -0.1220
24741W        W41002  10.362  17.509   2.192 -0.3286  0.3501 -0.1874
24742W        W41003  12.078   5.178  15.177 -0.1241 -0.4685  0.3839
24743W        W41004   8.633   9.032   2.927  0.3316  0.2388 -0.0707
24744W        W41005  11.549  11.625   9.933 -0.1134  0.0114 -0.2898
24745W        W41006  12.622  13.812   4.920  0.4382  0.0035 -0.1293
24746W        W41007   5.001  12.300  14.764 -0.4620  0.3389 -0.0776
24747W        W41008  11.966   4.496   5.079  0.0593  0.0841  0.0904
24748W        W41009  14.021  18.415  14.751 -0.0486 -0.0893  0.2203
24749W        W41010   1.164  16.742   3.598 -0.2192 -0.2673 -0.0195
24750W        W41011  14.081  13.937  13.484  0.2129 -0.0085 -0.0709
24751W        W41012  10.493  14.997  14.000  0.1940 -0.2046  0.0825
24752W        W41013   0.279   4.773  14.365  0.0010 -0.0573  0.3328
24753W        W41014   3.685  16.907   3.857  0.0170 -0.2029  0.0364
24754W        W41015  16.939  10.904   2.192 -0.3571  0.0511 -0.0948
24755W        W41016   7.120   6.912  12.824  0.0905 -0.0233 -0.0233
24756W        W41017   9.639   0.412  13.942 -0.0860 -0.0196  0.6296
24757W        W41018   0.544  15.340  12.474  0.1938  0.1107 -0.2157
24758W        W41019   3.058   3.055   0.806  0.1560  0.0756 -0.0267
24759W        W41020  18.078  16.206   0.729 -0.0308  0.0539  0.3883
24760W        W41021  13.296   9.192  13.105  0.3088  0.3700  0.3365
24761W        W41022  10.112  14.600   2.714 -0.0045  0.2234 -0.2289
24762W        W41023   0.948  13.727  12.056 -0.1103 -0.0697  0.3733
24763W        W41024  12.710  16.211  11.000  0.0984  0.0198  0.1952
24764W        W41025   6.805  18.389  13.122  0.0340 -0.1399 -0.1716
24765W        W41026   1.911  11.799   5.976  0.2806  0.3427  0.0082
24766W        W41027  11.771  10.476   1.080 -0.2471  0.4684 -0.2097
24767W        W41028   1.657  12.712  14.146 -0.0306 -0.1896 -0.1754
24768W        W41029  18.807  14.763  12.166  0.0379 -0.2352 -0.0440
24769W        W41030  17.489  13.096  14.271 -0.0484 -0.3317 -0.2217
24770W        W41031  13.175  10.057   9.522 -0.0336 -0.2470  0.0182
24771W        W41032   9.197   9.805   0.757  0.0396 -0.0316  0.0505
24772W        W41033   8.103  12.113   2.295 -0.0927 -0.0757 -0.2860
24773W        W41034  11.520  13.087   3.544  0.0188 -0.3530 -0.1114
24774W        W41035  13.273  13.359  12.943 -0.2870 -0.1921  0.0945
24775W        W41036   0.196   1.632   5.134 -0.0544 -0.0178  0.2839
24776W        W41037   5.277  15.715   1.945  0.1204 -0.4181  0.0725
24777W        W41038   3.548   4.490   3.479  0.0990 -0.1645 -0.3136
24778W        W41039   4.460   3.139  11.254  0.2177  0.3615 -0.1326
24779W        W41040   8.155  11.559   5.167  0.4276 -0.0904  0.0652
24780W        W41041  12.168   4.289   4.116 -0.1101 -0.0568  0.0272
24781W        W41042  18.408  18.238  11.265  0.1671  0.2869 -0.1815
24782W        W41043  17.381  14.069   1.323  0.4003 -0.1799 -0.0979
24783W        W41044   9.834   2.338  14.865 -0.3043  0.2369  0.2806
24784W        W41045   3.268  14.397   1.565  0.0427 -0.2451 -0.0009
24785W        W41046  10.907   9.777   2.295 -0.1275 -0.3661  0.1565
24786W        W41047   7.605   6.362   5.509 -0.1194  0.1215 -0.1400
24787W        W41048   9.014   4.497  13.434  0.0726  0.2748  0.0427
24788W        W41049  12.143  10.420  13.044  0.1301 -0.3175 -0.0100
24789W        W41050  11.943   0.006   0.637  0.0008  0.0350 -0.0223
24790W        W41051  18.541  17.865   2.377  0.2600  0.1428 -0.0148
24791W        W41052  16.591  16.038   2.073  0.1941  0.0090  0.0378
24792W        W41053   3.765  13.759   4.921  0.2100 -0.0694  0.0336
24793W        W41054  15.231  13.024  11.565  0.0320 -0.2158  0.1068
24794W        W41055  10.205  14.423   1.399 -0.2071 -0.0526  0.3603
24795W        W41056   9.967  14.479  13.452  0.0149 -0.0866 -0.0204
24796W        W41057  14.822   7.283  15.032 -0.1576 -0.3021  0.2882
24797W        W41058   1.533   8.594   1.760 -0.0534 -0.2313 -0.1777
24798W        W41059   6.572  13.796   3.457  0.0442 -0.1486 -0.2014
24799W        W41060  11.384  13.984   2.979 -0.0474 -0.1613 -0.0546
24800W        W41061   1.083  13.860   5.167 -0.0702  0.1812  0.3097
24801W        W41062   6.239  11.154   1.049 -0.0352 -0.1278 -0.0320
24802W        W41063  17.847  15.986  12.209  0.3178  0.2433 -0.1954
24803W        W41064  15.430   6.078   4.879 -0.1686 -0.0750 -0.2445
24804W        W41065   6.471   1.417  14.943  0.1577 -0.1983  0.1248
24805W        W41066   2.543  10.052   1.587  0.3793  0.0559 -0.0737
24806W        W41067  17.870  14.248   2.669  0.1702 -0.2366 -0.2686
24807W        W41068  16.369  13.289  14.212 -0.1383 -0.3238  0.1439
24808W        W41069  15.511  15.239  13.164  0.0820 -0.0352  0.1578
24809W        W41070   0.140   9.854  13.126 -0.2563 -0.0674  0.3958
24810W        W41071   3.728   8.619  13.899  0.1624  0.0963 -0.2456
24811W        W41072  14.936  13.195   3.374  0.1528 -0.2919  0.1936
24812W        W41073   4.068  16.517   3.638 -0.1582  0.2926 -0.0732
24813W        W41074  15.379  12.587   3.621 -0.0385 -0.0743  0.1144
24814W        W41075  10.662  16.952  15.130 -0.3997 -0.1194  0.1872
24815W        W41076  10.749   1.838   1.919 -0.0194  0.2389  0.1288
24816W        W41077   0.198   9.507  12.637 -0.0519 -0.0343  0.2643
24817W        W41078   2.210  15.228   3.758  0.0234  0.0106  0.1110
24818W        W41079   3.465  16.076  11.562  0.1161  0.1342 -0.0588
24819W        W41080   4.763  13.758  14.021  0.1518 -0.1275  0.0238
24820W        W41081   0.202  15.857   4.081 -0.1728  0.2906 -0.0316
24821W        W41082  17.100  12.168  11.399 -0.0231 -0.0629 -0.0751
24822W        W41083   7.586   5.513  12.838 -0.1310 -0.1575  0.1066
24823W        W41084   0.826   8.731   3.209 -0.1828 -0.0984 -0.4822
24824W        W41085   3.004  11.268   5.358  0.2256  0.0073 -0.0752
24825W        W41086   5.212  13.541   1.512  0.2117  0.1575  0.0911
24826W        W41087   3.580  18.679   5.158  0.0162  0.1730  0.2617
24827W        W41088   2.120  11.989  12.308 -0.1192 -0.0671 -0.2280
24828W        W41089   5.609  17.331   4.908 -0.1468 -0.0510 -0.1518
24829W        W41090   8.153   7.495  11.715 -0.4916  0.0610 -0.2114
24830W        W41091   1.642  13.291  11.030  0.0684 -0.2287 -0.2770
24831W        W41092   1.631   9.538  12.868  0.0469  0.2125 -0.1658
24832W        W41093   9.506   2.798   1.561 -0.2470 -0.0501 -0.3060
24833W        W41094   0.368  14.854   0.993 -0.4838 -0.0947  0.0220
24834W        W41095   9.774   9.940   1.123 -0.0391  0.1993  0.1473
24835W        W41096  13.919   2.977  10.853  0.0723 -0.0747 -0.0718
24836W        W41097  17.418   6.028  12.264 -0.0536  0.3532 -0.0000
24837W        W41098  15.726  16.748  13.544  0.0186 -0.0800  0.1308
24838W        W41099  11.174  12.123   4.731  0.0680 -0.1398 -0.1308
24839W        W41100   7.508  10.254   3.031  0.5621  0.1074  0.1076
24840W        W41101  13.339   0.335   3.991 -0.0004 -0.1706  0.2465
24841W        W41102  17.082  11.013   3.127  0.1460  0.1724  0.2452
24842W        W41103  10.150  17.032   0.570  0.5556  0.0298  0.1732
24843W        W41104  16.150  16.881  12.560 -0.1345 -0.0385  0.2674
24844W        W41105  14.778   3.011   4.455 -0.1353  0.0759  0.1670
24845W        W41106   5.545   0.959  14.638 -0.2995  0.0508 -0.4131
24846W        W41107   0.334   9.797  12.281 -0.1488  0.2791 -0.2920
24847W        W41108   5.651   2.901   3.678 -0.0507 -0.1144  0.1605
24848W        W41109   2.800  18.130   3.853 -0.0917  0.0009  0.0597
24849W        W41110   1.900  12.029   2.503 -0.5119 -0.0382 -0.0251
24850W        W41111  17.967   4.796   3.050 -0.2279  0.0976 -0.2888
24851W        W41112  16.057   5.262  12.684 -0.1052  0.2606 -0.0548
24852W        W41113   4.979   9.948   1.608  0.2472  0.1209  0.3060
24853W        W41114  11.043  10.483   3.421 -0.0684 -0.3421  0.1585
24854W        W41115   4.849   9.226  13.762  0.2128 -0.1307  0.3880
24855W        W41116   8.984  12.854  14.924  0.2550  0.3252 -0.0830
24856W        W41117   0.620   7.686   1.880  0.2297 -0.2984 -0.1855
24857W        W41118   1.625  12.176   0.921 -0.1950  0.2057 -0.1913
24858W        W41119  10.505  16.948  11.246  0.0202 -0.1644  0.0107
24859W        W41120  16.626   9.898  13.443  0.1615 -0.2279  0.2235
24860W        W41121  17.332  16.861   0.169  0.0234 -0.2258 -0.0211
24861W        W41122  11.633  18.810  15.068 -0.0074 -0.0315  0.0336
24862W        W41123  12.932   5.270  13.573  0.1149  0.0895  0.2034
24863W        W41124   9.902  16.344  10.352 -0.1152  0.0663 -0.1798
24864W        W41125  13.326   2.765  14.830 -0.0458 -0.2526  0.2182
24865W        W41126  16.086   5.628  13.560  0.0483  0.0788 -0.2155
24866W        W41127  12.982   6.918  11.592 -0.0677  0.1483 -0.1169
24867W        W41128   1.459   7.202  11.663 -0.1991  0.0150 -0.0214
24868W        W41129  14.400  17.411  13.727 -0.1138  0.0596  0.2874
24869W        W41130  13.242  11.110  14.494 -0.2641  0.0598  0.1884
24870W        W41131  10.058  12.717   0.301 -0.2307  0.3066 -0.1065
24871W        W41132   4.321   3.367   3.617  0.0243  0.0832 -0.2596
24872W        W41133   9.647  14.819   2.842 -0.0495 -0.2461  0.5121
24873W        W41134   4.743   4.017  14.012 -0.0175  0.2706 -0.1432
24874W        W41135  15.406   9.612  14.048 -0.3255 -0.3183  0.2057
24875W        W41136   7.404  15.093   3.247  0.1581 -0.0801  0.2031
24876W        W41137  15.604   1.959   1.926 -0.0572 -0.0137 -0.0152
24877W        W41138   4.656  16.347  12.345  0.2358  0.3944 -0.0048
24878W        W41139  15.463   4.430  13.760 -0.0564  0.1899  0.0946
24879W        W41140   0.474  12.163  13.818  0.3996  0.3878  0.1508
24880W        W41141  17.772  17.914   3.568 -0.1880 -0.2133 -0.1029
24881W        W41142   8.755   2.807  12.236  0.0856  0.3912 -0.0800
24882W        W41143  15.804   3.529   2.589 -0.1430  0.0277 -0.0202
24883W        W41144  17.018   1.957  12.764 -0.1169 -0.2576 -0.0884
24884W        W41145  18.137  10.509  12.272  0.2408 -0.0611  0.1329
24885W        W41146   9.009   0.463   0.669  0.1231  0.2306 -0.1516
24886W        W41147  14.370   2.792  11.154  0.3975  0.1620  0.0065
24887W        W41148  15.507  15.572  11.408 -0.1661  0.2491 -0.3295
24888W        W41149  13.646   3.958  12.552  0.2651  0.4096 -0.0160
24889W        W41150   7.042  14.534  11.346 -0.1590 -0.1464 -0.0218
24890W        W41151   7.626   2.663  14.313 -0.0080  0.0620 -0.1145
24891W        W41152   3.417   3.940  12.074  0.0653 -0.0610  0.2624
24892W        W41153  11.077  14.625   3.026  0.0472  0.0994 -0.0779
24893W        W41154   2.629   4.179   0.301 -0.1949 -0.0259 -0.1476
24894W        W41155   9.741   9.765  15.560  0.2875 -0.0127 -0.3000
24895W        W41156   7.733   8.511   1.007 -0.1946  0.1885 -0.0639
24896W        W41157   4.279   6.075  14.765 -0.2294 -0.0506  0.2279
24897W        W41158  13.900  10.024   5.738  0.1514 -0.1670  0.0796
24898W        W41159   3.803   2.445  12.865  0.1395  0.1188 -0.1598
24899W        W41160  10.116   5.465   6.095  0.0396  0.2192  0.1581
24900W        W41161   8.230   0.451  15.026  0.2044  0.2117  0.0699
24901W        W41162   8.668  10.343   1.295  0.0029  0.1362 -0.0477
24902W        W41163   4.856   0.286   4.182  0.1570 -0.1364  0.1029
24903W        W41164  10.597   7.044  15.647  0.1202 -0.0919 -0.0614
24904W        W41165  13.379  12.767   1.927  0.0701 -0.2639  0.2637
24905W        W41166   5.111   7.633   5.695 -0.1179 -0.2161  0.1819
24906W        W41167  16.300   4.242   2.382 -0.1184 -0.1318 -0.4601
24907W        W41168   2.149  11.478   3.310 -0.1737 -0.0482  0.2044
24908W        W41169   4.144   1.086  13.676 -0.1079 -0.0429 -0.0799
24909W        W41170   0.604  11.361  11.305 -0.1414  0.0474  0.3145
24910W        W41171  12.971  14.276  12.034  0.0068 -0.1874  0.1423
24911W        W41172   7.091  13.304  12.464 -0.4517  0.1216 -0.0995
24912W        W41173  18.114  15.581   2.610  0.2669 -0.1923 -0.1449
24913W        W41174   1.334   8.938   3.146  0.2813 -0.0903 -0.0623
24914W        W41175  18.258   2.698   4.807 -0.5817 -0.0409 -0.0929
24915W        W41176  11.176  13.810   0.523  0.2423  0.1925 -0.1394
24916W        W41177  17.733   8.676  13.786  0.2010 -0.2044 -0.0799
24917W        W41178  17.724   6.414  15.398 -0.0044  0.0140  0.2411
24918W        W41179   2.743   0.780   1.838 -0.3809  0.0025 -0.1146
24919W        W41180  10.768  17.204   2.058  0.1626 -0.0630 -0.1157
24920W        W41181  18.326   9.774   0.632  0.4070  0.0030  0.0673
24921W        W41182  11.441   1.488   1.539  0.0251  0.1812 -0.0112
24922W        W41183  12.067   7.290   1.404 -0.0663  0.1612  0.0342
24923W        W41184   7.675   8.693   4.914  0.2048 -0.0257  0.1044
24924W        W41185   4.355   8.516  14.921 -0.0369 -0.0420 -0.0183
24925W        W41186   6.470   2.382   5.930 -0.1023  0.0828  0.0575
24926W        W41187  13.462   0.655  14.210 -0.0750  0.1018  0.0730
24927W        W41188   7.090   8.659  13.164 -0.2710 -0.0318 -0.0241
24928W        W41189  17.027   9.390   3.151 -0.3030  0.0130 -0.1107
24929W        W41190  18.085  14.799   4.562  0.0621 -0.2056  0.1203
24930W        W41191  16.424  18.315  10.586 -0.0961  0.0132  0.0253
24931W        W41192   8.286  15.051   5.307 -0.0570 -0.4126 -0.1982
24932W        W41193   8.259  16.925   5.769  0.1125 -0.2334  0.0532
24933W        W41194   4.813  10.001  15.489  0.1343  0.1240  0.0549
24934W        W41195   3.658  14.520  12.684  0.0335 -0.1007 -0.1262
24935W        W41196  11.695   6.436  15.097  0.3276 -0.3023 -0.1009
24936W        W41197   6.732   8.717   3.755  0.0755 -0.0526 -0.1046
24937W        W41198   0.057  14.476   2.708 -0.1410  0.3225  0.2919
24938W        W41199   2.598  10.675   0.045 -0.0792 -0.1012 -0.0457
24939W        W41200  16.736  15.650  13.566  0.1600 -0.2401  0.0993
24940W        W41201   4.344   3.632   2.173  0.1289 -0.1083  0.2440
24941W        W41202   2.800   4.127  14.708 -0.2169  0.4644  0.1370
24942W        W41203   0.605  16.820   0.874 -0.1067  0.1834  0.1104
24943W        W41204   9.079   5.396   3.336  0.1862  0.0252 -0.2303
24944W        W41205  15.953   6.151  10.843 -0.0024  0.0915 -0.0390
24945W        W41206  17.778  14.919   4.186  0.1375 -0.6227  0.0326
24946W        W41207   4.668   9.625  13.077 -0.3717 -0.4522  0.0843
24947W        W41208  15.037   4.773  11.559 -0.1355 -0.1638 -0.0801
24948W        W41209  14.854  16.438  12.749 -0.0249 -0.1971 -0.4929
24949W        W41210  16.863   7.569  13.596 -0.0397  0.0098  0.2173
24950W        W41211  12.586  13.444  12.258 -0.0024 -0.1332 -0.1778
24951W        W41212   3.056   6.689   4.058  0.1744  0.2551 -0.1175
24952W        W41213  17.858   0.820  12.933  0.2298 -0.2048 -0.1718
24953W        W41214  10.491   5.283   1.814  0.1264 -0.5211  0.1132
24954W        W41215  13.640   6.653   2.705  0.0968  0.1615 -0.3566
24955W        W41216  17.174   6.583  14.297  0.0681 -0.3200 -0.2033
24956W        W41217   9.435   8.488  14.879  0.2431 -0.3254 -0.2250
24957W        W41218   9.656  11.556   2.856 -0.2011  0.0387  0.1850
24958W        W41219   1.518   0.475   4.285  0.0127  0.0241  0.0325
24959W        W41220  18.439   8.052   1.845  0.1637 -0.0144 -0.1362
24960W        W41221  15.503   2.720   1.041 -0.1072 -0.1551 -0.0786
24961W        W41222   4.242  10.840   0.652  0.0894  0.1013  0.1290
24962W        W41223   3.563  11.236   6.256  0.0684  0.0710 -0.2360
24963W        W41224  14.117   2.377  13.791  0.1563  0.1725 -0.2828
24964W        W41225   3.271   8.431   3.286  0.2169 -0.1323  0.0504
24965W        W41226   9.853   1.089   3.834  0.0740 -0.0737  0.3341
24966W        W41227  12.631   0.023   1.908 -0.1723 -0.0649 -0.0227
24967W        W41228  10.931   9.126  13.442  0.2899  0.1430 -0.0510
24968W        W41229  11.892   4.032  11.733 -0.0599 -0.3412 -0.1050
24969W        W41230  16.109   4.485  10.249 -0.5602 -0.2274 -0.1439
24970W        W41231  11.116  13.316   0.852 -0.1053  0.1434  0.2107
24971W        W41232  17.618  17.088  14.667  0.2482  0.2645 -0.0360
24972W        W41233  15.695  18.544  11.631  0.3373 -0.0816 -0.1197
24973W        W41234   2.002   9.549   2.740 -0.0046 -0.2408 -0.0272
24974W        W41235  11.182  12.777  11.278 -0.1270  0.1583 -0.1394
24975W        W41236  18.807  14.125  13.450 -0.0122  0.0892  0.0969
24976W        W41237  10.570   4.057  13.146  0.0707  0.1446 -0.3009
24977W        W41238  16.270  16.264   0.805 -0.3890 -0.1783 -0.2026
24978W        W41239   0.427  14.068   1.490 -0.0375 -0.1053 -0.1176
24979W        W41240   6.346   9.776  13.394  0.1756 -0.0861  0.1596
24980W        W41241   8.768   6.743   3.427  0.0518 -0.0569 -0.0328
24981W        W41242   8.538  12.822  10.116  0.0548  0.4000  0.2610
24982W        W41243  15.989  18.374  12.493  0.3845 -0.0481  0.0097
24983W        W41244  17.227  14.485  10.542 -0.3716  0.1320 -0.0663
24984W        W41245   0.155  13.360  10.900  0.2625 -0.0461 -0.1298
24985W        W41246   0.004  13.397  13.622 -0.1605 -0.0651  0.2411
24986W        W41247   0.840   6.968  13.557  0.2610  0.0492 -0.1070
24987W        W41248   9.541   7.530  12.708  0.4143 -0.0069 -0.1398
24988W        W41249  11.457   1.184   2.745  0.1863  0.0984  0.0896
24989W        W41250   8.909   6.109   2.892 -0.4161 -0.0607 -0.1889
24990W        W41251   1.161  10.535  11.378 -0.2613 -0.0189 -0.1717
24991W        W41252   0.191   6.226   0.585  0.1418  0.1352 -0.0570
24992W        W41253   9.242  17.347  13.843  0.0087 -0.0381 -0.1860
24993W        W41254  13.206   9.347   5.320 -0.0383 -0.1203 -0.2806
24994W        W41255   5.127  15.632   3.828  0.2048  0.1924 -0.2059
24995W        W41256  10.799   5.347   2.802  0.0561  0.0018 -0.0316
24996W        W41257  18.437   9.919   3.583  0.0355  0.2612  0.1264
24997W        W41258  16.609   4.462  14.752  0.1098 -0.0881  0.0438
24998W        W41259   9.861   6.901   1.333  0.0273 -0.2376  0.3018
24999W        W41260   1.880   5.837  11.914 -0.1698  0.0906  0.0941
25000W        W41261  14.910  12.432  13.727 -0.0197  0.0853  0.1915
25001W        W41262  11.826   9.091   3.122  0.3139 -0.0623 -0.0748
25002W        W41263   1.936   7.955  13.882  0.1398  0.2081  0.1015
25003W        W41264  10.345   7.426   2.140 -0.1439 -0.0338  0.0389
25004W        W41265  16.612  15.408   3.099 -0.2234  0.1669 -0.0974
25005W        W41266  12.976  16.030   5.429 -0.0500 -0.1150  0.2115
25006W        W41267   0.370  15.939   0.939 -0.2732  0.2389 -0.0718
25007W        W41268   1.225   9.803   2.323  0.0379  0.0142 -0.4394
25008W        W41269   3.546   5.057   3.444 -0.1096 -0.2753  0.0760
25009W        W41270  17.473   9.527  12.271 -0.0780  0.1117 -0.2765
25010W        W41271  14.197   9.239   3.276 -0.1336  0.1066 -0.2704
25011W        W41272   7.982   4.599   6.340 -0.0476  0.0086 -0.3706
25012W        W41273   9.659   7.548  11.259  0.0036  0.1672 -0.0074
25013W        W41274   7.028  16.272  13.848  0.0385  0.1876 -0.2935
25014W        W41275  12.185  17.286  11.588  0.4498 -0.0233 -0.4232
25015W        W41276   2.073   3.949  13.492  0.0338  0.2277  0.0445
25016W        W41277   6.410  10.822  14.140 -0.0622 -0.0307 -0.0418
25017W        W41278  17.058   1.651  13.951 -0.2992 -0.0101  0.2003
25018W        W41279  16.951   8.520  11.930 -0.0629  0.2325 -0.0252
25019W        W41280  16.334   0.608  11.665 -0.2702  0.0130 -0.1986
25020W        W41281  11.954   3.783  15.418  0.0779  0.0022  0.1985
25021W        W41282   4.052  15.775   1.816  0.0978 -0.1067  0.1235
25022W        W41283  16.191   9.764   5.393  0.1023  0.1472  0.0803
25023W        W41284   4.454   2.416  12.203 -0.2149  0.0008 -0.0590
25024W        W41285  17.597  15.996  12.635  0.0737 -0.1424  0.0374
25025W        W41286  10.589   9.978   4.349  0.0757  0.0458 -0.3076
25026W        W41287   1.949  18.009  15.330  0.0161 -0.3301 -0.2211
25027W        W41288  16.583   4.406   4.073  0.0066 -0.0204 -0.0499
25028W        W41289   3.330   0.085   0.878 -0.0364  0.2603 -0.1027
25029W        W41290   0.561   3.308  11.346  0.1470 -0.1365  0.0653
25030W        W41291  14.766  14.539   1.160  0.0125  0.1054  0.0825
25031W        W41292  12.679   9.135   0.279  0.1679 -0.2948 -0.1685
25032W        W41293   5.914   5.745   4.181  0.1821 -0.3222  0.1899
25033W        W41294  11.430   8.344  13.734  0.3002 -0.1024 -0.2386
25034W        W41295   8.976   9.126  11.768 -0.0421  0.2229 -0.1152
25035W        W41296   3.379  10.573   0.580 -0.1606  0.2049  0.1138
25036W        W41297  11.098  13.637   1.608 -0.0808  0.0598  0.0062
25037W        W41298  11.078   0.136  12.458  0.0429  0.0688  0.1106
25038W        W41299   1.065  11.322   4.541  0.1491 -0.1401  0.2019
25039W        W41300  13.390  11.002   4.704 -0.2678  0.1547  0.0007
25040W        W41301  17.615   4.462   3.096  0.0347 -0.1044  0.0839
25041W        W41302   8.172  18.387   0.403  0.3451 -0.0372 -0.1801
25042W        W41303   3.240   4.896  11.815 -0.0749 -0.1279 -0.1372
25043W        W41304  11.081   5.106   4.476 -0.1139 -0.3023 -0.1349
25044W        W41305   8.835   9.815  13.476  0.2091  0.0846 -0.1000
25045W        W41306   6.431   7.846   0.400 -0.4637  0.1184  0.1015
25046W        W41307   6.812  17.294   3.214  0.0126 -0.0265 -0.0345
25047W        W41308   8.503  13.994   2.561  0.1889 -0.0861 -0.1974
25048W        W41309   4.316  18.321   0.302 -0.1904  0.3695  0.0803
25049W        W41310   0.844   2.195  13.433  0.1560 -0.2129 -0.2617
25050W        W41311   6.742   7.530   0.128 -0.2789 -0.0668  0.4013
25051W        W41312   2.983   7.615  14.267 -0.1810  0.2718 -0.3229
25052W        W41313   2.861   9.732  13.744  0.1510  0.1871 -0.2685
25053W        W41314   0.255  11.189  11.663 -0.1334 -0.0369  0.2290
25054W        W41315  11.264   5.976   2.168  0.4135 -0.0161  0.0227
25055W        W41316   3.537   7.352  13.497 -0.0496  0.2981  0.0812
25056W        W41317   1.893  14.869  14.438  0.0962  0.2377 -0.1608
25057W        W41318   9.052   7.727  13.000 -0.0985  0.0825 -0.1037
25058W        W41319   7.932   6.021  13.287 -0.0207 -0.2898  0.1935
25059W        W41320   6.210   0.404  14.085  0.1222  0.2144  0.0801
25060W        W41321  14.005   8.599  13.244  0.1882  0.0418 -0.2643
25061W        W41322   2.169   0.486   3.228  0.0791 -0.0569  0.0483
25062W        W41323   1.602   2.688  12.908  0.0641  0.2780 -0.0316
25063W        W41324  10.713  18.255   4.054  0.1073  0.3150 -0.2111
25064W        W41325   0.019  16.282  14.292 -0.2114 -0.2047 -0.2728
25065W        W41326   7.630   8.447  14.686 -0.1331  0.1203  0.0636
25066W        W41327   8.010   9.922  13.463  0.0546  0.2291 -0.0948
25067W        W41328  15.660  15.157  12.638 -0.1733 -0.1225  0.0179
25068W        W41329  16.916  14.618  11.154 -0.3970  0.6477 -0.0399
25069W        W41330  12.660  15.035   9.327 -0.0244 -0.3514  0.4268
25070W        W41331  15.216   2.753   4.640 -0.0147  0.3129 -0.3192
25071W        W41332  17.024  17.033   2.946  0.3335  0.0704  0.0546
25072W        W41333  16.590   4.078  12.069 -0.0983 -0.1562 -0.2489
25073W        W41334  12.730  12.551  12.989  0.1842  0.4519 -0.0930
25074W        W41335  11.130   3.048   0.179  0.2646 -0.1336  0.2278
25075W        W41336  12.443   1.035   2.507  0.0689  0.0871  0.1957
25076W        W41337  11.299   5.129  13.919 -0.0250 -0.4137  0.1219
25077W        W41338   8.821  17.528   3.293 -0.0774 -0.4195  0.0837
25078W        W41339   7.914  12.639  14.313  0.2072 -0.4180 -0.2569
25079W        W41340  14.670   3.297   3.307  0.3198 -0.1642  0.1193
25080W        W41341  13.014  16.960  11.883 -0.2093  0.0178  0.0993
25081W        W41342   3.796  15.800  12.073  0.2012 -0.0575 -0.1229
25082W        W41343  14.412  13.419   5.332 -0.1267  0.0009  0.3943
25083W        W41344  16.060   8.028   1.881 -0.2928 -0.2227  0.1549
25084W        W41345  16.003  12.232  14.908  0.0916  0.2434  0.0313
25085W        W41346   0.403   6.473  15.326  0.2650 -0.0082 -0.0988
25086W        W41347   8.667   7.900  11.522 -0.2815  0.1887 -0.2213
25087W        W41348  16.137   0.690   0.768  0.2386  0.2729  0.0728
25088W        W41349   3.433   4.059   4.341 -0.5158  0.4926  0.0035
25089W        W41350   0.323   0.259  13.127  0.1989 -0.3756  0.0972
25090W        W41351  18.549  11.281   5.036 -0.0598 -0.0968  0.0503
25091W        W41352  16.982   2.746  15.083  0.1275  0.2066  0.0081
25092W        W41353   6.491  14.843   4.425 -0.3845  0.0087  0.0498
25093W        W41354  17.657  14.005  13.949 -0.1337  0.1787  0.1789
25094W        W41355   9.297  14.897   4.810  0.0862 -0.3499  0.1095
25095W        W41356   1.145  17.272  10.398 -0.0571 -0.0174 -0.2094
25096W        W41357   9.977  13.298  10.962  0.1427 -0.0628 -0.4058
25097W        W41358  10.402   5.829  13.896 -0.0394 -0.1610  0.1517
25098W        W41359  12.410   5.455  12.681  0.0276  0.3582  0.2176
25099W        W41360  10.215  11.622  11.193  0.1343  0.1380  0.2215
25100W        W41361  16.502  10.752  13.051  0.2232 -0.0276  0.4050
25101W        W41362  13.770   6.082   0.912 -0.5418  0.0761 -0.3197
25102W        W41363  15.707   2.688  15.133  0.2994  0.2355 -0.3962
25103W        W41364  15.182  16.854   4.378 -0.0452  0.1204 -0.0799
25104W        W41365   1.163   6.854  15.519  0.2154  0.1812  0.1395
25105W        W41366  12.926   3.178  14.220 -0.1151  0.4041 -0.3351
25106W        W41367  15.447   0.596   2.985 -0.3676  0.2477  0.0780
25107W        W41368   0.126   3.930   0.525 -0.1972  0.3268  0.2409
25108W        W41369  11.344   1.913  13.859 -0.3656 -0.0124  0.1342
25109W        W41370  15.647  16.333  12.136 -0.0931  0.0845 -0.2024
25110W        W41371   7.523   5.100   1.384  0.1424  0.0466  0.1376
25111W        W41372  17.480  17.238   3.974 -0.3575 -0.0624 -0.4188
25112W        W41373   0.487  16.835   2.263 -0.0775  0.1303  0.0571
25113W        W41374  10.406  13.423  14.263  0.0563  0.3797 -0.0600
25114W        W41375   1.489   7.675  14.497 -0.1745 -0.2880  0.4546
25115W        W41376   4.594   4.539  15.368 -0.0350  0.2023  0.3322
25116W        W41377  14.101  17.536   3.007 -0.1530  0.0646  0.0386
25117W        W41378   7.165  17.149  15.356 -0.1608  0.1412 -0.2195
25118W        W41379   3.996  14.916  12.504  0.4087 -0.2136  0.0869
25119W        W41380   7.702  16.174  13.984 -0.1535 -0.1751  0.0411
25120W        W41381  18.212   2.166   2.488 -0.0768 -0.0491  0.1591
25121W        W41382   7.774  11.429   4.615 -0.0627 -0.1307  0.1340
25122W        W41383  17.265  13.371  11.940  0.0418 -0.1542 -0.1070
25123W        W41384  18.052   9.362  14.869  0.0770 -0.4209 -0.0517
25124W        W41385  11.056  15.895   0.397 -0.1178  0.1899  0.2607
25125W        W41386  10.799  13.893  10.728  0.2262  0.0283 -0.0584
25126W        W41387  17.820  12.785  14.109 -0.3477  0.1412 -0.1814
25127W        W41388  16.554  10.656   3.804  0.2387  0.3030  0.1541
25128W        W41389  16.863   0.007  12.395 -0.3928  0.2637 -0.3697
25129W        W41390   6.520  12.400   2.383 -0.0179 -0.2819 -0.0427
25130W        W41391  18.376   3.470  13.658  0.0892 -0.0087  0.0700
25131W        W41392   4.686   7.996   2.255  0.0548  0.0232  0.3125
25132W        W41393  10.093  18.678   5.188 -0.0624 -0.1431 -0.3634
25133W        W41394  14.697   5.131   4.058  0.0499  0.1566  0.0383
25134W        W41395   0.429   1.377   0.546 -0.3076 -0.0516  0.0636
25135W        W41396  13.142   8.253   0.019  0.1674 -0.1613  0.1389
25136W        W41397   6.650   6.499  14.832  0.0586  0.1803 -0.3042
25137W        W41398   0.395   3.410  12.136  0.2583  0.1606  0.2471
25138W        W41399  11.527  12.020  12.852  0.0545 -0.0109  0.0395
25139W        W41400  16.364   2.225  14.671 -0.1968 -0.2715  0.0659
25140W        W41401   5.179  17.594  11.401  0.0979  0.0849  0.3580
25141W        W41402   0.924  11.364   3.672  0.0810  0.0196  0.0224
25142W        W41403   0.240  11.003  11.220 -0.2741  0.0949  0.0124
25143W        W41404   5.103   6.097   3.562 -0.3778  0.0616  0.0050
25144W        W41405   3.395  13.908   1.344 -0.1029  0.0374  0.3329
25145W        W41406   8.741  12.438   1.812  0.2080 -0.1116 -0.1527
25146W        W41407  17.980  13.197  13.695 -0.2401  0.0964  0.0067
25147W        W41408   3.393  10.157  13.410 -0.0420  0.0311  0.1985
25148W        W41409   7.943   1.659  13.086 -0.1986 -0.1626  0.2596
25149W        W41410  11.834   8.385  15.185  0.0361 -0.3374 -0.0691
25150W        W41411  14.160   0.165  14.499  0.1559  0.0146  0.0320
25151W        W41412   0.944   1.871   2.839  0.2000 -0.0048  0.2086
25152W        W41413   0.502   4.589   1.802 -0.0043  0.0694 -0.3563
25153W        W41414  15.925  10.043  10.841 -0.3058  0.2879  0.1323
25154W        W41415  11.834   7.080   5.789 -0.0395  0.5113  0.1331
25155W        W41416   8.553  16.621  12.015 -0.4138 -0.0460  0.4064
25156W        W41417  13.598  17.662  15.457 -0.1375 -0.6093 -0.1816
25157W        W41418   5.875  10.856   3.017  0.0818  0.1795 -0.2393
25158W        W41419   7.948  15.006  12.503 -0.2366 -0.1658 -0.2087
25159W        W41420   2.325  14.351  13.040  0.2780  0.0827 -0.2117
25160W        W41421  16.812  12.880  12.539  0.0682 -0.1238 -0.1884
25161W        W41422  15.369   2.415   0.700  0.0691 -0.0682  0.0561
25162W        W41423   0.117   0.013   1.796 -0.2038  0.0119 -0.2167
25163W        W41424  11.466  11.138   0.976  0.0736 -0.1240 -0.1406
25164W        W41425  14.492   4.936   4.608  0.2401 -0.0539  0.0481
25165W        W41426   3.652   3.457   2.333  0.2100 -0.0377  0.1307
25166W        W41427  15.185  13.842  13.396 -0.1370  0.3089  0.2350
25167W        W41428  16.190   8.212  10.868  0.1855  0.0432  0.2120
25168W        W41429  15.481  13.736   9.638 -0.0803 -0.3331  0.0754
25169W        W41430   0.312   0.751   1.039 -0.1642 -0.1400 -0.1044
25170W        W41431  17.286   4.905  11.595  0.2451 -0.0180 -0.1670
25171W        W41432  15.289   6.518  11.855 -0.0216 -0.0424  0.0072
25172W        W41433  13.212   7.801   1.909 -0.1106  0.0181 -0.1082
25173W        W41434   0.803   9.142   0.435 -0.1498 -0.3167 -0.0861
25174W        W41435   2.701   8.034  15.461  0.0154 -0.3278 -0.2881
25175W        W41436   7.884   2.781  12.976 -0.1870  0.1843 -0.0154
25176W        W41437  13.015   5.851  15.286 -0.0037 -0.3437  0.0650
25177W        W41438   7.231   5.237  13.129 -0.2009  0.1544 -0.0343
25178W        W41439  18.213   0.575  13.416  0.2225  0.0422  0.2083
25179W        W41440  13.539  18.539   2.153 -0.0127 -0.1857  0.2393
25180W        W41441  15.518   2.247  13.092 -0.0308 -0.0822 -0.1253
25181W        W41442   5.727  11.133   2.606 -0.1981 -0.1501  0.1346
25182W        W41443  13.798   0.060  14.886  0.0102 -0.3485  0.1318
25183W        W41444   4.493  15.041   2.906 -0.1215  0.1191 -0.0345
25184W        W41445   1.243   6.936   5.784 -0.0198  0.5125 -0.0840
25185W        W41446  10.293  18.096  11.685 -0.2625 -0.4318 -0.0192
25186W        W41447  15.723   3.395   0.364 -0.0112 -0.0681 -0.3270
25187W        W41448   0.948  17.108   2.804 -0.0408 -0.2067  0.2338
25188W        W41449  13.330  12.801   0.949 -0.1576  0.4578 -0.0866
25189W        W41450  13.633   1.923  14.323  0.1907 -0.2137 -0.2722
25190W        W41451  18.190  14.726  13.871 -0.0790 -0.2590  0.4858
25191W        W41452  13.468   1.565  14.599 -0.1789  0.3031 -0.0415
25192W        W41453   0.701  16.196   2.579 -0.0312  0.1208  0.1304
25193W        W41454  14.308  17.379   0.326  0.2824 -0.0193  0.0605
25194W        W41455   4.020  18.582  12.090 -0.0838 -0.0226  0.0540
25195W        W41456  11.884  10.048  10.581  0.3691 -0.2680  0.2124
25196W        W41457   3.848   2.313  12.002  0.0865 -0.3738  0.0122
25197W        W41458   0.423   3.608   4.287  0.0092 -0.0607  0.1321
25198W        W41459   7.267   7.761  12.749 -0.0416 -0.0488 -0.0824
25199W        W41460   9.965   9.280  11.371 -0.1463  0.2164  0.0760
25200W        W41461   6.001  18.288   0.186  0.2200 -0.2085 -0.0660
25201W        W41462   7.114  18.347   3.874 -0.2184 -0.0700  0.2511
25202W        W41463   4.617  13.649   2.665 -0.1479  0.0040  0.1158
25203W        W41464  13.599  15.864   2.608 -0.1748  0.3070  0.2584
25204W        W41465  17.734  14.747  13.588  0.1062 -0.0953  0.1520
25205W        W41466   5.653  16.361  11.112 -0.1101  0.2097 -0.1577
25206W        W41467   4.747  10.773  13.915  0.0552 -0.1044 -0.1389
25207W        W41468   9.531   9.429  13.183  0.1129  0.1879  0.0395
25208W        W41469   1.169  17.617   2.578 -0.2399 -0.0878 -0.0552
25209W        W41470   7.581  17.943   2.013 -0.3895 -0.0241  0.0588
25210W        W41471   3.854   9.324   1.383  0.1710 -0.1440  0.0322
25211W        W41472  18.355   7.249  13.750  0.2875 -0.0806  0.0603
25212W        W41473  18.013   3.128   4.837 -0.3314 -0.0736 -0.2855
25213W        W41474  14.836   5.623  14.270 -0.0576 -0.2018 -0.2835
25214W        W41475   9.235  10.275  12.271  0.1562 -0.1845  0.0650
25215W        W41476  17.546   2.581  10.564 -0.0768  0.1266 -0.1745
25216W        W41477  14.594  16.337   5.686 -0.1361 -0.2686  0.0543
25217W        W41478   2.132  13.412  10.892 -0.3048  0.0134  0.0577
25218W        W41479   0.906  15.996  11.451 -0.0452  0.0425  0.1043
25219W        W41480   6.419  12.820   0.419 -0.0444  0.0876  0.3236
25220W        W41481   8.144  18.573  15.120  0.2821 -0.2403  0.2632
25221W        W41482  14.905  16.433  13.267  0.0298  0.0728 -0.0482
25222W        W41483   6.936   9.154   1.002 -0.0442  0.1394 -0.2189
25223W        W41484   0.701   8.067  14.179  0.2318 -0.1725  0.2505
25224W        W41485  12.676  14.733   2.329 -0.1484 -0.1533 -0.1813
25225W        W41486   8.290  12.425  13.430  0.3544  0.2920  0.1456
25226W        W41487  15.603   6.683   1.654 -0.0849  0.0235  0.3720
25227W        W41488   7.629  18.627   6.071 -0.0136  0.0931  0.0822
25228W        W41489   6.404   9.938   3.247 -0.1886  0.0459  0.0092
25229W        W41490   8.996  11.735   2.211  0.2371 -0.0227  0.1501
25230W        W41491  12.654   5.933   4.000  0.2695  0.3172  0.1603
25231W        W41492   6.261  14.383   4.263 -0.2170 -0.4529 -0.0117
25232W        W41493   7.825   0.753  12.658 -0.2694 -0.0381 -0.1792
25233W        W41494   5.942   8.943   1.189 -0.1772 -0.2223  0.1656
25234W        W41495  11.995  12.084  12.068 -0.1863  0.1288  0.2366
25235W        W41496   4.093  17.644   2.034 -0.1907 -0.1782 -0.1823
25236W        W41497  16.471  10.008   4.466 -0.1688 -0.0604 -0.3006
25237W        W41498  18.645  11.028   2.432 -0.0545  0.2171 -0.1165
25238W        W41499  18.047  13.907   4.102 -0.2156 -0.0223 -0.2140
25239W        W41500   5.468  13.366  14.911  0.3484  0.1226 -0.0583
25240W        W41501   8.401   0.004   1.490  0.2421 -0.0388  0.3968
25241W        W41502   3.219  17.210   0.492  0.1491 -0.1689  0.2614
25242W        W41503  12.132  11.964   0.805  0.1239  0.0359  0.1332
25243W        W41504  15.889   3.214   3.266  0.0245  0.0943 -0.0616
25244W        W41505   4.626   3.019  12.749 -0.2153  0.2622 -0.0670
25245W        W41506  16.762  17.115   5.036 -0.0671 -0.0871  0.0103
25246W        W41507  10.928   6.103   4.451 -0.1025  0.1409 -0.0440
25247W        W41508   6.968  18.139   3.295 -0.3548  0.2673 -0.0807
25248W        W41509  16.769   8.060  12.386 -0.2872  0.2887 -0.1592
25249W        W41510  15.854  13.142  13.636 -0.0746 -0.1130  0.5374
25250W        W41511   5.700  16.112  12.542 -0.2822  0.0887 -0.0084
25251W        W41512   6.476   6.703   3.488 -0.2443 -0.0522  0.0659
25252W        W41513   4.905   7.133   1.096  0.2231  0.1337  0.0052
25253W        W41514   9.948   8.058   3.128  0.2415  0.0583  0.2202
25254W        W41515  10.957   0.251   1.360 -0.3226 -0.5567  0.0573
25255W        W41516   2.809  15.995  15.645  0.3190  0.3348 -0.1607
25256W        W41517  17.596   0.313   5.322  0.2403  0.1102  0.1604
25257W        W41518  10.441  11.382   5.062  0.0032  0.2149 -0.1697
25258W        W41519  13.333   1.338   2.604 -0.1014 -0.0531  0.1934
25259W        W41520   3.345   0.961  13.577 -0.1919  0.2077 -0.1040
25260W        W41521   0.174   2.558   0.873  0.0156  0.3213 -0.0348
25261W        W41522   2.647  13.983  11.209 -0.2557  0.0414  0.1243
25262W        W41523   9.481  14.052   3.460  0.0092 -0.0799  0.0587
25263W        W41524  18.065   5.797   3.301  0.2636  0.2197  0.0983
25264W        W41525   2.648  10.767  10.594  0.1733 -0.0518  0.0029
25265W        W41526  13.960   5.202   5.664  0.2656  0.3424  0.0163
25266W        W41527   6.097  16.747   4.236 -0.0626  0.0440  0.0879
25267W        W41528  11.969  12.887   4.055  0.3015 -0.1632 -0.2841
25268W        W41529  16.707   4.470  13.865 -0.1422 -0.2138 -0.0477
25269W        W41530   0.775   5.356  12.794  0.4882 -0.0832 -0.1939
25270W        W41531  12.496  16.044  14.229 -0.3785  0.4208  0.0993
25271W        W41532  10.875  10.334   4.110 -0.0787 -0.1216  0.0513
25272W        W41533  14.319   3.000  14.665 -0.0753  0.1790 -0.1644
25273W        W41534  10.924   0.428  10.623 -0.0795  0.1172 -0.1475
25274W        W41535  14.576   5.969  12.861 -0.2373 -0.1518  0.0247
25275W        W41536  13.629  15.540  11.029  0.0274  0.0695  0.0063
25276W        W41537   8.092   5.987   3.331 -0.0448  0.0985  0.2228
25277W        W41538   2.313  18.703  12.195 -0.0554 -0.1778 -0.0475
25278W        W41539   7.906  16.990  11.559 -0.0198 -0.2830  0.0970
25279W        W41540  15.613  18.169  14.265 -0.3017 -0.0052  0.1250
25280W        W41541   7.720  16.843   0.446  0.0742  0.1995 -0.2710
25281W        W41542   5.079  14.945   0.707  0.0584  0.1007 -0.0980
25282W        W41543  17.324   7.518   0.196  0.1823 -0.5008  0.0366
25283W        W41544   6.016  10.295   3.135 -0.0013  0.1461  0.1280
25284W        W41545  15.821  11.270  13.317  0.0659 -0.1662  0.2441
25285W        W41546  13.647  12.419   0.678 -0.1186 -0.1972 -0.2473
25286W        W41547  13.607   8.724   3.890 -0.0147  0.2837 -0.1055
25287W        W41548   2.196  12.294   4.999 -0.2327 -0.3451 -0.0678
25288W        W41549   4.741   4.789   5.497 -0.3698 -0.0585  0.0991
25289W        W41550  16.594   9.657   3.554  0.1517 -0.2807  0.1630
25290W        W41551   7.713   8.012  12.961  0.0688  0.0743  0.3618
25291W        W41552   6.908   8.366   6.311 -0.1788 -0.0600 -0.1925
25292W        W41553   7.002   6.765  15.065  0.0714  0.0913 -0.1650
25293W        W41554  10.236  10.627   1.287 -0.2818  0.0139  0.1570
25294W        W41555  14.435   4.550  11.166 -0.5142  0.1000  0.0559
25295W        W41556   1.919  13.867  12.423 -0.0279 -0.3893  0.0317
25296W        W41557  15.558   1.793  15.598 -0.0522  0.1790 -0.6717
25297W        W41558   5.670  10.446   2.345 -0.1787 -0.0203 -0.1077
25298W        W41559   6.986   6.662  13.399  0.0687 -0.0755  0.0327
25299W        W41560   0.056   3.327  12.460  0.0579 -0.2933  0.0437
25300W        W41561   8.920  15.140  12.370  0.1403  0.0295 -0.0836
25301W        W41562  17.060   5.714  11.979 -0.1603 -0.1168  0.1297
25302W        W41563   0.572  11.789  13.441  0.0651 -0.2692 -0.2888
25303W        W41564  10.323   2.481  15.247 -0.3663 -0.0226 -0.1348
25304W        W41565   4.252   1.229  11.915 -0.0729 -0.1183 -0.1489
25305W        W41566   2.609  11.896   4.094 -0.2096 -0.0085  0.0739
25306W        W41567   1.483  16.982   4.533 -0.0700 -0.0534 -0.2215
25307W        W41568  14.359   2.846  13.595 -0.3173  0.0365  0.2020
25308W        W41569  12.338   8.152   4.172  0.3070  0.2364 -0.0420
25309W        W41570   7.005   2.819  12.326 -0.0171  0.3263 -0.0695
25310W        W41571   7.055   5.107   3.755  0.1242 -0.1820 -0.0778
25311W        W41572  15.201   5.749  10.386  0.3684  0.0352  0.0158
25312W        W41573   5.438  14.939   3.287 -0.0947 -0.2332 -0.1902
25313W        W41574  13.365  17.533  11.420  0.0518  0.0868 -0.0248
25314W        W41575  17.817   8.910  11.920  0.0533 -0.0816 -0.1153
25315W        W41576  17.764   4.783  12.917 -0.2395 -0.1759  0.0475
25316W        W41577  18.041  14.496  13.149 -0.3445  0.1703 -0.0131
25317W        W41578   5.410  17.777   0.822 -0.3763 -0.1158  0.0417
25318W        W41579  14.611   9.115   2.644 -0.1247  0.1813  0.3038
25319W        W41580   7.333  17.085   4.600 -0.2212  0.1484 -0.0309
25320W        W41581  16.642  12.687  10.588  0.0372  0.2567 -0.2320
25321W        W41582  18.259   8.726  13.582 -0.4348 -0.2016 -0.0406
25322W        W41583   5.958   1.412  13.331 -0.2792  0.0523  0.2512
25323W        W41584  16.897  13.933   5.753  0.1831 -0.0745 -0.2712
25324W        W41585  15.918   2.115   4.688 -0.1921  0.3020  0.1150
25325W        W41586  13.756   6.424   3.975  0.1154  0.2280 -0.0399
25326W        W41587  15.148  18.125  10.586  0.4147 -0.1994 -0.2365
25327W        W41588  15.568   6.541  10.860 -0.2099 -0.3324  0.3251
25328W        W41589   6.783  12.143  14.382  0.0257  0.0862  0.1384
25329W        W41590   3.726  10.239   2.376  0.3378  0.1518  0.0590
25330W        W41591   5.964  15.825  11.778  0.0121  0.4287  0.2446
25331W        W41592  10.194   7.637   0.171  0.1654 -0.0610  0.0314
25332W        W41593  18.110  18.524   4.288 -0.0400 -0.2840 -0.0300
25333W        W41594  14.672  15.474   5.506  0.1552  0.0610  0.2350
25334W        W41595   5.869   7.796   1.648  0.0929  0.2445  0.3875
25335W        W41596  15.111  15.539   4.369 -0.0428 -0.1573  0.0572
25336W        W41597  15.523   7.856   3.538  0.0239 -0.0349 -0.1980
25337W        W41598   0.353   8.230   3.835 -0.2065 -0.1372 -0.0801
25338W        W41599   8.780   4.392   4.917 -0.2141  0.3360 -0.1210
25339W        W41600   0.481  11.419  15.067 -0.1541  0.3634  0.0020
25340W        W41601   7.275  11.944  14.679  0.1359 -0.1255  0.2811
25341W        W41602  10.122   9.586  15.279 -0.2541  0.0775  0.1206
25342W        W41603  10.159  11.338   0.561 -0.0736 -0.3656  0.0786
25343W        W41604  15.431   6.448  14.523 -0.0834  0.1752 -0.3662
25344W        W41605   6.495   0.627   4.912 -0.0060  0.0934 -0.2354
25345W        W41606   1.163  10.156  14.476  0.1709 -0.0632  0.0014
25346W        W41607   6.616   8.677  14.369 -0.0186  0.2728  0.2222
25347W        W41608   7.933   7.596  13.779 -0.0741 -0.2860  0.2731
25348W        W41609  13.126   2.035   4.889  0.1644 -0.0524  0.0736
25349W        W41610  10.547  18.254   1.218  0.0774  0.0704 -0.1943
25350W        W41611  13.978   5.643   5.099  0.0255  0.0546  0.0372
25351W        W41612   5.341   7.306   0.857 -0.2724  0.1625  0.0445
25352W        W41613   3.120   8.924   2.668 -0.2987 -0.0159  0.1236
25353W        W41614   8.395  10.051   2.599 -0.1207  0.1433  0.2667
25354W        W41615  17.050  17.208   0.427 -0.0341  0.0769  0.2900
25355W        W41616   0.112   7.324  10.757  0.0537 -0.1539 -0.2329
25356W        W41617   7.743  15.216  14.363 -0.1047  0.1750  0.2756
25357W        W41618  12.333  16.899   1.558 -0.1713  0.2009  0.0894
25358W        W41619  13.589  16.421  14.254  0.0539  0.3522 -0.4608
25359W        W41620  14.238  15.793  10.567 -0.0178  0.2995 -0.0975
25360W        W41621   1.199  16.535  14.363  0.0170 -0.3358 -0.2059
25361W        W41622   0.735  14.806  15.250 -0.0343  0.5315 -0.1645
25362W        W41623   8.727  13.595   3.526 -0.1676  0.0383 -0.0903
25363W        W41624  14.254   9.607   3.689  0.2185  0.1801  0.3645
25364W        W41625  11.708   4.957   5.203  0.1586 -0.0602  0.0226
25365W        W41626   8.223  16.608   0.683  0.0844 -0.0821  0.3188
25366W        W41627   5.413   7.202  11.280  0.3037 -0.4038  0.1580
25367W        W41628   3.313   8.872   1.261 -0.0908  0.1821 -0.0255
25368W        W41629  14.986  11.184   2.103  0.5681  0.1834 -0.0165
25369W        W41630   3.370   9.929   2.084 -0.0300  0.2413 -0.1918
25370W        W41631  14.804   3.153   2.332  0.1405 -0.2100  0.1641
25371W        W41632  11.000   0.098  13.336  0.2310 -0.1354 -0.0588
25372W        W41633  14.074   6.666  15.601 -0.3368 -0.0423 -0.0647
25373W        W41634   0.959   0.719  12.510 -0.0782 -0.3824 -0.0237
25374W        W41635  17.467  15.656  11.876  0.2341 -0.2038 -0.0307
25375W        W41636   6.297   7.930  14.524  0.0495  0.1014  0.0009
25376W        W41637  18.660   4.162  11.992  0.2546  0.1336  0.1183
25377W        W41638  16.776   1.441  12.753  0.1973 -0.5414  0.1338
25378W        W41639   7.605   6.166   6.403 -0.0179  0.1376  0.0764
25379W        W41640   7.710  12.734  13.409  0.3082  0.2252  0.0199
25380W        W41641  15.968   1.767  15.319 -0.0662 -0.0498  0.0254
25381W        W41642   1.663  13.845   2.430 -0.2503  0.2030 -0.1192
25382W        W41643   0.273   1.217  12.858  0.2339  0.0869 -0.3656
25383W        W41644   9.353   5.358   2.791  0.1202 -0.3709  0.3635
25384W        W41645  14.743   1.700   0.765  0.0467  0.0881  0.0676
25385W        W41646   4.945  14.589   5.346 -0.0027  0.0465  0.1675
25386W        W41647  17.164  18.819   5.248 -0.2209 -0.0304  0.0127
25387W        W41648   0.222   9.200  15.244  0.0771 -0.3470 -0.2537
25388W        W41649  13.538  12.136  13.888 -0.1937 -0.0467  0.0019
25389W        W41650   3.921  17.790   1.643 -0.0168  0.2558  0.0124
25390W        W41651   8.747   6.565  11.641 -0.2092 -0.0489  0.1108
25391W        W41652  16.988   1.743  10.703 -0.1579 -0.2177 -0.2648
25392W        W41653  15.513  17.031  11.178  0.0438 -0.1289 -0.2197
25393W        W41654   0.957  12.992   3.764  0.2962 -0.0225 -0.1975
25394W        W41655  11.350   7.552   0.188 -0.2147  0.1222 -0.0616
25395W        W41656   2.583  18.006  11.867  0.1754 -0.0286  0.0697
25396W        W41657  10.742  16.293  12.289  0.1559 -0.0055 -0.2654
25397W        W41658  15.698   5.732  15.038 -0.4497  0.1731 -0.0846
25398W        W41659  17.597   2.228  12.146 -0.1893  0.0026  0.1927
25399W        W41660   8.745  11.900   2.600 -0.3235 -0.0871 -0.1760
25400W        W41661   3.259  17.341  13.950 -0.1233 -0.1717  0.0829
25401W        W41662  10.401   8.304  13.298  0.1103  0.1060  0.0616
25402W        W41663  16.331  14.486  14.108  0.2394  0.3301 -0.1848
25403W        W41664  10.055  12.322  12.073 -0.1411  0.2888  0.4446
25404W        W41665  14.811  12.987   9.708  0.2468  0.0603 -0.0792
25405W        W41666   3.397   0.780   5.464 -0.1172  0.2290 -0.2452
25406W        W41667  13.486   6.067   3.725 -0.2540  0.0787 -0.4821
25407W        W41668   1.205   3.446   1.314  0.1280 -0.1472  0.0722
25408W        W41669  15.313  17.308   5.083  0.0083  0.3385  0.0170
25409W        W41670   6.655   5.831   0.929 -0.1960  0.0373 -0.2496
25410W        W41671  18.040  18.602   3.352 -0.1803 -0.0724  0.1719
25411W        W41672  17.408  17.553   4.423 -0.3031  0.1394  0.0553
25412W        W41673   4.458   1.207   2.708 -0.0011 -0.3377 -0.1097
25413W        W41674   2.173   8.996   0.770  0.1979 -0.0116 -0.2377
25414W        W41675   3.327   5.429  11.732 -0.0609 -0.0865  0.1679
25415W        W41676  18.014   3.928  12.112  0.1716 -0.1059 -0.1716
25416W        W41677  12.953  18.017  14.256  0.0115 -0.1501  0.2498
25417W        W41678  12.792   8.466  15.397 -0.0403 -0.0123 -0.1797
25418W        W41679   2.595  11.553   1.794  0.2593 -0.0061 -0.0571
25419W        W41680  10.892  10.305   2.453  0.0802  0.0425  0.0402
25420W        W41681  16.492  14.734   0.800  0.4089 -0.3971  0.2087
25421W        W41682  18.255  15.074  10.832 -0.1129 -0.0890 -0.0888
25422W        W41683   7.556  16.068   3.021  0.2586 -0.0121 -0.0317
25423W        W41684  11.898  10.867   5.696  0.0208 -0.2840 -0.2243
25424W        W41685  14.189   7.560  15.400  0.1545  0.1894 -0.1189
25425W        W41686  10.527   6.446   4.200  0.0400 -0.0313 -0.1722
25426W        W41687   7.527  15.532   5.918 -0.0122  0.2265  0.1310
25427W        W41688  12.100  12.157  10.719 -0.1533  0.0284  0.0020
25428W        W41689   8.945   9.397   1.232  0.1103  0.3537  0.0933
25429W        W41690   0.368  13.008  12.739 -0.4679  0.1602 -0.0936
25430W        W41691   7.872  14.394   4.352  0.1426 -0.2179  0.2190
25431W        W41692   5.658   9.253   4.696 -0.0872 -0.4540  0.2941
25432W        W41693  11.029   5.335  15.609 -0.4192 -0.1488 -0.2851
25433W        W41694   2.199  17.926   4.366 -0.1250 -0.0163 -0.3201
25434W        W41695  17.384   6.078  10.584  0.1219 -0.0480  0.1666
25435W        W41696   7.712   7.119  13.915 -0.0464  0.2814  0.2430
25436W        W41697  15.011   1.183   4.640  0.0262 -0.2378  0.1550
25437W        W41698   0.618  17.997   3.082  0.4673  0.1239 -0.0864
25438W        W41699  16.378  14.042   2.344  0.0598 -0.0292 -0.1010
25439W        W41700   5.624   3.431  11.850  0.1182 -0.1278 -0.1817
25440W        W41701  11.083   5.579   4.274  0.1271  0.1887 -0.1892
25441W        W41702  10.267  13.661  11.821  0.0302  0.1176  0.2414
25442W        W41703  13.283   6.247  12.030  0.0233 -0.1582 -0.2451
25443W        W41704  10.681  10.771   0.236  0.2195 -0.0867 -0.0191
25444W        W41705  16.258   8.197  13.034  0.1552  0.2775 -0.1288
25445W        W41706  18.812  11.234  14.338  0.1267 -0.1221 -0.2927
25446W        W41707  16.307   2.126   5.022  0.0153 -0.1095 -0.1254
25447W        W41708  17.379  14.403  13.763  0.2927  0.2240  0.3557
25448W        W41709  16.315   6.883  11.358 -0.1646 -0.0949 -0.0522
25449W        W41710   0.552  16.684   2.986 -0.1671 -0.2811  0.0486
25450W        W41711  12.166   9.501  12.094 -0.1891  0.1357 -0.0123
25451W        W41712   2.650  15.810   2.778 -0.1926 -0.0041 -0.0513
25452W        W41713  17.685  15.663  13.721  0.0422  0.0919  0.1031
25453W        W41714   4.721  13.192  14.689  0.0309  0.1242 -0.2890
25454W        W41715  16.247  10.525  14.912  0.1051  0.0012 -0.1459
25455W        W41716   0.911  17.677  12.756  0.0745  0.0194  0.1496
25456W        W41717   6.814   1.252   2.978  0.2229  0.1525  0.1410
25457W        W41718  17.764  18.634  12.986  0.3019  0.4810  0.3165
25458W        W41719  15.367   6.051  13.350  0.0451 -0.0852  0.0289
25459W        W41720   6.009   8.211   2.444 -0.0048 -0.0075 -0.1460
25460W        W41721   7.141   7.781   4.561  0.0761 -0.1212 -0.0334
25461W        W41722   3.515  11.298   5.313  0.0073  0.2451 -0.0712
25462W        W41723   0.452   7.122   5.290 -0.0157  0.0438 -0.0295
25463W        W41724  18.036   6.248   3.482 -0.1751  0.0654  0.1800
25464W        W41725  10.036   0.011   4.497 -0.0763 -0.0148 -0.0846
25465W        W41726  18.666  10.325   4.940  0.1771 -0.4257  0.2659
25466W        W41727  15.472   4.066  10.926  0.1095 -0.2876  0.0592
25467W        W41728   2.127   3.250  12.816 -0.0109 -0.3985 -0.0395
25468W        W41729  15.110  10.552   0.254  0.0658 -0.0691 -0.4006
25469W        W41730   0.638   5.407   4.933 -0.1298  0.0246  0.0600
25470W        W41731  14.575  16.735  14.405 -0.0544 -0.1565  0.0637
25471W        W41732  11.238  17.663   2.599  0.2151 -0.1621  0.0496
25472W        W41733  12.472   8.999   1.896  0.2391 -0.2381 -0.3187
25473W        W41734  13.128   6.913  14.652  0.3717  0.2339  0.0348
25474W        W41735   6.106  15.612  14.680 -0.0849  0.1783 -0.1617
25475W        W41736   7.032  17.352   1.406  0.3112  0.1177 -0.2806
25476W        W41737   0.770   9.968   5.874  0.0173 -0.0797 -0.1863
25477W        W41738   7.558   1.621   1.305  0.0279 -0.0533  0.0898
25478W        W41739  18.018  15.855  13.261 -0.1595  0.0757 -0.1299
25479W        W41740   0.924  11.836   1.561 -0.1354  0.2460 -0.0452
25480W        W41741   7.241   0.411   1.700 -0.1368  0.2159  0.5881
25481W        W41742  11.792   1.784   5.700  0.2597 -0.1205 -0.0322
25482W        W41743   7.253  18.226  11.999  0.0531 -0.0465 -0.0296
25483W        W41744  18.724  14.204   2.278 -0.3567  0.0361 -0.4864
25484W        W41745   3.425   4.242   3.075 -0.0819 -0.3322  0.0426
25485W        W41746   9.724  15.426   2.160  0.0056 -0.0442 -0.1786
25486W        W41747  14.208  15.030   2.785  0.0145  0.0099  0.0497
25487W        W41748  10.972   4.363   0.189 -0.0801 -0.3027  0.0600
25488W        W41749   9.029   8.343  14.503 -0.0883  0.2268  0.0500
25489W        W41750   2.555   3.380   4.640  0.2950 -0.2171 -0.0201
25490W        W41751  14.689  13.974  13.457 -0.1907  0.1862  0.1367
25491W        W41752  10.131   6.433   4.503  0.0165  0.0304 -0.0994
25492W        W41753   3.015   3.894  13.381  0.0235  0.3883  0.0204
25493W        W41754   7.215   5.490  13.583 -0.0488 -0.0618  0.0945
25494W        W41755   2.809   1.813   2.994  0.1787 -0.0086 -0.3659
25495W        W41756   5.117  16.256  14.951 -0.1677  0.0440 -0.1697
25496W        W41757  14.457   3.786  13.242 -0.0859 -0.1801  0.2326
25497W        W41758  18.522   3.541   3.747 -0.0236  0.0657 -0.2272
25498W        W41759   1.658  14.141   4.653 -0.1013 -0.3106  0.0179
25499W        W41760  14.104  12.892   3.731  0.1368  0.1082 -0.0081
25500W        W41761   8.789   3.126  13.348  0.3663  0.0444 -0.2935
25501W        W41762  15.984  12.276   4.328 -0.2440  0.3928  0.5532
25502W        W41763   9.978  15.049  11.682 -0.0608  0.0096  0.3687
25503W        W41764   7.552  11.416   3.239 -0.0493  0.0206 -0.3195
25504W        W41765   5.196   7.158   3.152  0.2018  0.0181  0.3909
25505W        W41766   0.597  18.672   0.858 -0.0868 -0.1565  0.1365
25506W        W41767  11.502  18.682   2.872  0.1087  0.3075  0.2811
25507W        W41768  15.705  17.196   1.782 -0.1153  0.3220  0.0525
25508W        W41769   8.874  18.723  15.088  0.0490 -0.1545 -0.1274
25509W        W41770   9.929  13.262  15.212  0.0652  0.1709  0.1863
25510W        W41771  11.877   1.247   4.795 -0.5995 -0.1038  0.1045
25511W        W41772   9.253  14.386   2.959 -0.0879  0.4023  0.2554
25512W        W41773  14.574   0.127  10.997  0.4512  0.1314 -0.1189
25513W        W41774   3.063  13.180   2.203 -0.1023  0.4491 -0.0012
25514W        W41775   7.778   4.915   0.504 -0.0338 -0.1780  0.3282
25515W        W41776   0.017  10.647   3.087 -0.3605 -0.0864 -0.0253
25516W        W41777   1.546   6.820  11.161  0.0865  0.3192  0.0806
25517W        W41778  10.892  10.508   0.633 -0.3863  0.0136  0.0230
25518W        W41779  15.203   6.471  13.461  0.3964 -0.1226 -0.2595
25519W        W41780   3.707   1.427   1.130 -0.2745 -0.0460  0.2973
25520W        W41781   4.645   4.677   4.419  0.0406 -0.5361  0.2115
25521W        W41782  12.576   3.575   4.175  0.2598 -0.2450  0.0491
25522W        W41783  18.794   7.458  11.773  0.1685 -0.1965  0.4471
25523W        W41784  14.384  15.978   0.961 -0.2890  0.0448 -0.0479
25524W        W41785  15.609  15.990   0.553 -0.2528 -0.2404 -0.1583
25525W        W41786   0.189   1.719  12.926  0.3017 -0.1617  0.1255
25526W        W41787   1.518   3.148   2.449 -0.0522  0.3870  0.1564
25527W        W41788  10.132   7.924   5.154  0.1979  0.2510 -0.3032
25528W        W41789   1.949  11.784   2.921 -0.1244  0.1109  0.4077
25529W        W41790  13.752   7.047   2.327  0.1698  0.0181 -0.1204
25530W        W41791  16.637   7.761   1.747  0.1601 -0.0408 -0.0637
25531W        W41792  11.435   6.124   0.288  0.2016  0.0908 -0.2243
25532W        W41793  17.709   1.558  11.577  0.3073 -0.1715  0.1619
25533W        W41794   7.506   8.215   3.866  0.2014 -0.2644 -0.2465
25534W        W41795  12.157  13.321   5.453 -0.1048 -0.1194 -0.0172
25535W        W41796   3.218   4.812   3.777 -0.5116  0.1159 -0.2140
25536W        W41797   6.943   6.477  10.561 -0.3393 -0.0143 -0.2429
25537W        W41798  17.629   4.636  13.958 -0.1410 -0.0214 -0.1678
25538W        W41799   8.929   7.880  15.422 -0.0903  0.0341  0.1112
25539W        W41800   6.796  18.117   0.095 -0.0803 -0.0960 -0.1551
25540W        W41801   0.136  16.540   3.445  0.1043 -0.1521  0.0125
25541W        W41802  15.635   3.717   0.740 -0.4357  0.2570  0.0889
25542W        W41803   2.303  14.847   1.445  0.0841  0.0853  0.1318
25543W        W41804  18.827   7.615   1.137 -0.0077 -0.0396 -0.0642
25544W        W41805  16.054  14.541   1.039  0.0153 -0.1166 -0.0736
25545W        W41806  11.303   3.888   4.000  0.1722  0.0303 -0.1879
25546W        W41807   7.586   8.998  11.532  0.1481 -0.0823 -0.1224
25547W        W41808   6.476   8.256   3.814 -0.1248  0.1537  0.0115
25548W        W41809  13.957   1.478  10.657 -0.2065 -0.1308 -0.0782
25549W        W41810   9.955  16.499   3.131  0.1487  0.3675  0.1875
25550W        W41811   5.821  14.007  15.637  0.1318 -0.0526 -0.2754
25551W        W41812   8.202   0.949  14.495 -0.0334  0.1231  0.2561
25552W        W41813  18.221  15.836  14.552  0.0156  0.0703  0.1421
25553W        W41814  10.188  10.665   3.607 -0.1051 -0.1507  0.2727
25554W        W41815   2.180   3.256  14.802 -0.1485 -0.2175  0.1511
25555W        W41816  16.047   2.247  15.052 -0.2667 -0.2438  0.0627
25556W        W41817  16.037  10.495  14.485  0.1813  0.4335 -0.1406
25557W        W41818  15.928   7.116  13.896 -0.3347 -0.0655  0.2001
25558W        W41819  11.530   1.976  14.372 -0.1264  0.0395  0.1099
25559W        W41820  16.172  17.917  12.356  0.1535 -0.0381 -0.1720
25560W        W41821  17.781   3.626  15.173  0.2274  0.2122 -0.1784
25561W        W41822   3.892  16.466   4.887  0.0628  0.0915  0.1639
25562W        W41823   3.801   3.755  14.545 -0.0591 -0.3881 -0.0120
25563W        W41824  13.463   4.452   5.471 -0.3142  0.1380  0.0818
25564W        W41825  18.451   1.649  12.119 -0.0204  0.1278  0.5181
25565W        W41826  10.136  14.315  13.026 -0.0743  0.0281  0.2355
25566W        W41827  15.861   3.725   3.269  0.0673  0.1702 -0.0225
25567W        W41828   7.034   2.970   1.000 -0.2152 -0.0367 -0.2071
25568W        W41829  13.785  16.030  10.912 -0.0986 -0.0068 -0.0535
25569W        W41830   2.774  13.229   1.686 -0.5582  0.2280 -0.0702
25570W        W41831   8.000   3.224  13.329  0.1851  0.1059  0.2503
25571W        W41832  13.296  18.788  15.374  0.3372 -0.3896 -0.0801
25572W        W41833   5.550   6.304   1.377  0.0105 -0.3036 -0.0702
25573W        W41834   1.004   4.212  11.017 -0.0913 -0.1256 -0.0632
25574W        W41835   2.010   3.744  15.044 -0.1658 -0.5013 -0.2573
25575W        W41836  14.172   1.592   3.487 -0.0485  0.1011 -0.0491
25576W        W41837   5.329  16.929   1.277  0.0722 -0.2499  0.0795
25577W        W41838  11.589   9.131   3.862  0.1378  0.0564 -0.2873
25578W        W41839   2.158   2.503  10.011  0.1032  0.1877 -0.1602
25579W        W41840  15.147  13.369   2.026  0.1974 -0.1181 -0.1460
25580W        W41841  18.527   1.035  13.686  0.0783  0.0985 -0.0836
25581W        W41842  16.330  15.368   0.842 -0.1177  0.0393 -0.2414
25582W        W41843   1.749   2.481  13.446 -0.0053  0.0348 -0.2510
25583W        W41844   4.674  18.660  14.350  0.0564 -0.1193  0.0114
25584W        W41845  11.119   9.972  15.470  0.1195 -0.0804  0.3077
25585W        W41846   0.516  12.171  12.908 -0.1243  0.3686  0.1433
25586W        W41847   5.260   7.195  14.989 -0.1583  0.1252 -0.0399
25587W        W41848   7.188  11.750   4.927 -0.2703 -0.0599  0.0642
25588W        W41849   6.195   9.528  11.696 -0.1941  0.1130 -0.1150
25589W        W41850   9.869  11.341  13.672  0.2533 -0.0017 -0.2164
25590W        W41851   3.992  12.365   4.677 -0.1322 -0.1280  0.2186
25591W        W41852  12.699  18.270  15.482  0.1106 -0.3376  0.0156
25592W        W41853   0.764   2.826  10.136  0.0621  0.0420 -0.1228
25593W        W41854  13.467  12.820  11.659  0.3166 -0.2266 -0.3441
25594W        W41855  14.992  13.020  12.062 -0.3285 -0.2989 -0.0011
25595W        W41856  17.854  15.324   1.131 -0.0434  0.1506 -0.0448
25596W        W41857  11.394  17.828  14.752 -0.1515 -0.2265 -0.4571
25597W        W41858   2.570  11.154  14.820  0.0991  0.3211  0.0781
25598W        W41859  18.557  15.209  11.551 -0.0389 -0.1474  0.1031
25599W        W41860  17.431   3.596  11.370  0.3461  0.1468  0.4054
25600W        W41861  12.681   2.474   3.812  0.0325  0.0446 -0.0617
25601W        W41862   8.100  15.316   4.034  0.1247 -0.0419 -0.0084
25602W        W41863   7.321  12.570  13.096 -0.1222  0.3130  0.0363
25603W        W41864   2.785   1.709   2.236 -0.0053 -0.2491 -0.3819
25604W        W41865  15.148  14.083   5.384 -0.0944  0.1666  0.2567
25605W        W41866   3.083  15.143   5.178 -0.3574 -0.0954  0.0422
25606W        W41867   6.110   3.641   3.173  0.2420  0.2221 -0.1578
25607W        W41868  13.630  11.939   1.003  0.0563  0.0457  0.0820
25608W        W41869   1.474  14.792   2.488  0.0383 -0.2762 -0.2084
25609W        W41870   0.372   6.127  13.993  0.0691  0.3775 -0.0489
25610W        W41871   6.075  14.846   0.687  0.1811 -0.0311  0.1638
25611W        W41872   4.609   7.862  11.648 -0.2612 -0.1313 -0.0173
25612W        W41873  18.108  15.187   1.607  0.3856 -0.1015 -0.0849
25613W        W41874   4.682   6.232   1.111  0.2081 -0.1185 -0.0054
25614W        W41875  11.608   8.035  10.710  0.0956 -0.0991 -0.1395
25615W        W41876   1.143  10.652   2.734  0.0475 -0.2447  0.1242
25616W        W41877   4.933   9.667  15.108  0.1521 -0.0156  0.0566
25617W        W41878   2.001   9.009  14.546  0.1659  0.0479 -0.1286
25618W        W41879   9.007   5.802  13.518  0.2322  0.0242 -0.0255
25619W        W41880  12.082  12.402   0.127  0.1901  0.1564  0.0507
25620W        W41881   2.113   6.448   1.760  0.1169  0.0073 -0.0097
25621W        W41882   1.523   4.600  15.414 -0.2419  0.0667  0.1089
25622W        W41883  13.203   7.603   2.363 -0.1392 -0.1659 -0.1517
25623W        W41884   7.828   7.505   1.017 -0.0193  0.0441  0.1728
25624W        W41885   7.019  15.058   3.527 -0.0780 -0.0473  0.1236
25625W        W41886   1.757   3.629  10.902 -0.0579  0.0910 -0.0277
25626W        W41887  17.018  10.343   2.926  0.2054 -0.0597 -0.1570
25627W        W41888  11.102   1.059   0.273  0.0932 -0.0351  0.0467
25628W        W41889  13.295   7.243   0.255 -0.1206  0.0642  0.3257
25629W        W41890   2.333   4.105  12.389 -0.2275 -0.1031 -0.0804
25630W        W41891   0.038   7.355  13.176  0.0390 -0.0487  0.0672
25631W        W41892   0.368   2.824   4.633  0.3251  0.1845 -0.1979
25632W        W41893   1.352  10.828   1.716  0.0817  0.3318  0.0734
25633W        W41894  14.561   6.460   2.407 -0.1840  0.1935 -0.4534
25634W        W41895  13.253   5.519  15.050  0.0091  0.1733  0.1913
25635W        W41896  18.421   6.477  12.429 -0.2120  0.0576  0.0202
25636W        W41897  18.174   1.397  12.965  0.2811  0.2965 -0.1192
25637W        W41898   1.617   9.582   0.545 -0.3218 -0.0416 -0.0675
25638W        W41899  13.262   7.324  14.230 -0.0321 -0.0573 -0.0467
25639W        W41900  12.620  18.137   0.869  0.2887 -0.0837  0.0326
25640W        W41901   4.215  17.291   2.743 -0.1654 -0.1662  0.3714
25641W        W41902   4.524   8.795  11.888 -0.0244 -0.1958  0.2398
25642W        W41903   0.848   0.416   3.549  0.2791 -0.0653  0.1942
25643W        W41904   5.255   3.083  15.445 -0.0171  0.1145  0.0643
25644W        W41905  11.281  16.052  12.051 -0.0505  0.2247 -0.2321
25645W        W41906   5.808   4.097   0.934  0.2517  0.2154  0.2480
25646W        W41907   3.785   3.009  14.907 -0.0561  0.1074 -0.3749
25647W        W41908  18.012   9.654  14.024  0.0088 -0.1793  0.1355
25648W        W41909   5.809  15.493   4.448 -0.0329  0.0940 -0.1277
25649W        W41910  18.065   4.203  12.595  0.1789 -0.1219  0.0170
25650W        W41911  14.536   9.928   0.248  0.0225 -0.0232 -0.4838
25651W        W41912   2.213  17.130   0.726 -0.0812 -0.4304 -0.2828
25652W        W41913  13.037   5.115  13.086 -0.0089  0.1335 -0.3163
25653W        W41914  17.915  12.956   1.987 -0.3850  0.0432  0.0190
25654W        W41915   4.980   6.514  12.392 -0.3198  0.0554 -0.0639
25655W        W41916   3.474  12.435   4.539  0.3645 -0.2386 -0.1717
25656W        W41917   6.363   5.833   2.926 -0.0057 -0.0266  0.1229
25657W        W41918  12.875   4.826  11.275  0.2516 -0.0252  0.0210
25658W        W41919  18.232   1.011   1.493 -0.0093  0.3151  0.1313
25659W        W41920   1.446  16.931   2.276 -0.0169  0.1819 -0.0576
25660W        W41921   5.377  15.730  15.463 -0.1215  0.0560 -0.1042
25661W        W41922   3.289  15.535  13.649 -0.2990  0.0063 -0.0680
25662W        W41923  10.738  16.996   5.176 -0.0023 -0.0216 -0.0129
25663W        W41924  14.765   8.076  13.357  0.1454  0.0220 -0.0943
25664W        W41925  15.260  15.671   2.374 -0.3248  0.0197  0.1312
25665W        W41926   9.813   5.931  15.290  0.3847 -0.1653  0.2025
25666W        W41927   1.909   6.253  14.660  0.0390 -0.0295 -0.3437
25667W        W41928   1.231   4.640  14.042  0.1356 -0.0132  0.0343
25668W        W41929   5.766   1.418  13.775  0.2721 -0.2282 -0.3221
25669W        W41930  16.631   9.964  12.421 -0.1915  0.0883 -0.1446
25670W        W41931  15.816   3.384   5.635  0.0624  0.0823 -0.1235
25671W        W41932   6.793   6.846  13.905 -0.1257  0.0013  0.0536
25672W        W41933   5.535  11.472  11.827  0.2089 -0.3277  0.3098
25673W        W41934  17.454   1.333   5.133  0.0786  0.0727  0.0677
25674W        W41935  14.792   8.296   4.451 -0.0073  0.0629 -0.0140
25675W        W41936  12.913  14.940   4.973  0.2210 -0.1478 -0.0160
25676W        W41937   4.408   1.992   2.904 -0.3156  0.0537  0.5040
25677W        W41938   6.122   6.153   4.978  0.2580  0.1429 -0.0998
25678W        W41939  13.145   0.116  11.801  0.1301  0.0576  0.1404
25679W        W41940   0.700   9.131  15.447  0.0312 -0.2283  0.3959
25680W        W41941   0.849   4.699   3.985  0.0853  0.1924 -0.2824
25681W        W41942   0.876  10.875   1.753  0.0588 -0.0606  0.2398
25682W        W41943  12.381  16.511   0.175 -0.0614  0.2074  0.0838
25683W        W41944  12.834  12.363   3.189  0.0007  0.2394  0.1270
25684W        W41945   7.808  11.174  14.830 -0.1535  0.0096 -0.1286
25685W        W41946   1.294   7.130   4.718  0.5383 -0.1513  0.0368
25686W        W41947  11.350   7.828  12.874  0.1515  0.0286  0.0991
25687W        W41948  13.323  17.993   2.441 -0.2158  0.0843  0.1322
25688W        W41949   1.794   4.617   3.403  0.1076 -0.0897 -0.1369
25689W        W41950  14.290  17.633   2.288 -0.3713 -0.1677  0.0393
25690W        W41951   1.300  11.106  14.735  0.0836  0.1141  0.1826
25691W        W41952  15.644  11.505   4.128  0.0342  0.2263 -0.0413
25692W        W41953  10.940   3.019   3.873  0.0073  0.4326  0.1481
25693W        W41954   2.705   1.824   4.683  0.0953  0.4836 -0.0611
25694W        W41955   6.642  16.288   4.735 -0.2746  0.1854  0.3512
25695W        W41956   9.734   6.965  13.734  0.1397  0.0246 -0.0555
25696W        W41957   2.751   1.955  15.134 -0.0703  0.0096  0.1347
25697W        W41958  16.926   0.825   1.777  0.3317 -0.0360  0.0974
25698W        W41959  12.680   5.375   4.782  0.2424 -0.0570 -0.0200
25699W        W41960   1.497  12.872   3.833  0.0483 -0.3814  0.1571
25700W        W41961  17.574   3.985   2.698  0.1039 -0.3885 -0.1299
25701W        W41962   6.177   9.770  15.579 -0.2961 -0.1230  0.1650
25702W        W41963  14.527   6.514  10.982  0.1346  0.2257  0.1125
25703W        W41964   3.673  10.430   4.026 -0.0200 -0.3002 -0.0375
25704W        W41965  13.051   7.440  12.784  0.3282 -0.5210  0.1714
25705W        W41966   2.435  12.881   2.076 -0.4429  0.0875  0.0791
25706W        W41967   9.647  17.871   4.909  0.0365 -0.2370 -0.1451
25707W        W41968  14.547   0.337   3.028  0.1589  0.0268  0.3631
25708W        W41969  11.407  17.101   1.281 -0.1314  0.0851 -0.2876
25709W        W41970   2.709  18.647  14.243 -0.0183 -0.0083  0.1263
25710W        W41971   8.645  13.845  12.560  0.0318  0.2903 -0.2126
25711W        W41972   4.373  12.674   4.118 -0.0082 -0.1937  0.1561
25712W        W41973   2.409   1.982  13.353 -0.0673 -0.1499  0.2770
25713W        W41974  10.483   5.255   3.226 -0.0560 -0.2988 -0.0227
25714W        W41975   8.597  13.879   0.911 -0.0606  0.2101 -0.0217
25715W        W41976   5.302   2.107   4.812  0.1886  0.2894  0.0004
25716W        W41977  17.539   1.402  14.230 -0.0549 -0.0309  0.0449
25717W        W41978   8.959  12.209   0.777 -0.0434 -0.1031 -0.3360
25718W        W41979  16.090   4.002   2.868 -0.0157 -0.0944 -0.2817
25719W        W41980  16.147  13.294   3.705 -0.0137 -0.2645  0.0408
25720W        W41981   2.699  16.260  13.755  0.2879  0.1036 -0.0814
25721W        W41982  15.790   6.862  10.365  0.0792 -0.2924  0.3170
25722W        W41983  10.382   4.996  14.576  0.0979  0.1768  0.2750
25723W        W41984   4.974   5.676  13.788 -0.1849 -0.2439  0.2591
25724W        W41985  14.038  10.288  12.163 -0.3090 -0.1973  0.0511
25725W        W41986   3.786   6.853  13.425 -0.1042 -0.0968 -0.3719
25726W        W41987   7.296  18.246  13.132 -0.0809 -0.0406  0.3076
25727W        W41988  10.984  15.275   1.789 -0.1620 -0.3573 -0.2071
25728W        W41989  16.302   0.185   2.512 -0.3565 -0.2582 -0.0465
25729W        W41990  14.055   2.739   1.377 -0.2196  0.1355  0.1966
25730W        W41991  17.117   3.392  10.889 -0.1412 -0.1372 -0.0515
25731W        W41992   5.825   4.603   3.948  0.0962  0.1043 -0.1712
25732W        W41993   1.136   3.449   3.789  0.2218  0.2392  0.1196
25733W        W41994   6.993   1.134  14.359 -0.0114  0.3604 -0.4600
25734W        W41995   5.458   7.913   5.880  0.0216 -0.0027 -0.4734
25735W        W41996   8.412  17.541   2.909 -0.3503 -0.1644  0.0277
25736W        W41997  17.228   7.736   4.426  0.1102 -0.0205  0.1244
25737W        W41998   8.100   5.094  12.181 -0.1192 -0.1674 -0.1765
25738W        W41999  12.672   1.850  13.084 -0.1383  0.0951  0.2268
25739W        W42000   0.472  13.667  11.881  0.0409  0.1992  0.2331
25740W        W42001  18.135  14.851  12.778  0.0497  0.0158  0.2942
25741W        W42002   2.524  16.716   4.711 -0.1119 -0.2131  0.1559
25742W        W42003  15.340   3.317  11.426  0.0723 -0.0281 -0.0375
25743W        W42004   1.607  15.689   3.811 -0.0616 -0.2856  0.0666
25744W        W42005  15.394  13.833  12.172  0.0913  0.2005 -0.0250
25745W        W42006  15.495   8.375  12.104 -0.1042 -0.3823  0.0219
25746W        W42007   3.717   6.586  15.323 -0.2912  0.1363 -0.0806
25747W        W42008   3.880   0.020   1.306  0.0660 -0.1690  0.1018
25748W        W42009  14.524   5.429  11.607 -0.0929  0.0621 -0.4029
25749W        W42010  13.878  18.254   2.370 -0.3357  0.0214 -0.2391
25750W        W42011   7.562   6.209  12.275 -0.1832  0.0943  0.0583
25751W        W42012   5.764  11.263   1.758  0.1564 -0.0826 -0.6418
25752W        W42013  15.198   3.458  14.910  0.1292  0.0845  0.0492
25753W        W42014  11.537  17.267  13.376 -0.0632 -0.1444 -0.0726
25754W        W42015  15.750   8.857  14.649  0.2997  0.2616 -0.1005
25755W        W42016   4.648   8.893   4.566  0.1662 -0.1532 -0.0810
25756W        W42017  13.825  12.753  15.044  0.0892  0.0361 -0.0346
25757W        W42018   1.261   6.648   2.640  0.0116  0.1033 -0.2754
25758W        W42019  15.493  15.580   1.951 -0.1856  0.1788 -0.2860
25759W        W42020   8.140  17.523   2.129 -0.3470 -0.4100  0.0036
25760W        W42021   7.007  11.072   5.175 -0.0911 -0.1976  0.0247
25761W        W42022  16.483  18.054  11.456  0.0672 -0.3207  0.2764
25762W        W42023   0.575   8.240  15.250  0.2742  0.0372 -0.1622
25763W        W42024   9.410  17.168  12.361  0.0871  0.1432 -0.1166
25764W        W42025  14.201   8.470  12.269  0.2673  0.1871 -0.1631
25765W        W42026  12.161   0.792   1.297  0.0663 -0.2448 -0.2597
25766W        W42027  15.053   7.371  10.923  0.1832  0.1022 -0.0917
25767W        W42028  11.881   0.506  10.164 -0.1496 -0.1294  0.2258
25768W        W42029   8.543  18.417   3.312 -0.1157  0.1324 -0.0763
25769W        W42030  12.187  18.075   0.662  0.0986  0.2568 -0.1474
25770W        W42031   0.510   7.249   1.652 -0.0956  0.1733  0.0548
25771W        W42032   7.503   1.351   0.760  0.0309 -0.1284  0.0982
25772W        W42033  14.026  11.108  12.895  0.3270 -0.1184  0.2524
25773W        W42034  18.031   2.657   2.281 -0.1878 -0.2422  0.2426
25774W        W42035  17.173   3.523   3.369  0.3938  0.0510 -0.3713
25775W        W42036   6.001   6.172   1.261  0.3234  0.2461  0.1415
25776W        W42037   8.176  18.717   2.215 -0.2097 -0.1080 -0.1393
25777W        W42038   4.895   9.034   1.371 -0.2926 -0.0462  0.1998
25778W        W42039  12.143   5.705   3.130 -0.0728  0.1180 -0.0877
25779W        W42040  17.874  12.250  14.928 -0.0301  0.1656  0.1164
25780W        W42041   8.142  16.802   3.726  0.0108 -0.1181  0.1204
25781W        W42042   7.902  16.389   0.302 -0.2527  0.4003  0.0296
25782W        W42043   0.713  11.744  12.231 -0.0172  0.0573  0.0781
25783W        W42044   5.724  18.820   3.228  0.1129  0.1320  0.0446
25784W        W42045   6.116   8.614   4.442  0.0052 -0.2285 -0.1695
25785W        W42046   2.717  14.439   1.331  0.2447  0.3715  0.2111
25786W        W42047   6.254   3.919  15.582  0.1579 -0.0076 -0.0838
25787W        W42048  16.340   6.701   3.700 -0.4039  0.3063  0.0495
25788W        W42049   7.736   2.442  12.503 -0.0751 -0.2843 -0.0295
25789W        W42050  10.669   0.098   0.566 -0.0820  0.2065 -0.4861
25790W        W42051  14.679   1.789   3.545 -0.0291  0.4577 -0.2732
25791W        W42052   3.926   3.914  11.386 -0.1179 -0.1960  0.0129
25792W        W42053   6.619   0.991   2.187 -0.2772  0.3240 -0.0150
25793W        W42054   9.804  15.489   5.412 -0.1412  0.2416 -0.1446
25794W        W42055   8.692  17.319   0.444 -0.1557  0.1489 -0.0205
25795W        W42056  16.602  14.727  13.746 -0.2005  0.1766 -0.2525
25796W        W42057   2.689  10.324   2.122 -0.2223 -0.1102 -0.2087
25797W        W42058  18.205   7.736   4.214  0.2764 -0.3343 -0.3521
25798W        W42059  13.491  10.670   4.320 -0.1638 -0.1731 -0.0289
25799W        W42060   9.436  14.163  14.826  0.1025 -0.1522  0.2738
25800W        W42061   7.290   2.858   5.844 -0.0800 -0.1151 -0.1413
25801W        W42062   6.781   3.746   4.122  0.0473 -0.1508  0.0172
25802W        W42063  18.382  11.142  12.644 -0.3170 -0.3802  0.2402
25803W        W42064   1.482   9.727   0.959  0.1038 -0.1037 -0.0379
25804W        W42065  18.736   9.051   0.022  0.3844  0.0608 -0.0592
25805W        W42066   5.942  18.029  14.078  0.0023 -0.0408  0.2780
25806W        W42067   2.741   6.745   3.628  0.0440  0.2036  0.0742
25807W        W42068  13.713  18.396  11.007  0.1178  0.0816  0.0780
25808W        W42069   6.960   1.394   2.083  0.1526 -0.1104  0.2965
25809W        W42070   9.132   6.533   4.694  0.1187  0.0579  0.2827
25810W        W42071   0.984   6.726   1.844 -0.1912  0.0559  0.0493
25811W        W42072  16.748   7.910   2.544 -0.3067 -0.0739 -0.0705
25812W        W42073  10.012  14.941  14.369 -0.3217  0.3438 -0.2475
25813W        W42074   2.595  18.207  13.116  0.0691 -0.0314 -0.0929
25814W        W42075  10.669   6.486   3.619  0.1625  0.2409  0.0545
25815W        W42076   2.674   1.370   2.598  0.0324 -0.3073  0.2398
25816W        W42077   3.824   9.775  13.463  0.1137  0.1210  0.2012
25817W        W42078   1.332   3.184   0.870 -0.0877 -0.0432 -0.0141
25818W        W42079   5.997  11.702  12.394 -0.0928 -0.5496  0.1813
25819W        W42080  16.015  13.425   0.315  0.1492 -0.1430 -0.2099
25820W        W42081   7.974  15.913  10.987  0.2042 -0.0379  0.1827
25821W        W42082  17.272   8.167   0.794  0.0598 -0.0745 -0.1786
25822W        W42083   3.304   9.034  13.436 -0.3494  0.0853 -0.3559
25823W        W42084  10.699   1.352   3.550 -0.2165  0.5479  0.2603
25824W        W42085  16.893   3.379   5.622 -0.0596 -0.1461 -0.2172
25825W        W42086  14.486  11.057   3.439  0.2496 -0.3427 -0.1603
25826W        W42087   4.098  18.530  10.620  0.0750 -0.2197 -0.4010
25827W        W42088   5.175   0.746  14.415 -0.3333 -0.2614 -0.1101
25828W        W42089   0.964   6.001  12.198  0.0732 -0.1554 -0.1879
25829W        W42090  11.253  17.361  10.781  0.2711  0.2084  0.0359
25830W        W42091  13.104   7.017   1.652  0.0737  0.1140 -0.1297
25831W        W42092  14.202   5.033  13.960  0.0379 -0.0706 -0.1807
25832W        W42093   3.242   3.228  13.775 -0.3551  0.0665 -0.0551
25833W        W42094  17.581  12.573  13.104  0.0113 -0.4638 -0.1453
25834W        W42095   6.695   2.000   0.759 -0.0559  0.0866  0.1029
25835W        W42096   6.771  18.012   0.568  0.1411  0.1734 -0.2299
25836W        W42097  15.217  16.204  11.804 -0.0220  0.0742  0.2574
25837W        W42098   5.616   5.617  13.704 -0.2689  0.3386 -0.0094
25838W        W42099  15.234   4.380   5.599 -0.0573 -0.0607  0.1969
25839W        W42100  12.582   0.260   4.997 -0.0792 -0.1677 -0.3322
25840W        W42101  18.578   3.263  11.762  0.2730  0.3336  0.1208
25841W        W42102  16.683   1.808  12.406 -0.1883  0.0731 -0.0080
25842W        W42103  12.259   9.705   5.191  0.2674  0.1242  0.3820
25843W        W42104  18.029   6.055  11.501  0.0215 -0.1216 -0.0245
25844W        W42105   1.719  14.007   4.008 -0.1219  0.0735 -0.1172
25845W        W42106   0.513   3.458   4.717  0.4189 -0.1004 -0.3912
25846W        W42107   6.855   6.402   5.975  0.2159 -0.1113  0.2457
25847W        W42108   9.665   6.573  12.908 -0.3222 -0.0296 -0.1849
25848W        W42109  18.187  11.956   0.981 -0.2234  0.2296  0.0958
25849W        W42110   9.303  15.965  14.977  0.0885 -0.2681 -0.0371
25850W        W42111   3.575   4.631   4.457  0.0049  0.3240  0.1864
25851W        W42112  11.574   7.240   4.883  0.2582 -0.1576 -0.1180
25852W        W42113   0.574  10.813   0.783  0.0103 -0.2111  0.0062
25853W        W42114   6.299  15.644  11.393 -0.1900  0.1608  0.1217
25854W        W42115   2.217   2.909   2.182 -0.0742  0.2694 -0.0514
25855W        W42116  18.556  12.703   4.714  0.2081 -0.0578  0.3241
25856W        W42117  15.059  14.277   4.949  0.0073  0.0985 -0.0843
25857W        W42118  15.496   7.815  14.598  0.2220  0.3675  0.4144
25858W        W42119  10.350  16.423   4.504 -0.0022 -0.2267  0.1940
25859W        W42120   0.526   1.515  12.519 -0.2789  0.0416 -0.3178
25860W        W42121   4.587  11.655  13.690 -0.1455 -0.3999  0.0894
25861W        W42122   1.080   2.906  12.999 -0.1628  0.0053 -0.0911
25862W        W42123   6.059   3.146   3.426  0.2051 -0.1206 -0.1842
25863W        W42124   3.801  18.480   4.227  0.0331 -0.0984  0.2214
25864W        W42125  11.837   6.049  14.219  0.1335  0.2372 -0.0154
25865W        W42126   8.282   7.851  15.013 -0.0103 -0.0138  0.0234
25866W        W42127  13.659  10.420  15.582  0.0683 -0.3409  0.2304
25867W        W42128   6.185  14.573  13.653 -0.3668 -0.2098  0.2610
25868W        W42129   3.259  11.711  11.908 -0.2548 -0.2379 -0.0276
25869W        W42130  18.236   2.897  14.956  0.0983 -0.0927  0.0646
25870W        W42131  14.652  11.667  11.793  0.1054  0.1398 -0.3793
25871W        W42132  10.609   2.260   0.634 -0.3360 -0.0488  0.4696
25872W        W42133  15.851  16.965  11.613 -0.2690 -0.3040 -0.3480
25873W        W42134  10.283   7.725   2.914  0.2902 -0.0335  0.2013
25874W        W42135  12.684   9.420   2.269  0.2154  0.0285 -0.0761
25875W        W42136  10.597  15.226  14.910  0.2608  0.3194  0.0977
25876W        W42137  17.537   0.801  10.679  0.4950  0.1335 -0.1555
25877W        W42138  13.692   6.527   1.131 -0.0924 -0.2505  0.0264
25878W        W42139   7.921   3.320   3.488  0.1566  0.0150 -0.0767
25879W        W42140  17.715   5.507   4.578 -0.1967  0.0953  0.1518
25880W        W42141   9.317   1.102   4.710 -0.1398 -0.0160  0.5644
25881W        W42142   6.320   0.585  11.753 -0.1740 -0.0301 -0.3590
25882W        W42143  11.929   6.603   3.848 -0.2149 -0.2099  0.0420
25883W        W42144  13.598  17.857  11.092 -0.0054 -0.2463  0.0820
25884W        W42145  13.197  15.240  11.274 -0.1758  0.1965  0.0780
25885W        W42146   6.670  17.256   0.972 -0.1198  0.0829 -0.0413
25886W        W42147  15.980   8.509  11.231  0.2695  0.0754 -0.1055
25887W        W42148  13.635   0.427  11.126 -0.0814  0.1315  0.2367
25888W        W42149  14.396   3.336   4.441 -0.0299 -0.0484  0.0602
25889W        W42150   7.389  16.871  11.818  0.2282 -0.0105 -0.0261
25890W        W42151  13.815   0.103   0.467 -0.2111 -0.0844 -0.1125
25891W        W42152   4.729   7.085  14.932 -0.1690 -0.1001 -0.0210
25892W        W42153  10.129  17.239   4.017 -0.0628 -0.0375  0.0670
25893W        W42154   0.871   0.022  13.306 -0.0142 -0.0681  0.0160
25894W        W42155   8.589   4.505  12.342 -0.3759  0.5275 -0.2538
25895W        W42156  11.562   4.434  11.744 -0.6083 -0.0851  0.0581
25896W        W42157   3.028  14.325  10.979 -0.0219  0.1320  0.0520
25897W        W42158  13.939  18.045  15.380 -0.2269 -0.0003 -0.0834
25898W        W42159  13.772   6.945   0.313 -0.1011 -0.1441  0.0579
25899W        W42160   9.275  16.107   0.294  0.2838  0.1948  0.1777
25900W        W42161   6.196  10.410   3.540 -0.1436  0.3504  0.0518
25901W        W42162   0.573  16.184  11.903  0.1494  0.1100  0.0043
25902W        W42163  13.620   7.903   5.544 -0.0066 -0.1580  0.1952
25903W        W42164   1.817   2.330   1.025 -0.0411  0.1771  0.0512
25904W        W42165   4.693  12.560   5.386  0.2356 -0.0584  0.0046
25905W        W42166  16.267  16.084   0.024 -0.1324  0.1563  0.0476
25906W        W42167   4.718  17.082  13.077  0.0086 -0.2684 -0.1216
25907W        W42168  17.202   3.601  10.431  0.2103  0.0364  0.2923
25908W        W42169   8.820  15.882   5.198 -0.0157 -0.0159  0.2336
25909W        W42170   5.775  16.481   0.469 -0.1402 -0.1178  0.1330
25910W        W42171  10.066  14.848  13.796 -0.0719  0.1282  0.0591
25911W        W42172   0.500   4.414  10.761 -0.0509  0.0711  0.0740
25912W        W42173  10.896  16.691  14.265  0.1023 -0.2703 -0.0130
25913W        W42174  11.559   9.638  14.888 -0.0905  0.2542  0.3793
25914W        W42175  18.658  17.251   9.699  0.0420 -0.1913  0.0268
25915W        W42176   8.691  14.848   2.068 -0.1261 -0.1430  0.0595
25916W        W42177  15.914   4.463  15.480  0.0299  0.1076  0.1735
25917W        W42178  16.464  14.163   3.241 -0.0553  0.3569  0.0195
25918W        W42179   9.444  15.241   1.828  0.3356  0.1184 -0.0108
25919W        W42180  14.698   5.132   3.446 -0.0471 -0.0391 -0.3802
25920W        W42181  15.839  13.892   2.565 -0.0827 -0.1551 -0.1964
25921W        W42182  10.070  13.746  12.996 -0.0838  0.0002  0.0022
25922W        W42183   6.915   0.583   5.813  0.0553 -0.4532 -0.1766
25923W        W42184   5.634   9.786   3.926 -0.1232  0.1027  0.0196
25924W        W42185  18.478  18.031  13.505  0.2116  0.2410 -0.2663
25925W        W42186  17.824  17.436   3.648 -0.1283 -0.0238  0.1642
25926W        W42187   3.595   1.065   4.421 -0.1008 -0.0758 -0.1588
25927W        W42188  10.791   2.686   5.398 -0.1954 -0.0061  0.0692
25928W        W42189  18.326  12.240   3.855 -0.0754 -0.0276  0.4086
25929W        W42190   9.998  16.624   1.214 -0.1241 -0.0474  0.1574
25930W        W42191  18.535   5.611  13.493  0.0609 -0.2988 -0.4739
25931W        W42192  16.782  12.260   0.710 -0.0079  0.0292 -0.2911
25932W        W42193   9.560  13.091  11.798  0.2648  0.2284 -0.2633
25933W        W42194   0.653   0.257  12.049  0.1839 -0.0366  0.0709
25934W        W42195   2.152   0.103   4.370 -0.1599 -0.3579  0.0136
25935W        W42196   6.658   7.790   4.441 -0.0079 -0.2893  0.1719
25936W        W42197   0.113  11.725   2.088  0.2226  0.0066  0.0408
25937W        W42198  13.904   3.717  13.246  0.1854 -0.0021 -0.0656
25938W        W42199   2.202   1.066  11.749 -0.1471  0.2503 -0.1712
25939W        W42200  10.806  17.218  14.400 -0.0312  0.2780 -0.0263
25940W        W42201  15.766  11.595  13.790  0.0144  0.1646  0.0861
25941W        W42202  18.066   8.200  13.749  0.3023 -0.0847  0.3908
25942W        W42203   1.259   0.672   1.469 -0.1078 -0.1674  0.0947
25943W        W42204  12.994  17.440  15.407  0.1139 -0.1603 -0.2795
25944W        W42205  16.310   8.279  15.017  0.1607 -0.2545 -0.0181
25945W        W42206  12.928   5.675  13.212 -0.1258  0.1800  0.2864
25946W        W42207   1.666  11.131  14.385 -0.0025  0.0468 -0.0804
25947W        W42208  10.777   4.240   3.252  0.0688 -0.2536 -0.1167
25948W        W42209  15.518   7.857   9.569 -0.1600 -0.0354  0.0970
25949W        W42210   0.715   8.988  14.795  0.3174 -0.0604 -0.0964
25950W        W42211   6.632   4.975   1.017 -0.2664  0.2445 -0.2472
25951W        W42212  12.148   0.989   0.375  0.2712 -0.2115  0.1784
25952W        W42213   8.328   6.212  12.394  0.2463 -0.2034 -0.1140
25953W        W42214   1.779  17.149   4.090 -0.3336 -0.0314 -0.1449
25954W        W42215  11.645  10.544   1.897  0.3106  0.0692 -0.1047
25955W        W42216  14.558   1.263   1.673  0.3703  0.4071 -0.2911
25956W        W42217  17.211   3.250   2.623  0.0579 -0.2058 -0.1064
25957W        W42218   6.644   9.974   0.679  0.1380  0.2388  0.1906
25958W        W42219   7.841   2.565  14.841  0.1569  0.0989  0.3007
25959W        W42220  13.530  13.272   0.828 -0.4343 -0.5283  0.3591
25960W        W42221   0.203  15.122  13.380 -0.0772 -0.1610 -0.0030
25961W        W42222  10.422   5.032   2.757  0.1110  0.2529  0.1161
25962W        W42223   1.835   5.253  11.228 -0.2003 -0.1608  0.1880
25963W        W42224  18.555  12.937  14.662 -0.2328 -0.1512  0.1617
25964W        W42225   6.752  17.024  13.318  0.2202  0.3164  0.1351
25965W        W42226   0.910  12.264  11.111  0.0791 -0.2702 -0.0307
25966W        W42227  14.513  12.687  11.741 -0.1935  0.0093  0.0079
25967W        W42228  13.006   1.018   2.299  0.1329 -0.1064  0.4198
25968W        W42229  17.116   8.527  14.906  0.2119 -0.0159 -0.0229
25969W        W42230  17.952   2.990   1.914  0.2286  0.1534  0.0076
25970W        W42231  12.458  12.414  11.578 -0.0271 -0.5638 -0.2018
25971W        W42232  13.867  13.140  11.798  0.1141 -0.1885 -0.0914
25972W        W42233  12.906  15.398   0.355 -0.0149  0.1113 -0.1984
25973W        W42234  17.245   2.108  14.674 -0.2280 -0.2873 -0.1173
25974W        W42235   2.538  13.105   4.301  0.0172  0.2396 -0.0782
25975W        W42236   1.356  11.550  14.548 -0.0505 -0.0278 -0.2496
25976W        W42237  13.235  14.262   4.354  0.2885 -0.1325  0.2519
25977W        W42238   4.692   1.400  12.011 -0.3228  0.0040  0.1461
25978W        W42239   4.546   6.762   1.245 -0.0935  0.2762  0.1298
25979W        W42240  16.287   5.838   2.526  0.0086 -0.0099  0.0673
25980W        W42241   0.250  14.300  10.882 -0.0418 -0.0652 -0.2845
25981W        W42242  14.577   0.063   1.995  0.3213 -0.0691  0.4177
25982W        W42243  12.617   8.893  13.580  0.1113  0.0497 -0.0458
25983W        W42244  16.202   2.710  11.319  0.0354  0.0607  0.1373
25984W        W42245  11.980   6.915   0.599 -0.1417  0.1404 -0.2940
25985W        W42246   2.475   2.904   1.620 -0.1187 -0.2024  0.0950
25986W        W42247   4.684   9.596   3.898 -0.1045 -0.0527  0.2046
25987W        W42248   2.150   6.005  13.902 -0.1409  0.0656  0.4161
25988W        W42249   6.667   4.274   1.109 -0.3669  0.2032  0.2364
25989W        W42250  15.666  12.665   5.168  0.1435 -0.2930  0.0425
25990W        W42251  13.367   6.894  13.899 -0.1007  0.0884 -0.0982
25991W        W42252   0.840   5.483   1.990  0.1455 -0.2336  0.1498
25992W        W42253   3.836   5.284  12.585  0.3836 -0.2801 -0.1102
25993W        W42254  13.923   8.001   0.795 -0.3033  0.2979 -0.3616
25994W        W42255  13.058   0.663  14.473  0.2320  0.3150  0.1075
25995W        W42256  11.163  17.093   2.308  0.1078  0.0249 -0.1020
25996W        W42257   3.224  14.515   2.041 -0.0117  0.0047  0.2371
25997W        W42258   8.165   4.970  15.269  0.0861  0.0483 -0.2235
25998W        W42259   2.508   9.638  12.465  0.0585  0.0223 -0.0254
25999W        W42260   8.428  13.390  11.012 -0.0513  0.1571  0.1686
26000W        W42261   9.651  13.372   2.363  0.1122  0.2863 -0.0709
26001W        W42262   2.070  17.002   4.489 -0.0671  0.0089 -0.2336
26002W        W42263   3.999   9.120  12.461 -0.2544 -0.0681  0.3276
26003W        W42264  13.393   5.416  12.357  0.0412 -0.1034 -0.0134
26004W        W42265   7.492   9.823   1.077  0.0532  0.2853 -0.0593
26005W        W42266  13.981   2.414  14.781  0.0321 -0.0473  0.2723
26006W        W42267  17.812  13.745  11.320  0.3096  0.2326  0.1433
26007W        W42268  17.189  17.243   0.992  0.0762 -0.3008  0.2940
26008W        W42269   6.309   7.094   4.396 -0.0349 -0.2842  0.0444
26009W        W42270   3.788  11.973  11.990  0.2623  0.2815  0.0899
26010W        W42271   9.385   3.129   2.231 -0.0111 -0.1380  0.1045
26011W        W42272  12.693  12.111  13.918 -0.0330 -0.1132 -0.0114
26012W        W42273   1.994  17.793  14.853 -0.0873 -0.2113  0.0334
26013W        W42274  11.604  13.377  10.519 -0.1872 -0.1997 -0.2228
26014W        W42275   2.428  18.141  11.348 -0.0087  0.1009 -0.1739
26015W        W42276   4.864   6.897   5.240  0.3755 -0.3674  0.2184
26016W        W42277   2.450  17.615   3.572  0.4212 -0.1708 -0.0078
26017W        W42278  18.731  14.840   0.056 -0.1189  0.1279 -0.1241
26018W        W42279  18.338  16.933   5.797 -0.0191 -0.3044 -0.2229
26019W        W42280   7.818  12.569   3.525 -0.1071  0.1569  0.2267
26020W        W42281  11.883  18.649  13.240 -0.0932 -0.0510 -0.1108
26021W        W42282   2.414  18.430   4.345 -0.3175 -0.4527 -0.1676
26022W        W42283  12.861   2.471   4.271  0.2755 -0.0674 -0.1656
26023W        W42284   2.303  15.581  15.575  0.1364  0.0555  0.1050
26024W        W42285  16.416  13.712   2.768 -0.1100 -0.3655  0.0880
26025W        W42286  14.530   6.089   1.992 -0.1657 -0.1947  0.1991
26026W        W42287  14.994  12.824  14.120  0.0154 -0.3552  0.1510
26027W        W42288  16.459   9.289   1.895 -0.2347 -0.0442  0.3727
26028W        W42289   8.745  11.566  15.429  0.1032 -0.1322  0.1516
26029W        W42290   4.386   2.044   3.770 -0.2027  0.2457 -0.0902
26030W        W42291   4.645   5.561  14.799 -0.0164 -0.1455 -0.0151
26031W        W42292   5.096  18.618  14.569 -0.2722 -0.5765 -0.5309
26032W        W42293  14.485   9.270   4.178  0.3041 -0.1726  0.0875
26033W        W42294  14.165   4.245  11.872 -0.1822 -0.1812 -0.0986
26034W        W42295   7.158  16.458  11.656 -0.0876  0.0617 -0.2566
26035W        W42296  18.578  11.189  12.006 -0.1876  0.0434 -0.1504
26036W        W42297   2.915   2.617  10.169  0.0657 -0.1267  0.0065
26037W        W42298   6.009  13.207   3.912 -0.2690 -0.1597  0.2051
26038W        W42299   5.588  12.822  11.491  0.0070 -0.0292  0.0333
26039W        W42300  14.218   6.171  14.375 -0.1295 -0.1036  0.3129
26040W        W42301  15.574  10.315   0.539 -0.0012 -0.2431  0.0161
26041W        W42302  15.671  16.127   4.157 -0.1238  0.0005  0.3194
26042W        W42303  10.145  14.104  13.748 -0.1271 -0.2047  0.1112
26043W        W42304  16.019  12.877   4.010 -0.2008  0.3034 -0.0794
26044W        W42305  14.173   7.240  10.811  0.0025 -0.2984 -0.0349
26045W        W42306   5.016  14.288  13.007  0.3404 -0.3275  0.0360
26046W        W42307  17.884  13.984  14.452  0.2071  0.3219  0.0442
26047W        W42308   6.311  11.422   3.598  0.0749 -0.2936  0.1144
26048W        W42309   6.760  13.707  13.610 -0.1208 -0.2073 -0.3106
26049W        W42310  11.658   0.756   4.346  0.4267 -0.0012  0.0411
26050W        W42311  14.104  13.288   2.069  0.4015 -0.1938  0.3192
26051W        W42312  12.511   0.167   2.380  0.1457  0.0248 -0.1046
26052W        W42313  17.583  15.181  12.037  0.0285  0.2280  0.0756
26053W        W42314  13.826   0.200  11.943  0.0481  0.0508  0.0275
26054W        W42315   1.576   9.952   1.440  0.3038  0.2039  0.6261
26055W        W42316   6.070  18.746   4.344 -0.0495 -0.2077  0.0689
26056W        W42317   3.484   9.657   5.031  0.0538 -0.3490 -0.0940
26057W        W42318  17.486   1.343  10.794 -0.4066  0.0337  0.0793
26058W        W42319   2.576  16.104   1.455 -0.2652  0.2875 -0.0370
26059W        W42320  13.558   3.531   1.560  0.2308  0.3836 -0.2423
26060W        W42321  11.664  17.832  15.636 -0.0979 -0.2879 -0.3116
26061W        W42322   8.398   9.817   0.779  0.3619  0.1882  0.0338
26062W        W42323   2.849   2.853  11.030  0.0071 -0.3146  0.0261
26063W        W42324  12.067  17.084   2.891  0.0407 -0.5366 -0.1559
26064W        W42325   6.180   7.604  15.592 -0.1725  0.1021  0.0162
26065W        W42326   5.230   4.945  11.491  0.2877 -0.0140 -0.0652
26066W        W42327   3.626   1.969  14.972 -0.4633  0.0716 -0.3737
26067W        W42328  15.571   5.195   1.014  0.1690  0.3085  0.1464
26068W        W42329  17.670  10.009   2.030  0.1455 -0.0720  0.2705
26069W        W42330  18.244  17.416  11.690 -0.1982  0.2086  0.2181
26070W        W42331  13.323   3.627   2.199  0.0524 -0.1182  0.0401
26071W        W42332  12.027  18.189   1.127  0.0812  0.1063  0.1459
26072W        W42333   4.812   2.078   4.547  0.2627  0.2481  0.0168
26073W        W42334  16.208   2.826  14.444 -0.0130 -0.0678  0.0982
26074W        W42335  12.760   8.632   2.092 -0.1643  0.0335  0.0009
26075W        W42336  14.214  16.275  11.360 -0.1500  0.1523  0.0157
26076W        W42337  17.743  13.258  11.497 -0.0987  0.1402 -0.2489
26077W        W42338   2.061   2.759   0.187  0.3837 -0.2345 -0.1300
26078W        W42339  12.884  16.968   1.006 -0.0247  0.1881 -0.2395
26079W        W42340  15.299   2.412   3.452  0.1248 -0.0077  0.0923
26080W        W42341   3.086   2.249  11.629 -0.0398  0.1068 -0.0852
26081W        W42342   7.300   9.280  11.908 -0.4664  0.2493  0.0102
26082W        W42343   2.360   3.775  14.672  0.2231 -0.3093  0.4948
26083W        W42344   3.246   1.890  15.232 -0.0737  0.2925  0.0903
26084W        W42345   7.692  15.217  12.140  0.2779 -0.4113  0.2316
26085W        W42346   2.799  16.987   1.896  0.1480  0.3250 -0.0494
26086W        W42347  12.083   3.777   2.470 -0.0223  0.0794  0.0180
26087W        W42348   5.677   6.730  11.326 -0.0406  0.1343  0.3067
26088W        W42349  13.374  16.563   3.468  0.0132 -0.3593  0.1113
26089W        W42350  14.778  12.195  11.893 -0.0769 -0.0239  0.1839
26090W        W42351  11.449   0.178  15.563 -0.2843  0.1677 -0.0801
26091W        W42352  17.700  17.177   0.995  0.0215 -0.1541  0.4147
26092W        W42353  11.314   4.523   0.539 -0.1310  0.0796 -0.2146
26093W        W42354  10.316   3.551   0.351  0.2870 -0.0045  0.0918
26094W        W42355   4.803   4.978   0.216  0.1854 -0.0340  0.0108
26095W        W42356  15.113   2.093  10.782  0.0161  0.1280 -0.1619
26096W        W42357  15.368   2.030  13.725  0.1816 -0.0705 -0.1042
26097W        W42358   6.731   6.060   2.603 -0.0764 -0.2114 -0.2162
26098W        W42359   1.814  11.452  15.476  0.0590 -0.0315 -0.0850
26099W        W42360  17.455   7.205   0.768  0.1223 -0.0921  0.1145
26100W        W42361  17.093  11.390   4.876 -0.1360  0.2977 -0.0914
26101W        W42362  10.334   6.253   1.957  0.0067 -0.1206  0.1699
26102W        W42363  18.125  11.476   3.398 -0.1162 -0.2745  0.1762
26103W        W42364   2.058   6.374   0.479 -0.1655 -0.1752  0.2266
26104W        W42365  16.188  11.971  14.525  0.2908 -0.0667 -0.1951
26105W        W42366   6.586   6.634  10.272  0.4799 -0.2472  0.1262
26106W        W42367   9.135   1.006   1.513  0.1450  0.2645 -0.0095
26107W        W42368   5.468  11.943  11.390  0.0389  0.1037  0.1593
26108W        W42369   6.013  12.584  11.342 -0.0430  0.0910 -0.2928
26109W        W42370   2.238   9.190   2.008 -0.0392  0.0983  0.1354
26110W        W42371  11.215  11.765  11.923 -0.0741  0.0717  0.2116
26111W        W42372  16.994   7.987   0.177 -0.1949  0.0749  0.3238
26112W        W42373  12.324  13.824  13.823 -0.1160  0.1672  0.0401
26113W        W42374   4.290   2.013   0.190  0.2922  0.0266  0.2114
26114W        W42375   8.171  13.940  15.181  0.1819  0.0744  0.0112
26115W        W42376  11.659   3.251  11.337 -0.1092  0.0329  0.1809
26116W        W42377   8.772  11.748  11.083 -0.1219  0.0365  0.1329
26117W        W42378  14.610  17.715   3.730  0.0005 -0.1208  0.0657
26118W        W42379   3.377  10.864   4.040 -0.0678 -0.0010  0.0462
26119W        W42380  13.752  10.905   0.213  0.2978  0.2300  0.1522
26120W        W42381   2.317  12.165   4.521  0.0474 -0.0794 -0.3366
26121W        W42382   9.452  12.252  15.520  0.0545  0.0681  0.0916
26122W        W42383   0.102   8.032  12.064  0.0956  0.2085 -0.0185
26123W        W42384   4.591   3.702   0.127  0.0197  0.1264  0.0593
26124W        W42385   0.109  15.989  12.945 -0.1393 -0.0106 -0.2711
26125W        W42386   9.138   7.579   2.664  0.0820 -0.2396 -0.3110
26126W        W42387   6.064   5.264  14.555 -0.1911  0.1230  0.0742
26127W        W42388  17.198  17.618  14.955  0.0154  0.0633 -0.3225
26128W        W42389  16.161  15.770   1.903  0.2320  0.3212  0.0216
26129W        W42390  11.347  14.432  12.623  0.1600 -0.0272  0.2986
26130W        W42391  18.500   1.763  12.885  0.1126  0.3706  0.0770
26131W        W42392   3.247   9.122  14.336 -0.1377  0.1091 -0.1391
26132W        W42393   9.580  12.782  14.192 -0.0107  0.3487  0.2712
26133W        W42394  17.480  12.659   1.598  0.0466  0.1271 -0.1838
26134W        W42395   0.530   7.117   4.345 -0.0661  0.0747 -0.2789
26135W        W42396   5.698  12.104   0.267 -0.3686  0.2538  0.2423
26136W        W42397   8.163  13.651  12.632 -0.1249 -0.0384 -0.0152
26137W        W42398  14.506   5.944  13.987  0.1586  0.1970  0.0414
26138W        W42399   0.962   9.756   5.314 -0.1810  0.0098  0.0021
26139W        W42400  16.196   7.687  11.682 -0.1627 -0.5724  0.0938
26140W        W42401   8.247   4.793   5.534 -0.0473 -0.0567  0.0349
26141W        W42402   9.179   6.946   2.508  0.0059 -0.0788 -0.1169
26142W        W42403   0.253   5.313   1.203 -0.0183  0.0506 -0.0610
26143W        W42404   6.198  10.078  13.808  0.1575  0.1869  0.1527
26144W        W42405  16.961  17.287   5.494 -0.0225 -0.0640 -0.1493
26145W        W42406  11.233  11.531   1.218 -0.2034 -0.0515  0.0608
26146W        W42407   1.007   9.952  12.233  0.1419 -0.0323 -0.0644
26147W        W42408   1.238   1.294   3.892 -0.1274  0.0554  0.0728
26148W        W42409   5.656   5.483   5.499  0.2076  0.5301  0.0543
26149W        W42410  15.670   8.392  10.868  0.0003 -0.2047 -0.1279
26150W        W42411  15.464   3.491   3.523 -0.3936 -0.2532 -0.0898
26151W        W42412  12.528   4.870  13.382 -0.3080  0.1982  0.0126
26152W        W42413  16.276   2.622  13.713 -0.0200  0.1195 -0.2777
26153W        W42414  10.723  14.946  12.606  0.0305 -0.2653 -0.3098
26154W        W42415   3.572  18.530  10.729 -0.0181  0.0757 -0.1526
26155W        W42416  12.585  18.633   4.618  0.0871  0.2249  0.0657
26156W        W42417   7.411   1.521   2.206  0.0467  0.2823  0.1173
26157W        W42418   0.791  12.641  15.393 -0.0661  0.1231  0.0939
26158W        W42419   3.193   3.274   1.756 -0.4736 -0.0205 -0.0882
26159W        W42420   1.505  15.192  15.188  0.3089 -0.0254  0.0130
26160W        W42421   6.230   8.538  12.622 -0.4123  0.1604 -0.0010
26161W        W42422   6.670  11.101   2.879 -0.0731 -0.0801  0.0804
26162W        W42423  10.476   9.586   5.383  0.0175  0.0973  0.1101
26163W        W42424   7.041  15.468  13.943 -0.0575 -0.0454 -0.0403
26164W        W42425   2.246  13.127   0.787  0.1881 -0.1369  0.0704
26165W        W42426   2.015   0.282   0.704  0.3113  0.5658  0.2202
26166W        W42427   7.444  16.259   1.150 -0.2338  0.0574 -0.1791
26167W        W42428   2.944   8.631   6.381 -0.2935 -0.0760 -0.1100
26168W        W42429   4.287   5.310  15.066  0.1811 -0.1007  0.0229
26169W        W42430   7.197   6.690   5.649  0.1862 -0.1812 -0.3707
26170W        W42431  10.143  17.479  14.500  0.1094  0.2293  0.1176
26171W        W42432  12.351   7.662  10.790 -0.2784  0.1011  0.0799
26172W        W42433  13.349   7.358  13.696  0.0430 -0.0183 -0.0675
26173W        W42434  11.013   9.592  11.133 -0.0530  0.0265 -0.0740
26174W        W42435  15.043   8.612  15.256  0.2101  0.2158  0.1239
26175W        W42436  10.167   4.090  14.476  0.0235 -0.0251 -0.2427
26176W        W42437   2.062  17.435   2.881 -0.0149  0.0562  0.3060
26177W        W42438  12.276   6.475  12.408  0.0897 -0.0858 -0.1149
26178W        W42439   2.844   0.816   0.218 -0.2558 -0.2520 -0.0759
26179W        W42440  13.141  14.334  10.795  0.0232 -0.0926  0.1917
26180W        W42441   7.903   8.026  14.053 -0.2302  0.0333  0.3363
26181W        W42442  11.735  10.407   5.825  0.4147 -0.1531 -0.0876
26182W        W42443  14.040   1.945  13.380  0.1984 -0.1464 -0.0841
26183W        W42444  11.860   1.032  11.980 -0.2305  0.3366 -0.2504
26184W        W42445   7.406   9.935   1.674 -0.0885  0.1383 -0.0969
26185W        W42446   2.123   2.367   3.475  0.2317 -0.1033  0.0807
26186W        W42447   9.901  18.083   1.686  0.1220  0.2745 -0.2482
26187W        W42448   0.502   4.924  10.778  0.0843  0.1707 -0.3169
26188W        W42449   0.658  11.796  11.544 -0.2965 -0.2501 -0.2970
26189W        W42450   6.816   6.283   4.171 -0.2266  0.0604 -0.1105
26190W        W42451  16.549   0.600  12.942 -0.1857 -0.2861 -0.0840
26191W        W42452   8.316   5.831  15.399 -0.1001 -0.1098 -0.1875
26192W        W42453   2.661  17.835   4.865  0.1458  0.2161  0.1789
26193W        W42454  10.636  15.271   4.250 -0.2039 -0.0481 -0.1377
26194W        W42455  17.319  15.947  11.004 -0.0046 -0.0770 -0.0381
26195W        W42456   6.405  15.977   3.905  0.2341  0.0351  0.1647
26196W        W42457  15.797   1.512   5.506  0.2533  0.4089  0.1737
26197W        W42458  14.552   7.449   2.089  0.1356 -0.1366  0.1575
26198W        W42459  10.964   5.084  14.356  0.2127  0.1011  0.0082
26199W        W42460  18.495  11.045  14.695 -0.1605  0.2778  0.0898
26200W        W42461  14.498  17.717   0.649  0.3327  0.4115  0.3453
26201W        W42462  14.405  16.221   3.272 -0.1791  0.0364  0.1709
26202W        W42463  16.372   3.092   3.404 -0.1686  0.0568 -0.6486
26203W        W42464  10.440  18.209   2.767  0.3170  0.1213  0.1672
26204W        W42465  13.881  11.531   1.415  0.1152 -0.0892  0.1906
26205W        W42466   0.285   8.411  13.290  0.1501 -0.0847  0.0386
26206W        W42467   4.370  12.450   2.065 -0.2935  0.3418  0.3305
26207W        W42468  18.289  17.895   3.596  0.2698 -0.2713  0.3392
26208W        W42469   1.094  17.680  15.118 -0.0291  0.0610 -0.0669
26209W        W42470   2.759   4.977   3.922 -0.0061  0.2217  0.1774
26210W        W42471  17.892   8.472   2.451 -0.1839 -0.0592  0.1098
26211W        W42472  14.453   7.052   1.719  0.3666  0.0542 -0.0544
26212W        W42473   6.767   2.080   3.461 -0.1717 -0.2184  0.0564
26213W        W42474   4.580  11.002  13.400  0.1909 -0.3122 -0.0411
26214W        W42475   0.323   5.871  11.980 -0.2980 -0.1574 -0.0528
26215W        W42476   8.962  16.747   4.449  0.2421  0.2161 -0.2180
26216W        W42477   4.026  12.334  12.778  0.0084  0.3813 -0.0511
26217W        W42478  13.263   6.508   5.991  0.0118 -0.1676  0.2242
26218W        W42479   1.344  14.291  11.558 -0.3661  0.2522  0.0259
26219W        W42480   8.223   1.694  14.451  0.2400 -0.1029 -0.2454
26220W        W42481   6.870  14.431  13.616  0.2168 -0.0748 -0.1626
26221W        W42482  10.179  14.041   2.654 -0.2047  0.0156 -0.0877
26222W        W42483   7.104   3.991   3.461 -0.2490 -0.0475 -0.3520
26223W        W42484   8.959   3.615  13.524  0.3799  0.1103 -0.0875
26224W        W42485  16.618  10.702   4.742 -0.0054 -0.0055 -0.2453
26225W        W42486  18.075  18.334  10.717 -0.1684  0.2490  0.0191
26226W        W42487   4.509   1.557  13.462  0.4520 -0.3010 -0.1861
26227W        W42488  12.287  13.367  11.298 -0.1691 -0.1512 -0.1436
26228W        W42489   6.802   7.112   2.433  0.1883 -0.4019  0.0179
26229W        W42490  17.579   8.304   2.104  0.1701  0.1285 -0.1216
26230W        W42491   2.947   6.362  13.209  0.0013  0.3228 -0.0186
26231W        W42492   0.127   9.594   2.062 -0.3024 -0.1635  0.0710
26232W        W42493   0.661  14.681   4.923 -0.0632 -0.4082 -0.0959
26233W        W42494  11.898  12.312   2.664 -0.0274 -0.3859  0.1349
26234W        W42495  15.901   7.584  12.006  0.0071  0.1472  0.1001
26235W        W42496   4.539   2.566  15.229  0.0750  0.0648  0.2009
26236W        W42497  15.278   0.495  11.421  0.0552 -0.0404  0.0250
26237W        W42498   9.838  12.061   3.676 -0.0582 -0.0718  0.0842
26238W        W42499   6.261   2.641   2.726 -0.1044  0.0453  0.0554
26239W        W42500   3.845   8.766  11.134  0.1697 -0.1239  0.2533
26240W        W42501   7.552  13.446  11.501 -0.1311  0.0877 -0.0124
26241W        W42502   2.110  11.821  11.835 -0.3495  0.2787 -0.2481
26242W        W42503   0.330  11.374   3.305 -0.1674 -0.1715  0.4575
26243W        W42504  10.406   0.765  13.838  0.2424  0.3014  0.0004
26244W        W42505  15.980   3.860  13.752  0.0193 -0.2343  0.1516
26245W        W42506  16.738   4.438   0.871  0.1028  0.0676  0.2707
26246W        W42507  14.103   6.387   2.147 -0.1866 -0.0108  0.3105
26247W        W42508   2.395   4.079  15.141  0.0709  0.1469  0.1172
26248W        W42509   3.195  17.787   4.182  0.1686  0.2132  0.1573
26249W        W42510  18.308   3.204   1.121  0.1645 -0.0747  0.2386
26250W        W42511  14.433   4.117   3.139  0.3531 -0.3151 -0.2370
26251W        W42512   8.089  16.906  12.778 -0.2253 -0.0195  0.1601
26252W        W42513   7.484   3.211  12.047 -0.1646  0.0109  0.2113
26253W        W42514   2.490   2.345  10.886  0.0512  0.1457  0.0092
26254W        W42515  15.782  11.563   2.884 -0.1069 -0.0293  0.2977
26255W        W42516   0.952   0.323  14.663  0.3206 -0.0377  0.2653
26256W        W42517   5.337   2.699  14.142 -0.2824  0.0026 -0.0585
26257W        W42518  15.909   6.390   2.926  0.2162  0.1597  0.0771
26258W        W42519   0.245   1.124   4.067 -0.1137 -0.0937 -0.1765
26259W        W42520  13.473  11.463   2.990 -0.2776  0.0285 -0.3852
26260W        W42521   1.339   1.460  11.205 -0.2387 -0.0491  0.0904
26261W        W42522  14.045  15.153  15.322 -0.0990  0.0579 -0.3375
26262W        W42523   8.095   6.768   2.621  0.2635  0.1973  0.0247
26263W        W42524  17.945  11.217   4.278 -0.2256  0.1063 -0.0602
26264W        W42525  13.646  14.895  13.959 -0.0589  0.1042 -0.1071
26265W        W42526  13.011   5.395   4.279 -0.1695  0.3644 -0.1112
26266W        W42527   0.497   1.983  10.662  0.0308 -0.0804  0.2044
26267W        W42528   6.123   9.171   2.105  0.2174 -0.0139  0.0713
26268W        W42529   6.647   0.216  14.707 -0.0205 -0.0089  0.1185
26269W        W42530   2.733  16.022  14.231 -0.0093 -0.1719 -0.0751
26270W        W42531  16.036   9.275   4.085 -0.0321 -0.1294 -0.1540
26271W        W42532  14.804   3.208  11.234  0.7174  0.1867 -0.0781
26272W        W42533   6.240  17.388  11.402 -0.1511  0.0818  0.1213
26273W        W42534  12.128  16.412  12.100  0.0397 -0.4805 -0.5188
26274W        W42535   1.269  11.701   3.694 -0.0156 -0.1383  0.1015
26275W        W42536   1.903  15.919   0.029  0.3731  0.0872 -0.0752
26276W        W42537   6.396   3.667  13.349  0.2415  0.4316 -0.0654
26277W        W42538   7.746  13.371   4.601  0.0847 -0.0902  0.2846
26278W        W42539   9.435   2.770  14.170 -0.2498 -0.3563 -0.3136
26279W        W42540  11.915   8.207  14.737  0.0596 -0.1728 -0.1990
26280W        W42541   8.952  15.319  12.814 -0.1247 -0.1496  0.0974
26281W        W42542   8.978   0.075   6.382 -0.1630 -0.0298 -0.1951
26282W        W42543  14.767  15.776   2.406 -0.0226  0.1219  0.0154
26283W        W42544   5.357   4.964   4.275  0.4230 -0.2004  0.0454
26284W        W42545   3.128   2.130   0.573 -0.1756  0.1692 -0.1945
26285W        W42546  18.365   5.447   0.003 -0.0514 -0.2490 -0.3182
26286W        W42547  10.769  14.921  13.431  0.0062  0.0441  0.3432
26287W        W42548   7.872  18.299  14.835  0.0155  0.1538  0.0746
26288W        W42549   0.119  13.489   3.433 -0.0121  0.0017  0.0844
26289W        W42550   0.919   9.520   0.055  0.0233 -0.1602 -0.0276
26290W        W42551   3.923  13.305   5.765  0.1588  0.3048 -0.1126
26291W        W42552  17.135  11.131  11.445 -0.0404  0.0366  0.0145
26292W        W42553   5.011   1.685  13.286 -0.1234  0.3754 -0.1444
26293W        W42554  16.262   0.432   5.564 -0.1609 -0.1768 -0.1728
26294W        W42555  10.199   8.377   2.237  0.2346 -0.1435  0.1584
26295W        W42556   3.664  17.067  15.256  0.2364 -0.3237 -0.0567
26296W        W42557   4.674   6.932  12.363 -0.2199 -0.1369  0.1962
26297W        W42558  13.064  15.994   4.783  0.0478 -0.0083  0.2441
26298W        W42559   7.007  13.017   5.153 -0.1086  0.0529  0.0918
26299W        W42560   9.642  12.320  14.917  0.2830 -0.0978 -0.0791
26300W        W42561  18.144  13.676   6.097  0.0178  0.0247 -0.0907
26301W        W42562   6.757   7.771  13.926 -0.3813 -0.1608  0.0198
26302W        W42563   8.328   0.161  13.407 -0.0821  0.1102 -0.1601
26303W        W42564  15.464   6.091  11.119 -0.1100  0.1790 -0.0376
26304W        W42565  13.241   5.452   3.431  0.1687 -0.0795 -0.1449
26305W        W42566  13.345   3.912   3.579 -0.2376  0.4751 -0.4778
26306W        W42567   9.211  12.049   3.629 -0.0094  0.0359  0.0559
26307W        W42568  14.801   2.568  13.558  0.1760 -0.1745  0.2554
26308W        W42569  17.898  16.539   4.563 -0.1240 -0.3192  0.1797
26309W        W42570  12.446  12.675  12.528  0.3915  0.0589 -0.3609
26310W        W42571   8.840  18.322  12.647 -0.1062 -0.0679 -0.0349
26311W        W42572  11.524   2.310  13.555  0.3165  0.1971  0.1298
26312W        W42573   1.662   8.362   2.937 -0.0106  0.0350 -0.0147
26313W        W42574   2.297   4.626   4.184  0.0323  0.0655  0.1279
26314W        W42575   1.264  13.128   2.763 -0.0071  0.0879  0.2050
26315W        W42576   4.762   3.720  11.808 -0.1989  0.1160 -0.2393
26316W        W42577   0.421   6.614  14.323 -0.1901 -0.1325 -0.0285
26317W        W42578  16.729  18.002  15.008  0.0821 -0.2007  0.1319
26318W        W42579  10.479  14.704   2.272  0.2573 -0.2353  0.0856
26319W        W42580  18.226   4.759  12.406 -0.0484 -0.1705 -0.0042
26320W        W42581   4.197  17.542   3.517 -0.0591 -0.0442  0.1410
26321W        W42582  10.911  18.034  14.828 -0.0638  0.1603 -0.2288
26322W        W42583   5.200  10.292   2.093 -0.1180  0.1796  0.2238
26323W        W42584   2.570   0.725   2.438 -0.1977 -0.0892  0.1334
26324W        W42585  15.234   1.137  15.398  0.1252 -0.2338 -0.2217
26325W        W42586   4.839   3.437   2.118 -0.1975 -0.3523 -0.5661
26326W        W42587  14.663  15.826  11.976 -0.1052  0.3280 -0.0803
26327W        W42588   2.970  16.227  13.059 -0.0344  0.4960 -0.2833
26328W        W42589   4.512   1.219   0.817 -0.1763 -0.2161  0.1570
26329W        W42590   4.231   7.353   5.819 -0.1616  0.4685 -0.0443
26330W        W42591  10.885   8.154  10.310  0.0412  0.1106  0.0636
26331W        W42592  10.970   8.863   1.844  0.1281  0.1211  0.2497
26332W        W42593  10.680   4.677  11.753  0.1047 -0.0053 -0.0697
26333W        W42594   6.349   6.863  14.992 -0.3513  0.1666  0.2193
26334W        W42595  17.720  13.123   1.496 -0.2737 -0.4022 -0.0691
26335W        W42596   2.950  16.351   3.905 -0.4115  0.0272  0.3192
26336W        W42597  15.299  12.071  14.294  0.2076 -0.0264  0.1469
26337W        W42598   8.567   8.172  15.277 -0.1038  0.2199  0.0334
26338W        W42599   3.211  16.801   3.975  0.2821  0.0565  0.0358
26339W        W42600  18.380  17.437  10.678 -0.0209 -0.0050 -0.0220
26340W        W42601   3.977   6.362  14.488 -0.1541  0.1754 -0.3996
26341W        W42602   8.393   7.737   5.755  0.1220  0.1407 -0.3075
26342W        W42603  15.048   6.813  10.840 -0.0177 -0.0593 -0.1385
26343W        W42604   0.293  15.945   2.044  0.2755  0.3039  0.0591
26344W        W42605  16.729   8.012  13.336 -0.1151 -0.4473 -0.0032
26345W        W42606   0.568   3.577   5.784 -0.0291  0.1359 -0.1147
26346W        W42607   6.182   0.797   0.482  0.1368  0.5060 -0.1688
26347W        W42608   6.009  17.810   1.510 -0.0044 -0.3499  0.1965
26348W        W42609  18.442   4.384   0.842  0.0746  0.4174  0.0188
26349W        W42610  12.256   2.957  13.471 -0.0117  0.0816 -0.1898
26350W        W42611  10.156   7.050   1.760  0.1232  0.1964 -0.2599
26351W        W42612   0.375  12.144   2.140  0.1464  0.0021 -0.0957
26352W        W42613   5.739   6.210  11.101  0.0017 -0.3759 -0.1555
26353W        W42614  17.247   6.168   3.777  0.2387  0.2047  0.1925
26354W        W42615  14.113  10.609   1.613  0.0191  0.3441 -0.0199
26355W        W42616  13.341   3.249  10.849 -0.0916  0.3074 -0.0428
26356W        W42617  18.827   7.216   2.416 -0.3407  0.1544  0.0395
26357W        W42618   5.278   7.458   4.221  0.0497 -0.0800  0.0546
26358W        W42619   7.565  18.812   3.461 -0.3416  0.1073 -0.0297
26359W        W42620  10.902  16.972  11.614  0.0112  0.1172 -0.0086
26360W        W42621  11.310  13.435   3.235 -0.2557  0.1444 -0.2042
26361W        W42622   2.782  12.578  11.738 -0.0681  0.1040 -0.0479
26362W        W42623  18.379  13.372  14.053  0.0163  0.1227 -0.3328
26363W        W42624  15.100  15.539  13.227 -0.0323 -0.3660  0.0794
26364W        W42625   6.996  18.328   4.855 -0.0576 -0.2189 -0.1045
26365W        W42626  13.691   6.139  11.664 -0.2143  0.0171  0.0117
26366W        W42627   6.186   1.458   4.573  0.0420 -0.0387 -0.1353
26367W        W42628   8.720  18.273   4.984 -0.1965  0.2856 -0.4304
26368W        W42629  16.335   5.902  13.110  0.0536  0.1696 -0.0831
26369W        W42630   0.955  14.352  14.884 -0.1855 -0.0564 -0.0075
26370W        W42631   4.285   2.931   4.893 -0.0074 -0.3432  0.1050
26371W        W42632   8.763   3.477  14.302 -0.2197  0.0990 -0.2290
26372W        W42633  14.799   2.143   3.999 -0.3640  0.0806  0.0539
26373W        W42634   9.007   8.834  15.011  0.1100  0.0267  0.0817
26374W        W42635  10.719   5.843   3.049  0.0082  0.0734  0.0596
26375W        W42636  12.109  13.704  14.304 -0.2569  0.0766  0.1352
26376W        W42637   2.117  13.440   1.307 -0.2923  0.1636 -0.1963
26377W        W42638   2.479   5.386   3.537  0.2612  0.1413 -0.0420
26378W        W42639   8.687  16.621  15.041 -0.1126 -0.4067  0.1550
26379W        W42640  12.627  13.482  11.726 -0.0791  0.0311 -0.0255
26380W        W42641  10.306   5.021  15.201 -0.2626 -0.1010  0.2387
26381W        W42642   0.042  14.376   0.224 -0.0078 -0.0996 -0.1168
26382W        W42643   6.316   5.694  15.260 -0.0480 -0.0463 -0.2416
26383W        W42644  17.804   2.068   3.056 -0.0231 -0.1598 -0.1592
26384W        W42645   0.098  13.251   3.946  0.3817 -0.2418  0.0558
26385W        W42646   1.980   0.619   4.193  0.1658 -0.1278  0.2249
26386W        W42647  12.163   4.961  11.853 -0.0987 -0.3728 -0.1179
26387W        W42648  14.341  14.086  14.563  0.2187  0.3581  0.1088
26388W        W42649   9.251   9.806   4.998 -0.0392  0.1740  0.2044
26389W        W42650   9.784   0.694  12.631 -0.0331 -0.0788 -0.1214
26390W        W42651   2.121   9.867   3.342  0.3057  0.0789 -0.0120
26391W        W42652  11.433  15.266   5.643  0.1742  0.1264  0.0972
26392W        W42653  15.189  12.523  11.948 -0.2242  0.1249 -0.1259
26393W        W42654   1.930   2.703   4.540 -0.1374  0.1043 -0.1718
26394W        W42655   5.608  12.965   4.397  0.0432  0.0482  0.0274
26395W        W42656   1.362  10.252  13.509  0.1729 -0.2200 -0.0734
26396W        W42657  17.946   4.206   0.925 -0.1562 -0.0972 -0.0699
26397W        W42658  17.573   4.229  15.229  0.1198 -0.1107  0.2980
26398W        W42659  11.535   1.883  12.169  0.0200 -0.0513  0.2047
26399W        W42660   0.983   0.033  13.940 -0.1719 -0.2601  0.1301
26400W        W42661  10.138   5.802  13.440  0.1762  0.3287 -0.1693
26401W        W42662   7.794  15.316   2.643 -0.0711  0.0948  0.4946
26402W        W42663  14.940  13.268  15.566  0.0771  0.1041  0.3059
26403W        W42664  10.491   8.967  13.170  0.2445 -0.0785 -0.0455
26404W        W42665  16.713   5.481  12.297 -0.2396 -0.1573 -0.0032
26405W        W42666  12.794   6.976  12.081 -0.1062  0.1416  0.0409
26406W        W42667  18.303   7.841   4.699 -0.2765 -0.0907  0.1782
26407W        W42668   0.493  14.529   5.461 -0.1248 -0.1143  0.1213
26408W        W42669   5.701  14.516   3.305 -0.0659  0.0059 -0.4090
26409W        W42670  17.615  10.589   0.531 -0.0371  0.0219 -0.1371
26410W        W42671   0.740  16.820   1.794  0.0374  0.1757 -0.2048
26411W        W42672   2.942   0.920   3.228 -0.2125  0.2022  0.1285
26412W        W42673   0.429   7.311   1.092 -0.1133 -0.2474 -0.1895
26413W        W42674   9.361  17.127  14.284 -0.2169  0.0325 -0.0820
26414W        W42675   5.142  12.970   2.621  0.1618  0.1522  0.0373
26415W        W42676  16.685   7.369  12.586  0.3013  0.1425 -0.1993
26416W        W42677   5.615  14.339  14.239  0.0280 -0.4576  0.1791
26417W        W42678  11.929  18.398   2.765 -0.1228 -0.0429  0.0194
26418W        W42679   7.984  10.082  14.030  0.1078  0.0087  0.0977
26419W        W42680   6.537  13.017   1.385  0.0537  0.1637  0.0846
26420W        W42681  18.691   3.431   2.440 -0.0106  0.0170  0.2294
26421W        W42682  17.180  13.825  15.158 -0.0614 -0.3990 -0.0224
26422W        W42683   4.684   9.693  11.408  0.2863 -0.0859  0.1843
26423W        W42684  17.545  11.523   0.652  0.3244 -0.5182  0.0777
26424W        W42685   0.117  10.021   2.363 -0.4548  0.1137 -0.1322
26425W        W42686   4.356  14.224  11.909  0.1672 -0.0072 -0.0904
26426W        W42687   2.328  15.849   5.001 -0.3795 -0.0544 -0.0028
26427W        W42688  17.375  14.868   5.837 -0.0273  0.0336  0.0620
26428W        W42689   3.849   7.487   4.659  0.0957  0.1338  0.0117
26429W        W42690   0.526  17.410  13.207 -0.0050 -0.4844 -0.2809
26430W        W42691  17.038   6.074  15.639  0.3353 -0.0747 -0.0835
26431W        W42692   6.917  18.597  14.677 -0.0850 -0.0923 -0.2751
26432W        W42693   7.559  17.513   3.720  0.2111 -0.0306 -0.0776
26433W        W42694  13.758   0.149  13.156  0.0376  0.0615 -0.0734
26434W        W42695  13.120  15.933   2.189 -0.0852 -0.0180  0.1115
26435W        W42696  17.820   7.531  11.650  0.3922 -0.0766 -0.1050
26436W        W42697   8.970   2.299  13.911 -0.1596  0.0569 -0.1048
26437W        W42698  13.182  13.623   3.711  0.3616  0.1822  0.3085
26438W        W42699   0.684  18.136   5.342  0.0603  0.1372 -0.1589
26439W        W42700   5.266   3.662  12.673 -0.2225  0.1612  0.1795
26440W        W42701   3.940  11.560   0.428 -0.0486  0.0501 -0.2446
26441W        W42702   0.755  13.891   2.825 -0.1112  0.1058  0.0722
26442W        W42703   2.119  12.541  11.204  0.0555  0.0925 -0.0876
26443W        W42704   6.236  10.564   4.556  0.0498  0.0174  0.1610
26444W        W42705  15.988   0.755   5.254  0.0690  0.0371  0.0877
26445W        W42706  10.627  15.580   2.536 -0.1338  0.3849 -0.0278
26446W        W42707   1.815   3.005   3.394 -0.1913 -0.0508 -0.1742
26447W        W42708   2.283   7.614   4.542  0.0698  0.1098  0.1011
26448W        W42709  17.472  16.776   3.123  0.0319 -0.0536 -0.0122
26449W        W42710   5.500   8.771   3.087  0.0900 -0.0454  0.2094
26450W        W42711   6.360  10.920  14.624  0.2978 -0.4460  0.0723
26451W        W42712   3.929   3.570   5.790 -0.4451  0.0138 -0.2352
26452W        W42713   9.399   1.733  11.669 -0.5238  0.0871  0.0613
26453W        W42714   4.763  18.450   1.847 -0.0244 -0.4850  0.1150
26454W        W42715   1.178   2.426  12.767  0.0157  0.1127  0.0359
26455W        W42716   4.799   9.581   0.048  0.3199 -0.0144  0.1778
26456W        W42717   2.263   5.036   0.804 -0.0039 -0.2434  0.1154
26457W        W42718   8.941   3.190   0.008  0.0318  0.0218 -0.3344
26458W        W42719   5.802  12.111   2.063  0.1377 -0.0898  0.1597
26459W        W42720   3.614  16.242  13.971 -0.3063 -0.1811  0.2353
26460W        W42721   3.567   0.318  15.187  0.2196  0.2338  0.1290
26461W        W42722  13.423  10.525  14.147 -0.0003 -0.1597 -0.2601
26462W        W42723   8.682  14.380   5.327  0.0049  0.0566  0.2449
26463W        W42724   6.188   6.183  14.309 -0.1307 -0.3444  0.1900
26464W        W42725  15.455  11.284  11.650  0.1514  0.0513  0.1172
26465W        W42726   1.418  13.650  10.829 -0.2997 -0.0825 -0.0872
26466W        W42727  10.839   6.722   0.380  0.0904  0.0946  0.1640
26467W        W42728  15.586   5.566  13.728  0.1444  0.0087 -0.4052
26468W        W42729  10.002  12.023  14.955  0.0743  0.0960 -0.3036
26469W        W42730   6.206   4.800   5.127 -0.3346  0.0023  0.0471
26470W        W42731  11.617  18.040  11.687 -0.1283  0.1630 -0.0446
26471W        W42732  10.012   1.911   3.965 -0.0339 -0.1438 -0.0017
26472W        W42733  12.249  12.840  15.274  0.0700  0.0286  0.2707
26473W        W42734   3.468   6.603   2.137  0.0800  0.0923  0.2919
26474W        W42735   1.660   0.668  14.950  0.2614  0.0756  0.0444
26475W        W42736  15.422   9.520   2.418  0.0733  0.0532 -0.3618
26476W        W42737   0.801  15.218   0.909  0.0735 -0.3446  0.1468
26477W        W42738  14.117   4.662   3.724  0.0482  0.0213  0.0483
26478W        W42739   0.955   3.634  14.520  0.4130  0.0466 -0.0067
26479W        W42740  17.891  13.087  12.428 -0.0712 -0.0537  0.0557
26480W        W42741   4.282   9.084   2.250 -0.4071 -0.0464  0.1673
26481W        W42742   2.482   7.753  13.967  0.1509  0.2738 -0.0049
26482W        W42743  18.291   0.695   9.880  0.1562 -0.0393  0.0535
26483W        W42744  11.470  15.868   0.067 -0.0246 -0.1073  0.0124
26484W        W42745   9.646   7.208   1.010 -0.0491  0.0534 -0.0700
26485W        W42746   8.990  16.263  10.196  0.1093  0.1069 -0.2419
26486W        W42747   3.163  10.415   5.813 -0.1387  0.0992  0.0195
26487W        W42748   6.872   9.486  13.237  0.1621  0.4643 -0.0571
26488W        W42749  12.578  17.557  13.646 -0.0171 -0.1628 -0.0269
26489W        W42750   4.453  10.296  10.976 -0.0702  0.0790 -0.0319
26490W        W42751   2.742   9.994   4.884  0.0818  0.3136 -0.1696
26491W        W42752  16.858   2.735  14.169 -0.0609  0.1476 -0.0082
26492W        W42753   5.521   0.926  15.161  0.1603 -0.0765 -0.0461
26493W        W42754   6.044   0.455   4.441  0.2741 -0.0642 -0.1436
26494W        W42755   0.105   3.109  10.679 -0.1580  0.0920  0.0081
26495W        W42756  18.791   6.568   1.394 -0.2580 -0.3375 -0.0975
26496W        W42757   7.114  10.290  12.405  0.1420 -0.1038 -0.1889
26497W        W42758  16.937   6.125  12.259 -0.0180 -0.0861  0.0008
26498W        W42759  17.190   4.628   1.012  0.5023 -0.1595  0.1534
26499W        W42760  16.310  15.862   3.150 -0.1874  0.0259  0.0510
26500W        W42761  15.873   0.944   2.269  0.1213 -0.1623  0.1882
26501W        W42762   0.949  14.709  14.472  0.3317 -0.0974 -0.2340
26502W        W42763   2.851   2.238  12.439  0.2323  0.0755  0.0058
26503W        W42764  12.438  17.081   3.344 -0.3685 -0.0883 -0.3433
26504W        W42765   6.973   2.519  15.592  0.0827  0.1020 -0.2302
26505W        W42766  18.375   9.829   0.031  0.1264  0.1376 -0.0026
26506W        W42767   1.309  13.905  14.660 -0.2550  0.1064 -0.1578
26507W        W42768   5.136  13.781   9.838 -0.0291 -0.1086 -0.3227
26508W        W42769   1.992   1.927   1.794 -0.2491 -0.2132  0.1200
26509W        W42770   0.059  17.043   3.082 -0.0263  0.3065  0.2776
26510W        W42771  13.797  11.771  13.625 -0.1199 -0.2276 -0.2186
26511W        W42772   8.421  13.574  11.512 -0.0802 -0.0117  0.1285
26512W        W42773  10.388  16.662   0.903  0.0095 -0.0162  0.3933
26513W        W42774  18.062   5.730  14.712 -0.0052  0.0052 -0.0084
26514W        W42775  15.308  14.377   4.105 -0.0674 -0.2293 -0.0792
26515W        W42776  14.769   6.890   3.216 -0.4377  0.0654  0.1030
26516W        W42777   2.723  17.534  10.361  0.0714  0.1528  0.2624
26517W        W42778   7.018  17.808  13.291 -0.1140 -0.1390  0.2361
26518W        W42779   3.210  12.159   2.218  0.2375  0.3254  0.2247
26519W        W42780   2.513   6.499  14.576 -0.1277 -0.0706 -0.2623
26520W        W42781  11.170   2.787   1.142 -0.0177 -0.2164 -0.3532
26521W        W42782   4.010   0.236  13.338 -0.1321 -0.0454  0.2366
26522W        W42783  12.613   1.929  11.780  0.0302  0.0611 -0.2920
26523W        W42784   1.360   8.821  11.014 -0.1320  0.2473 -0.2525
26524W        W42785   5.692  18.785   1.520  0.0746 -0.2308 -0.1525
26525W        W42786  17.796  17.905   2.263 -0.3243 -0.1508  0.0477
26526W        W42787   2.285  14.321   1.612  0.0316 -0.0542 -0.6447
26527W        W42788  15.464   5.791  11.489  0.2956 -0.0253 -0.1281
26528W        W42789  18.002  12.436  10.980  0.3367 -0.1519 -0.4841
26529W        W42790   1.897  14.824   0.786  0.0179  0.0044 -0.0255
26530W        W42791   9.588   6.218   2.333  0.5542 -0.0438  0.0997
26531W        W42792   7.970   6.075   0.694 -0.0520  0.2474 -0.0862
26532W        W42793   2.115  14.674   2.474  0.1785  0.0212 -0.0383
26533W        W42794   4.413   8.930  15.164  0.0986 -0.0402 -0.1476
26534W        W42795   0.462  18.482  15.468 -0.1485  0.1501  0.3310
26535W        W42796   3.383  13.011   4.250 -0.0053 -0.1164 -0.0748
26536W        W42797   9.041  10.439  15.075  0.0608  0.0308 -0.2210
26537W        W42798   5.048  17.828   4.176  0.2951 -0.3891 -0.2134
26538W        W42799   7.965  12.991   3.266 -0.3624 -0.3562  0.0827
26539W        W42800   6.883  16.938   1.924 -0.1605  0.2874  0.2479
26540W        W42801   9.475   4.040  11.693 -0.0843 -0.2433 -0.0897
26541W        W42802   6.327   4.676   2.542  0.1544 -0.3775  0.0368
26542W        W42803   0.950   3.915   2.118  0.0048 -0.0317  0.0467
26543W        W42804  15.140  12.765  15.517  0.0156  0.0221 -0.0973
26544W        W42805  17.687  13.068   4.441  0.0981  0.1903 -0.0474
26545W        W42806   5.345   9.735  12.622 -0.0634 -0.0302 -0.2788
26546W        W42807  11.262   0.651  15.619 -0.3995 -0.1590 -0.2316
26547W        W42808   5.800   6.614   2.951  0.0600  0.1586 -0.3133
26548W        W42809   6.990  11.786   1.722  0.2061  0.2527 -0.0690
26549W        W42810   4.353  17.628  12.387 -0.0860 -0.1045  0.0842
26550W        W42811   6.793   8.027   1.581  0.3686 -0.1080 -0.4767
26551W        W42812  17.868   5.463  12.188  0.1373 -0.2714  0.0070
26552W        W42813   2.776  10.112  10.489  0.1337 -0.2356  0.2255
26553W        W42814  11.889   0.345  13.034  0.2154  0.0746 -0.2983
26554W        W42815  11.288  16.301  13.679  0.4716 -0.0756  0.1722
26555W        W42816  10.767  11.472  14.397  0.0555 -0.1225  0.0626
26556W        W42817  17.481  10.773   3.342  0.0529  0.1919 -0.1501
26557W        W42818  15.629  10.059  14.771 -0.0704 -0.0650 -0.0069
26558W        W42819  18.572  10.772  12.330 -0.0438 -0.0843 -0.1519
26559W        W42820  14.096  11.221  15.379  0.4136  0.4485  0.2066
26560W        W42821   4.411  18.489  13.337 -0.2831  0.0061 -0.2500
26561W        W42822   3.321   7.670  11.014 -0.3729 -0.1021  0.3909
26562W        W42823   0.643  13.456  11.027 -0.0562 -0.0793  0.5583
26563W        W42824  16.430  13.418  11.072  0.0416  0.0070 -0.1570
26564W        W42825   9.203  15.778  13.725 -0.0100 -0.2515  0.4640
26565W        W42826   2.343   7.227   2.978 -0.1210  0.0423 -0.0031
26566W        W42827   8.441   8.294   2.317 -0.0604  0.0841  0.1737
26567W        W42828  14.076  16.132  13.749 -0.0001 -0.0210  0.0460
26568W        W42829   3.178   7.679   5.673  0.4341 -0.1881  0.1200
26569W        W42830  14.286  15.718  13.639 -0.3905  0.3430  0.1721
26570W        W42831   6.175   7.606   4.437  0.3123 -0.1081 -0.2476
26571W        W42832  16.889  10.497  15.195 -0.2485  0.3958  0.0613
26572W        W42833  15.482   7.303  11.856  0.1010  0.1827  0.0280
26573W        W42834   2.314   4.467  12.756 -0.2228 -0.2202  0.0030
26574W        W42835   8.367  11.378  12.414 -0.0592 -0.2498  0.2045
26575W        W42836  12.510  11.101   0.857 -0.2325 -0.0674  0.1612
26576W        W42837  15.676   9.180  10.930 -0.0136  0.2883  0.0442
26577W        W42838  16.884  18.562  12.841 -0.1918 -0.1363 -0.0869
26578W        W42839  11.573   4.403  14.501 -0.0771 -0.2450 -0.3296
26579W        W42840   4.830  15.648   0.052  0.0700 -0.2717 -0.1632
26580W        W42841   5.772   5.110   1.262  0.1798  0.0812 -0.1020
26581W        W42842   1.426   3.143   3.133  0.0615  0.0294 -0.0657
26582W        W42843  14.859  15.476  12.251 -0.1813  0.0020  0.2154
26583W        W42844   3.816   4.364   1.865  0.1137  0.2731  0.1165
26584W        W42845  16.748   6.705  10.458  0.0913  0.0269  0.1182
26585W        W42846  10.020   9.862  12.218 -0.0662  0.3539  0.1818
26586W        W42847   9.083   9.931  14.943 -0.2256 -0.0399 -0.0412
26587W        W42848   4.353  11.059  11.390 -0.1054  0.3127 -0.2031
26588W        W42849  13.569  15.415  15.313  0.1738  0.0561  0.4013
26589W        W42850   9.345   0.652   5.363  0.0152 -0.1944  0.2216
26590W        W42851   9.184   0.629  14.717 -0.1838 -0.3615 -0.0042
26591W        W42852   8.262   2.189  14.816  0.1006  0.0628  0.0412
26592W        W42853   9.281  10.935   4.913 -0.2921 -0.1110 -0.0546
26593W        W42854   2.211  11.284   0.669  0.0670 -0.1270 -0.1693
26594W        W42855  11.446   5.905  12.826  0.0175  0.0171 -0.3240
26595W        W42856   0.460  13.987   5.463 -0.0236 -0.4529 -0.0110
26596W        W42857   0.464  18.131   1.333  0.3611  0.1870 -0.0954
26597W        W42858   1.739  14.730  14.922 -0.0808 -0.2355 -0.0342
26598W        W42859  13.042  16.014  10.634  0.1254  0.1669 -0.0777
26599W        W42860   6.331   0.156   4.714 -0.1465  0.2130  0.0658
26600W        W42861   9.569   2.553  12.296 -0.1879  0.2926  0.1147
26601W        W42862   8.748  14.686  14.245  0.1116 -0.2840 -0.0954
26602W        W42863   5.296   2.774  12.582 -0.0648  0.0889  0.2373
26603W        W42864  14.917  15.325   1.132 -0.0140 -0.1255  0.1114
26604W        W42865   4.651   2.109   0.503  0.4579 -0.2965 -0.0688
26605W        W42866   9.846   7.340   0.490  0.3015  0.1959 -0.3401
26606W        W42867   8.452   6.757   2.963  0.2559  0.3463 -0.0914
26607W        W42868  12.316  12.953   4.740  0.1845  0.0846  0.0130
26608W        W42869  11.232  13.036  12.639  0.1143  0.4248 -0.3666
26609W        W42870  18.425   2.894  15.393  0.2102 -0.2283 -0.1216
26610W        W42871   7.878  13.960  14.203  0.1891 -0.1901  0.0787
26611W        W42872  11.471  14.614   2.574  0.0697  0.1775 -0.3566
26612W        W42873   8.189   8.817   0.012 -0.0498 -0.1149  0.0199
26613W        W42874   2.061  15.653  12.114 -0.1936 -0.1195  0.1012
26614W        W42875  18.305   8.194   2.347 -0.1774 -0.1291  0.0952
26615W        W42876   5.110  18.179   0.994 -0.1923  0.0028 -0.0700
26616W        W42877  13.991   0.143   2.957 -0.0700 -0.2584  0.0905
26617W        W42878   1.807   6.857   2.646 -0.1249  0.3679 -0.1946
26618W        W42879  15.004   9.396   2.940  0.0546  0.1058 -0.1758
26619W        W42880  10.300   4.592   5.138  0.3037  0.1210  0.1005
26620W        W42881  14.728  15.490   4.073 -0.1802  0.0232  0.3751
26621W        W42882   7.169  15.802   4.224  0.0391 -0.0978 -0.0844
26622W        W42883  14.918   2.456   1.464  0.0121  0.0972 -0.1785
26623W        W42884  10.395  12.543   3.136 -0.2516  0.0739  0.0221
26624W        W42885   6.014   6.573   3.618  0.0115  0.0606 -0.1327
26625W        W42886   1.243  17.320   3.903 -0.1358 -0.0648 -0.0768
26626W        W42887   9.007  12.352   0.168  0.0383 -0.0059 -0.1013
26627W        W42888   4.491  11.521   0.937  0.2293 -0.2355 -0.2513
26628W        W42889  11.954  15.168   1.674 -0.0008 -0.2709  0.2424
26629W        W42890   7.292   2.470  14.730  0.0476  0.0115  0.1666
26630W        W42891   8.663   8.661  14.406  0.1693 -0.1955  0.1333
26631W        W42892  17.807  15.267   2.418  0.0479 -0.0210  0.2282
26632W        W42893  17.642   6.682   2.869 -0.0311 -0.1559  0.2849
26633W        W42894  15.641  11.221   2.469 -0.0618  0.3865 -0.2209
26634W        W42895   5.643  12.700   0.541 -0.1061  0.2181 -0.1618
26635W        W42896   3.476  18.821   4.412  0.1970 -0.2242  0.0096
26636W        W42897  15.533  12.270  13.385  0.0702  0.0307  0.0804
26637W        W42898  10.446  17.350  15.374  0.2038  0.0258  0.0481
26638W        W42899   9.950   4.187   5.280  0.1866  0.2301 -0.0989
26639W        W42900   0.161   4.493   4.095 -0.2741  0.1918 -0.0089
26640W        W42901   4.195   9.590   0.447 -0.1405  0.3564  0.3155
26641W        W42902  10.724   5.318  13.693 -0.0993 -0.1526 -0.4479
26642W        W42903   0.226  11.934   3.412  0.1080  0.0228  0.1331
26643W        W42904   1.901   1.852   0.249  0.0530  0.3011 -0.1747
26644W        W42905  14.223   7.617   3.315  0.0050 -0.0638 -0.1338
26645W        W42906  10.507   5.252  14.145  0.0690 -0.1739 -0.2342
26646W        W42907   7.056   9.132   3.944  0.0391 -0.0087 -0.3512
26647W        W42908  10.537   8.317   4.545 -0.2082  0.0552  0.2196
26648W        W42909  15.087  14.323   5.837  0.1106 -0.1364 -0.2154
26649W        W42910   7.784   6.732   0.569  0.1088  0.1452 -0.0436
26650W        W42911  10.062   1.718  12.304  0.3797  0.0758  0.1589
26651W        W42912  13.943  10.420  13.894 -0.3002 -0.1122  0.2585
26652W        W42913   8.660   4.427   2.287  0.0214  0.0719 -0.0370
26653W        W42914  15.644   8.641  14.173 -0.3315 -0.1239 -0.0688
26654W        W42915  10.929  10.708   1.172 -0.0980  0.0103  0.0679
26655W        W42916   4.475  11.981   3.844 -0.0174 -0.1282 -0.3291
26656W        W42917  14.355   3.788   4.015 -0.2570  0.0417  0.3718
26657W        W42918  10.277   1.323   0.259  0.3128 -0.0037  0.0160
26658W        W42919   9.340  14.944  12.764 -0.3694  0.0213 -0.2831
26659W        W42920  17.444   3.076  12.265 -0.1299  0.1238  0.2282
26660W        W42921   6.519   4.128   1.735  0.2857 -0.3403  0.0353
26661W        W42922  11.238  15.714  11.655  0.2165 -0.2163 -0.4332
26662W        W42923   5.624  17.156  14.515  0.0899  0.1390  0.2307
26663W        W42924  18.102   7.216   1.509  0.1669 -0.2108  0.1677
26664W        W42925   3.852  15.910   4.022 -0.7162 -0.4042  0.0342
26665W        W42926   9.512   1.326  12.434  0.1113 -0.2312 -0.1592
26666W        W42927   5.845   1.796  15.517  0.1698 -0.0474  0.0387
26667W        W42928   3.588   9.161  13.888  0.0583  0.2240  0.0030
26668W        W42929  13.484  12.640  14.149 -0.0286 -0.0658 -0.1491
26669W        W42930   9.442   0.873   0.666 -0.1746  0.0613 -0.3938
26670W        W42931   6.789  11.180  14.017 -0.2507 -0.2736 -0.0097
26671W        W42932   6.396  18.805  14.379  0.0449 -0.2703  0.1326
26672W        W42933  10.102  10.125   1.590  0.1061  0.0365 -0.2513
26673W        W42934  15.044   8.790  11.551  0.1607  0.0503 -0.1169
26674W        W42935  17.496   5.935  15.344  0.0252  0.2961 -0.3735
26675W        W42936  14.392   8.606   1.480 -0.0466 -0.1844  0.4793
26676W        W42937   5.668   8.906   0.149 -0.0550 -0.0658 -0.1863
26677W        W42938   2.641   2.789   0.866  0.2789 -0.0006 -0.1355
26678W        W42939  12.707   8.855  14.593  0.0185 -0.0577 -0.2054
26679W        W42940  11.178  17.522  13.616 -0.2251  0.1011 -0.1768
26680W        W42941  15.754  14.413  11.637 -0.0816  0.0773  0.2576
26681W        W42942  12.857   4.064  15.367  0.2095  0.0339 -0.4332
26682W        W42943  12.682  13.473   2.698  0.0837 -0.1702  0.0728
26683W        W42944   6.428   0.596  12.241 -0.0110  0.0439 -0.0477
26684W        W42945  12.895   9.273  14.047  0.0678  0.0749 -0.2625
26685W        W42946  11.335   3.950  11.904  0.2539 -0.5361  0.2376
26686W        W42947  11.330   1.463   3.972 -0.2879  0.0325 -0.2300
26687W        W42948  11.474   7.435  10.670  0.1476 -0.0007 -0.0469
26688W        W42949  17.506   9.067  10.590 -0.1732 -0.1425 -0.0183
26689W        W42950  16.053  10.932  14.171  0.0321  0.1195 -0.1215
26690W        W42951  15.756   0.046   4.236  0.0911  0.3433  0.0874
26691W        W42952   2.165  13.001   0.298 -0.1105 -0.0435 -0.2559
26692W        W42953  16.728   0.500   3.255 -0.1889  0.1510  0.1333
26693W        W42954  11.274   0.289   2.263 -0.0631 -0.0937 -0.2921
26694W        W42955   8.993   2.012   1.870 -0.2223  0.2638  0.0200
26695W        W42956  13.596  12.902   0.467  0.0544  0.3382 -0.1911
26696W        W42957  12.653   5.579  15.062  0.0759 -0.2018 -0.2192
26697W        W42958   4.199   2.359  14.250 -0.2770 -0.4057 -0.4755
26698W        W42959   1.418  16.579   1.656  0.1032  0.0979 -0.1132
26699W        W42960  10.335   5.247   5.719 -0.0871  0.0727  0.0333
26700W        W42961  14.518  11.543  15.314 -0.2872  0.3751 -0.3443
26701W        W42962  17.520  12.805   2.406  0.1430  0.3476 -0.0823
26702W        W42963  12.599  13.717   1.822 -0.2339 -0.0484 -0.2453
26703W        W42964   1.199   7.259   0.699  0.0249 -0.1106  0.0234
26704W        W42965  16.936  13.378  12.703  0.0600 -0.1927  0.2092
26705W        W42966  13.786   1.874   4.634 -0.0409  0.1686  0.0084
26706W        W42967  17.441   9.427   1.048  0.2247  0.1182 -0.0385
26707W        W42968   6.216  11.872   4.698  0.1737  0.1128 -0.3626
26708W        W42969   1.480   1.515  14.653  0.0771  0.0286 -0.2363
26709W        W42970   5.024   9.336  11.361  0.1147 -0.0126 -0.0530
26710W        W42971   5.142   4.857   2.961 -0.0528 -0.2775 -0.2031
26711W        W42972  11.782  18.399   1.610 -0.1779 -0.0439 -0.3371
26712W        W42973   4.811  15.136   1.941  0.1564  0.1205  0.2399
26713W        W42974  18.345  15.278  13.979  0.1242 -0.1366 -0.0767
26714W        W42975  17.580   5.168   3.104 -0.0356 -0.0017 -0.1061
26715W        W42976  15.131   3.037  12.666  0.1360 -0.3748  0.1085
26716W        W42977  10.217   4.671   0.691 -0.1562  0.1119  0.1521
26717W        W42978   4.769  18.372  12.954 -0.1046  0.1352 -0.0618
26718W        W42979   0.861  18.181  12.788 -0.4085 -0.2421 -0.0630
26719W        W42980   3.522   8.676   5.470  0.2856  0.2567  0.0435
26720W        W42981  14.689  14.003  11.826 -0.2339 -0.1341 -0.3814
26721W        W42982  10.070   8.128   3.832  0.1113 -0.2535 -0.0425
26722W        W42983   5.697   7.008  11.902 -0.0943  0.0530  0.1297
26723W        W42984   3.139  15.676   1.605 -0.3203 -0.5370  0.0984
26724W        W42985   6.823  10.062   2.566  0.2204 -0.0101 -0.4351
26725W        W42986   5.796  15.294  13.089 -0.0150  0.0366  0.0601
26726W        W42987  10.365   1.967  12.683 -0.1433  0.1065  0.0097
26727W        W42988   8.702   3.740   1.576 -0.4386 -0.1593  0.0186
26728W        W42989   5.521   6.385   0.226  0.1948 -0.0918  0.1109
26729W        W42990  17.536   6.161  12.689 -0.0273  0.1415  0.1154
26730W        W42991  15.348   2.542  11.767  0.1199  0.0162 -0.1145
26731W        W42992  14.414  10.046   0.750 -0.0681 -0.2396  0.0385
26732W        W42993   1.104  14.334  14.094 -0.0883 -0.0408  0.1863
26733W        W42994   8.207   5.162   5.175  0.2358  0.3245 -0.1381
26734W        W42995   3.826   9.815  15.625 -0.1606  0.1560 -0.0165
26735W        W42996   9.465  10.967  14.478  0.0560 -0.1759  0.4134
26736W        W42997  17.686  12.607  15.198 -0.0594 -0.3441  0.0473
26737W        W42998   4.743   5.161  12.908 -0.1329  0.3827 -0.2053
26738W        W42999  16.929   2.318   4.952 -0.1920  0.1211 -0.1423
26739W        W43000  14.162   8.009   3.655 -0.1377  0.0975 -0.3937
26740W        W43001  17.901   1.732  10.732  0.0955 -0.2124  0.4782
26741W        W43002  10.711   7.623   3.215 -0.1812 -0.1599  0.1598
26742W        W43003   0.596   1.926  11.920  0.0377  0.5721  0.3043
26743W        W43004  13.409  14.821   3.738  0.2075 -0.0267 -0.2146
26744W        W43005  15.563  16.646   0.109  0.1520 -0.1078 -0.0877
26745W        W43006  18.783  17.056  12.697 -0.4374  0.2073 -0.0170
26746W        W43007   6.287   6.834   0.511  0.0168  0.0028 -0.1954
26747W        W43008  12.316   7.774  15.389  0.2081 -0.2447 -0.0527
26748W        W43009   9.161  10.219   1.467  0.1327 -0.0858  0.4033
26749W        W43010   4.138  10.196   3.064 -0.1597 -0.1429  0.2335
26750W        W43011   1.287  12.412  14.547  0.0637 -0.1164  0.0829
26751W        W43012  14.316  15.069   0.072  0.0753  0.2890  0.1038
26752W        W43013  13.757   2.563   5.537  0.2533 -0.2451 -0.1570
26753W        W43014   9.792  10.548   0.543  0.0876 -0.0135 -0.1545
26754W        W43015  18.477   5.376  13.974 -0.0409 -0.0928 -0.1441
26755W        W43016   2.940   7.383  11.604 -0.3032  0.0710  0.1182
26756W        W43017  16.446   5.378  10.589  0.2518 -0.0428  0.0102
26757W        W43018  17.518  15.431   0.733  0.0992  0.0061 -0.0719
26758W        W43019   7.492   4.444   4.110  0.1105  0.0854  0.1931
26759W        W43020   5.394  13.436   4.765 -0.0251  0.1107 -0.1038
26760W        W43021   6.617   7.379   2.780 -0.1645 -0.4557 -0.0234
26761W        W43022   6.288  18.004   2.367  0.3153  0.0501 -0.2111
26762W        W43023   8.964   7.467   0.677  0.0078 -0.0618 -0.4572
26763W        W43024   6.828   8.774   4.280 -0.1747  0.0495 -0.0158
26764W        W43025  11.078  11.949   4.144 -0.1586 -0.2763  0.1661
26765W        W43026  15.732   2.885  13.479 -0.1602  0.1879 -0.5424
26766W        W43027  18.385   3.512   4.703  0.0553  0.0193  0.0397
26767W        W43028  12.538   0.779   4.570  0.0459 -0.4902 -0.1100
26768W        W43029  13.062  10.665  14.474  0.2614  0.2925 -0.1969
26769W        W43030  10.924  18.225   2.457  0.0207  0.1000  0.2789
26770W        W43031   0.167  16.255   0.503  0.0111 -0.0302  0.2295
26771W        W43032  16.623  15.826  14.369  0.1113  0.0887 -0.2714
26772W        W43033   1.220   9.001   4.512  0.0097  0.0012 -0.0661
26773W        W43034   2.001  17.857  12.337  0.2260  0.1099  0.3956
26774W        W43035   1.648  12.178  12.572 -0.1923  0.0784 -0.0877
26775W        W43036   7.457   6.356  12.940  0.0197  0.0289  0.2340
26776W        W43037   0.832  14.284   4.506  0.0261  0.2368 -0.1185
26777W        W43038   8.408   7.893   1.615 -0.2244  0.1296 -0.0421
26778W        W43039   9.896  18.523  12.560  0.0191 -0.2299 -0.1113
26779W        W43040  18.551   6.846  15.597  0.0173  0.1080 -0.2426
26780W        W43041  13.830  18.286   5.268 -0.1455 -0.1022 -0.0327
26781W        W43042  15.322  11.059  13.192  0.0058 -0.3392  0.4085
26782W        W43043   9.327  13.905   4.510  0.0907 -0.1689 -0.1381
26783W        W43044   7.843  17.550  12.558  0.1073 -0.0176 -0.0199
26784W        W43045   5.027   6.191   0.072 -0.1513  0.0316  0.1518
26785W        W43046   2.638  11.967   4.891  0.2552  0.1160  0.3098
26786W        W43047  10.612  12.995   2.258 -0.3161 -0.0581 -0.1287
26787W        W43048   5.446   1.660   1.726 -0.0295 -0.1377  0.3309
26788W        W43049   1.599   3.845   0.693 -0.1137  0.1609 -0.0782
26789W        W43050   6.370   8.794  15.140  0.0529 -0.0525 -0.1249
26790W        W43051  15.386   7.581   2.108 -0.0165 -0.0123 -0.0238
26791W        W43052   4.564   9.337   5.279  0.1535  0.2323 -0.2187
26792W        W43053  11.959  16.124  13.581  0.3307  0.0128  0.0300
26793W        W43054  14.054   9.698   2.530  0.0844 -0.1465 -0.0760
26794W        W43055   0.705  10.473  11.722 -0.1241  0.1459  0.2330
26795W        W43056  10.372  15.895  11.213 -0.0184 -0.0786 -0.3869
26796W        W43057   5.118   4.731   4.598 -0.0682 -0.1391 -0.0473
26797W        W43058  10.969  11.296   0.131  0.0856  0.0235 -0.2582
26798W        W43059  14.947  13.115   0.815 -0.1182 -0.1936 -0.1249
26799W        W43060  15.306   0.769  12.454 -0.1885 -0.1632 -0.0042
26800W        W43061  18.302  12.006  13.174  0.0993 -0.1433 -0.2884
26801W        W43062  14.187  14.378  10.703 -0.1921  0.0435 -0.1101
26802W        W43063  14.037  12.188   3.553 -0.1775 -0.1557  0.5487
26803W        W43064  15.301   2.263   3.998 -0.1117  0.2481 -0.0522
26804W        W43065  14.611   7.933   1.982  0.2200 -0.1297 -0.0767
26805W        W43066  11.651  11.761   0.408  0.1644 -0.0785  0.4094
26806W        W43067   8.215   3.507   1.485 -0.3022  0.5672 -0.2261
26807W        W43068  13.149   3.251   1.470 -0.2242 -0.0889 -0.0067
26808W        W43069  13.626   0.706   5.985  0.0048 -0.3762 -0.0683
26809W        W43070  15.516  11.458  13.006  0.1867 -0.0181 -0.1674
26810W        W43071  14.661  16.767   1.992 -0.4147  0.1641 -0.0301
26811W        W43072   0.941  18.563   2.579  0.0245 -0.0084 -0.1688
26812W        W43073  13.599   0.462  15.197 -0.0343  0.0860 -0.1187
26813W        W43074  16.978  13.807  14.509  0.1843  0.0853 -0.1614
26814W        W43075  16.897   0.081   1.288  0.0006  0.1283 -0.2006
26815W        W43076   5.481   8.915   5.009 -0.0141 -0.0440  0.2033
26816W        W43077   1.933  13.373  14.935 -0.0638 -0.1368  0.0262
26817W        W43078   3.874   4.108  12.349  0.2022  0.2262  0.0686
26818W        W43079  15.388   2.832  10.281  0.0348  0.2714 -0.3462
26819W        W43080   5.806   0.246   4.012 -0.0030 -0.0982  0.1029
26820W        W43081   1.803   3.601  12.645  0.4756  0.3289 -0.1115
26821W        W43082   7.821  10.702  12.805  0.0224  0.1481  0.4608
26822W        W43083   7.578   7.494   4.088 -0.1996  0.0175  0.0151
26823W        W43084   1.027   2.865   0.468  0.3284 -0.1683  0.0793
26824W        W43085   2.232   2.844   3.831  0.0434 -0.0410  0.0789
26825W        W43086  10.282  16.372   4.972  0.0953 -0.1172 -0.1931
26826W        W43087  10.217   2.300  11.488 -0.1224 -0.0144 -0.2111
26827W        W43088  16.030  11.742   1.460  0.0967  0.1157  0.1856
26828W        W43089   2.666  13.165   0.222  0.1773  0.0354 -0.0182
26829W        W43090  17.179   1.204  11.850 -0.1037  0.2876 -0.0126
26830W        W43091  11.535   9.228   5.357 -0.2605  0.2297  0.0556
26831W        W43092  16.359   1.517  14.065  0.3173  0.2757  0.1774
26832W        W43093   5.569   8.445  15.202 -0.1817 -0.3228 -0.2109
26833W        W43094   3.178  15.637  15.256 -0.0789  0.1020 -0.0600
26834W        W43095   4.805   8.774  14.866  0.3958 -0.1695  0.2089
26835W        W43096  11.640  12.500  11.931 -0.3753 -0.1033  0.2986
26836W        W43097  12.305  10.001   3.002 -0.0125 -0.1441  0.0115
26837W        W43098  16.829  18.478  15.225  0.3023 -0.1910 -0.0758
26838W        W43099   7.462  13.040   1.390 -0.1955  0.1391 -0.0883
26839W        W43100  15.394  18.350   2.595  0.0498 -0.0058  0.0087
26840W        W43101   1.157   0.286   1.181 -0.1177 -0.1640  0.0952
26841W        W43102  14.315   8.654  12.865  0.1033 -0.4054 -0.0699
26842W        W43103   3.555   6.601   3.435  0.0758 -0.1710  0.0616
26843W        W43104   9.834  12.605   0.891 -0.0847  0.1178 -0.1999
26844W        W43105   4.217   4.224  13.963  0.1364  0.1948 -0.3390
26845W        W43106   1.307   5.351  14.760  0.0517 -0.3705 -0.0318
26846W        W43107  13.762   9.434  12.933 -0.3041 -0.0131 -0.0417
26847W        W43108  13.582   4.757  11.158 -0.2487  0.1477 -0.2702
26848W        W43109   6.760  18.693  11.555  0.2125  0.0532  0.1892
26849W        W43110  14.983  12.110   0.710  0.1907  0.0554 -0.4188
26850W        W43111   9.224  18.347   2.875 -0.0203 -0.0238 -0.2111
26851W        W43112   9.879  10.406   3.284 -0.1742  0.1602 -0.1119
26852W        W43113  18.815  17.502  13.068  0.3455 -0.2035  0.2103
26853W        W43114  11.352   7.001   4.270  0.0380  0.0099  0.0459
26854W        W43115  13.056   7.661  11.029 -0.2023 -0.0822  0.0008
26855W        W43116  13.446  13.894   4.095 -0.0788 -0.0434  0.0391
26856W        W43117  16.845   4.659  15.090 -0.0581 -0.1879  0.0679
26857W        W43118   6.210   3.675   1.622  0.2977  0.1295 -0.0563
26858W        W43119   1.836  11.881   1.852 -0.1602 -0.1118 -0.0292
26859W        W43120   4.578  11.280  12.960  0.0188 -0.0073 -0.0395
26860W        W43121   5.888  12.042   5.207 -0.4867  0.3345 -0.0781
26861W        W43122   5.815  12.157  12.488  0.2066 -0.3110 -0.1103
26862W        W43123   1.493   5.567   5.098 -0.0003 -0.4320 -0.1354
26863W        W43124  15.098  18.715   1.655 -0.1433 -0.1635 -0.2230
26864W        W43125   5.315   4.996   2.472 -0.1168  0.0385  0.1178
26865W        W43126   5.768  18.420   4.083  0.0374 -0.0060 -0.2861
26866W        W43127   0.124  17.736   1.360 -0.1142 -0.2475  0.0514
26867W        W43128  15.127  10.350   1.526  0.3224 -0.1893  0.2529
26868W        W43129   4.819   7.719  14.952  0.2906  0.2117 -0.1850
26869W        W43130   3.659   0.441   0.989  0.2118  0.0520  0.0744
26870W        W43131   7.985   1.971  13.997  0.1067  0.1471  0.2005
26871W        W43132  17.357   9.006   1.822  0.1140  0.4645 -0.0011
26872W        W43133  11.454  17.573   1.088 -0.4026 -0.0368  0.1895
26873W        W43134  14.337   4.350   2.204 -0.0410 -0.3221  0.0263
26874W        W43135   2.952   2.991  12.022  0.0533 -0.1248  0.0208
26875W        W43136  17.710  11.813   1.027  0.0753  0.2085  0.0213
26876W        W43137   5.589   4.716  13.468 -0.0763 -0.0793 -0.0090
26877W        W43138   5.365   9.294  13.864  0.3719  0.3188  0.3318
26878W        W43139   5.588   4.243   5.316 -0.0307 -0.1056  0.2071
26879W        W43140   8.491  15.574  14.364  0.0006 -0.1255 -0.0837
26880W        W43141   4.124   4.571  15.446  0.2841 -0.2797  0.2354
26881W        W43142  10.555   1.129   2.733  0.3331 -0.2078 -0.3543
26882W        W43143  17.715  17.764  12.027 -0.0661  0.2011 -0.3142
26883W        W43144   6.390   5.868  12.476 -0.3978 -0.1840 -0.1726
26884W        W43145  15.386  17.974   2.241 -0.1035  0.1181 -0.0917
26885W        W43146   7.892  10.683   4.823  0.2428  0.6164 -0.1075
26886W        W43147   1.847  10.828   1.756 -0.1176 -0.3165 -0.0016
26887W        W43148   2.442  14.497  10.950 -0.1231 -0.3963  0.0838
26888W        W43149  18.095   6.048   4.306  0.2584  0.0195  0.0801
26889W        W43150   8.099  12.564   2.569  0.1499 -0.2599 -0.0987
26890W        W43151  11.800   2.954   3.951  0.1767 -0.0383  0.2966
26891W        W43152   9.972  12.707   4.887 -0.1541 -0.1141  0.1166
26892W        W43153  17.130  10.517   1.867 -0.0929 -0.4519 -0.2925
26893W        W43154   4.499   9.438  14.045  0.2107  0.1442 -0.0014
26894W        W43155  12.318  11.856  14.732  0.1415  0.1438  0.0678
26895W        W43156   3.790  12.624   5.022 -0.1040 -0.1293 -0.0379
26896W        W43157  15.695   0.584  12.716  0.0469  0.0873 -0.0448
26897W        W43158  11.004  16.719  13.756  0.0764 -0.0107  0.0319
26898W        W43159   2.981  16.727   4.916  0.3196  0.1673  0.1177
26899W        W43160   0.097  16.834   5.216 -0.0503 -0.1625 -0.0157
26900W        W43161   0.112   4.125  13.829 -0.0622  0.1977  0.2206
26901W        W43162   4.892  17.411   3.972 -0.0030 -0.1561  0.0893
26902W        W43163  10.760   9.258  12.251 -0.0856 -0.4500  0.0295
26903W        W43164  14.844   2.473  15.427  0.2162 -0.2112 -0.0303
26904W        W43165  15.683  15.669  10.903  0.2223  0.0604 -0.1504
26905W        W43166   1.318   2.354   2.085 -0.0892  0.3752 -0.1802
26906W        W43167   7.481  14.253   3.530 -0.1390  0.2276 -0.1071
26907W        W43168   9.490   4.314  13.706  0.1851 -0.0412  0.0123
26908W        W43169  14.574  12.035   5.120 -0.4608 -0.2129 -0.3205
26909W        W43170  11.059   4.795   4.846  0.2144  0.3288 -0.0835
26910W        W43171  10.549   9.934   1.541 -0.3426 -0.1820  0.2082
26911W        W43172   6.297   3.750  14.881 -0.2549  0.0692 -0.1359
26912W        W43173  13.242  15.089   2.250  0.0718  0.1654 -0.2430
26913W        W43174   6.245  16.220   4.328 -0.3502 -0.2579  0.1849
26914W        W43175  14.320  10.362  13.473  0.1722 -0.1389 -0.1058
26915W        W43176   3.214  12.717   2.343  0.0524  0.2837 -0.0397
26916W        W43177  15.191  13.041   2.385 -0.2760 -0.1927  0.0502
26917W        W43178  10.058   6.872  14.390 -0.0901 -0.0709  0.0067
26918W        W43179  16.778   3.676  15.195 -0.4578  0.2256  0.1111
26919W        W43180  14.034   8.220  12.738  0.0933 -0.1379 -0.0586
26920W        W43181   2.635   1.333   3.077  0.0898  0.0609  0.0104
26921W        W43182   0.970   7.176  11.415  0.1303  0.3129 -0.0536
26922W        W43183   3.056  12.025   1.635  0.0601  0.1293 -0.3741
26923W        W43184  15.591  13.582  11.679  0.2629 -0.1332  0.1358
26924W        W43185   6.295  10.625   2.130 -0.0020 -0.0286  0.0550
26925W        W43186  12.714   0.661   3.034  0.0305 -0.0157 -0.1862
26926W        W43187  13.269   0.307   3.383  0.3270 -0.0848 -0.1348
26927W        W43188   6.424   0.581  15.065  0.0595 -0.2063  0.0967
26928W        W43189   5.741  11.175  15.388  0.3711  0.0302 -0.0826
26929W        W43190  11.128  18.611   5.401 -0.0771 -0.0291  0.0837
26930W        W43191   2.074   8.142   0.380  0.0514  0.1412  0.0862
26931W        W43192  17.915   2.100  14.082 -0.2269 -0.1426 -0.3425
26932W        W43193   1.233   0.365   3.138 -0.0228  0.0630  0.1984
26933W        W43194   7.677   5.784  11.433 -0.0845  0.0383  0.0935
26934W        W43195   0.552  13.294  15.295 -0.2769 -0.0482 -0.0467
26935W        W43196  10.612   2.273   3.360  0.0323  0.0344 -0.2777
26936W        W43197   3.699  14.868   2.193 -0.2078 -0.1385  0.1548
26937W        W43198  18.197   7.782   2.642 -0.1944  0.0929 -0.3458
26938W        W43199   1.117  18.820  12.922  0.5164 -0.0677 -0.1742
26939W        W43200   7.853   1.682  11.576  0.1418 -0.0056 -0.2204
26940W        W43201   1.811   8.506  11.131  0.0588 -0.0654  0.1590
26941W        W43202   2.282   2.456   2.599 -0.2932  0.1630  0.0828
26942W        W43203  11.018  16.851   5.610  0.2373 -0.1480 -0.1275
26943W        W43204   3.180  15.469   2.983  0.1611  0.0007  0.1169
26944W        W43205   5.374  10.106   4.572 -0.0273  0.0973  0.2612
26945W        W43206   2.499  16.545   1.766 -0.2442  0.0762  0.4059
26946W        W43207  16.944  14.350   4.929 -0.0124 -0.2854  0.4044
26947W        W43208   9.982  11.666  13.060  0.0559  0.0367  0.0216
26948W        W43209  18.025   9.068  13.841  0.0903  0.1358  0.2165
26949W        W43210   6.692   0.283   1.079  0.3692  0.1332 -0.2531
26950W        W43211   3.409  16.628   5.211  0.3118 -0.4537  0.1705
26951W        W43212   8.578  18.401   3.969  0.0924  0.1849  0.1427
26952W        W43213   7.791   5.230   4.898 -0.3537  0.2051 -0.0531
26953W        W43214   4.835  10.337  12.426 -0.2023 -0.1512 -0.0703
26954W        W43215   2.701   4.644  15.078  0.2062  0.0063 -0.0711
26955W        W43216  15.546  14.586  14.539 -0.1794  0.2653  0.1106
26956W        W43217  11.708   6.928  12.579  0.0535 -0.2802  0.0837
26957W        W43218  12.348  12.658   1.363 -0.0557  0.2860  0.1106
26958W        W43219  10.199   6.399  12.324  0.1238  0.1233  0.0951
26959W        W43220  12.938   9.077   4.277  0.2194 -0.1105 -0.1653
26960W        W43221  18.763   8.774  15.261  0.1776  0.0276  0.1318
26961W        W43222   5.067   3.613  14.052 -0.1871 -0.1501 -0.0234
26962W        W43223   6.013  18.422   3.187  0.1225 -0.0510  0.0583
26963W        W43224   2.166   5.525  14.152 -0.1432 -0.0016 -0.1181
26964W        W43225   6.811  16.844   2.988  0.1166 -0.0212 -0.0081
26965W        W43226  16.062   4.081   1.447 -0.0770 -0.3809 -0.3068
26966W        W43227  10.822  12.032  12.262  0.0692  0.2661 -0.0539
26967W        W43228  12.285   0.416  12.024 -0.5826 -0.1585 -0.1628
26968W        W43229  17.735  13.029   3.886  0.1540  0.1446 -0.0198
26969W        W43230   3.431   3.113  14.491  0.1815 -0.0464 -0.0078
26970W        W43231  13.228   4.614   4.796  0.1350  0.3952 -0.4222
26971W        W43232  12.370  17.370  14.707  0.1912  0.3110 -0.1641
26972W        W43233   9.094   8.017   0.822  0.1698 -0.2393  0.1449
26973W        W43234   4.374   1.384  12.416 -0.2671  0.1870  0.1648
26974W        W43235  14.027   2.590   5.055  0.0723 -0.0331 -0.1053
26975W        W43236  17.880  16.932  15.642 -0.0514  0.1803 -0.0015
26976W        W43237  16.221   3.556  15.220  0.2251  0.0795 -0.2409
26977W        W43238  11.337   8.178   5.019 -0.1410 -0.0106 -0.1908
26978W        W43239   7.843  18.700   0.723  0.1376 -0.0562  0.1038
26979W        W43240  12.944   2.078   1.017  0.2377  0.1417  0.0390
26980W        W43241  15.290  14.974  14.327  0.0088 -0.1450 -0.1032
26981W        W43242   7.052   7.829   3.400  0.0274  0.0551 -0.0607
26982W        W43243  16.568   8.121   3.936  0.1101  0.4346 -0.1463
26983W        W43244  15.658  15.561  15.343 -0.1120 -0.0976  0.0935
26984W        W43245   1.500   1.189   2.848  0.1798  0.0162  0.3700
26985W        W43246   5.535  12.549  13.420 -0.1698  0.0051 -0.1442
26986W        W43247   7.119  12.746   2.866 -0.0244  0.0035  0.0022
26987W        W43248  14.385  15.908   1.834 -0.0796  0.0722  0.0390
26988W        W43249   5.062   8.467  10.563 -0.2973 -0.0622  0.1953
26989W        W43250   4.020   6.884   4.095 -0.0944  0.0136  0.2438
26990W        W43251   6.969  16.670   2.397  0.0678 -0.0352 -0.2288
26991W        W43252  17.066   2.134  12.240  0.0171 -0.0570 -0.2574
26992W        W43253  17.558   0.033   1.873 -0.0889  0.1844  0.1008
26993W        W43254   3.833  13.208  11.378 -0.3375 -0.0372  0.1489
26994W        W43255   7.180   2.846  15.210  0.0106 -0.2280 -0.0504
26995W        W43256   2.958   6.641   2.607 -0.0715  0.4511 -0.1545
26996W        W43257  15.566  15.926   1.074  0.1423  0.3249 -0.0199
26997W        W43258   9.987   7.300  14.042 -0.0277 -0.0395 -0.1164
26998W        W43259  11.340  15.032  10.320 -0.0981  0.1308 -0.2971
26999W        W43260  11.506  17.822   5.011  0.0807  0.2214 -0.1545
27000W        W43261  10.186  17.298   2.606  0.2302  0.0719  0.2033
27001W        W43262  11.539  17.501   3.368 -0.0499  0.3084 -0.0273
27002W        W43263   8.411  18.105   2.926 -0.1131  0.1566 -0.0135
27003W        W43264  15.285  15.367  14.668 -0.0371 -0.0832  0.1092
27004W        W43265   7.301   9.353  14.123  0.0574  0.1382  0.1209
27005W        W43266  11.018  18.255   3.480 -0.1068 -0.0780  0.0488
27006W        W43267   4.648   0.736  14.450 -0.0934 -0.1855  0.0407
27007W        W43268  10.645   2.189  11.681 -0.0510 -0.0227  0.0361
27008W        W43269   5.314  15.545  14.418  0.1018  0.2582 -0.1328
27009W        W43270  17.442  18.255   5.249  0.3018  0.0578  0.2352
27010W        W43271   1.350  14.368  13.258  0.0122  0.0337 -0.0166
27011W        W43272  14.054  12.056  12.657  0.0325  0.4569  0.1438
27012W        W43273   0.790  15.425   3.567  0.1626 -0.0962  0.2284
27013W        W43274  18.211   2.947  11.687 -0.4763  0.0869  0.2848
27014W        W43275  13.300   0.228  14.412 -0.0150 -0.1307 -0.1610
27015W        W43276  14.957  13.245   5.839 -0.1317  0.1468 -0.0656
27016W        W43277  13.499   6.442  14.743 -0.3494  0.1850 -0.1255
27017W        W43278   6.213  17.510  15.500 -0.1437  0.0189 -0.2264
27018W        W43279   6.086  14.910   2.020 -0.2323  0.0020  0.0948
27019W        W43280  16.829   3.508   2.440 -0.0366 -0.1647 -0.1487
27020W        W43281  12.329   9.288  10.302  0.2122  0.0510  0.3249
27021W        W43282   5.428  12.278   5.697 -0.0962 -0.1340  0.1589
27022W        W43283   9.509   8.325  12.442  0.3345 -0.0857 -0.0697
27023W        W43284   9.389   9.244   5.462 -0.0794  0.0970 -0.0539
27024W        W43285  13.300   1.349  13.146  0.2940 -0.2776 -0.3304
27025W        W43286  14.423  11.048   5.106  0.1365 -0.0513  0.0068
27026W        W43287   5.095   6.273   2.656 -0.0545  0.0281  0.1902
27027W        W43288  16.982   6.627  12.172 -0.2382  0.1175  0.1994
27028W        W43289  12.069   0.593   4.848  0.1534 -0.1566 -0.1111
27029W        W43290   2.693  16.322   2.986 -0.1562 -0.1769  0.1257
27030W        W43291  10.679  17.444  10.147 -0.1037 -0.0738 -0.0622
27031W        W43292  11.680   4.374  13.515  0.2934  0.2226 -0.1080
27032W        W43293  17.985  17.192  13.770 -0.0348  0.1436  0.0334
27033W        W43294   3.001  13.548   2.530  0.1385 -0.0845 -0.1628
27034W        W43295  17.965  12.807  11.498 -0.1593 -0.1791 -0.1324
27035W        W43296  12.303  16.561  13.576 -0.0154  0.2644  0.2418
27036W        W43297   1.014  13.562  15.544  0.1366  0.2219 -0.1161
27037W        W43298  13.171   9.362   1.353  0.2291 -0.0640  0.2090
27038W        W43299   6.103   6.669  10.642 -0.1049  0.0659 -0.0682
27039W        W43300  17.961   5.495  15.267  0.3355  0.2209 -0.1692
27040W        W43301   7.539   0.437  10.718  0.1018  0.1247  0.2565
27041W        W43302  14.268  14.168   3.551  0.0206  0.0413  0.1673
27042W        W43303  17.106  15.849   9.729  0.1907 -0.1277 -0.2330
27043W        W43304  15.351   4.077  11.973  0.4216  0.0857  0.1042
27044W        W43305  18.258   9.629   4.454 -0.2616 -0.0744  0.0200
27045W        W43306  14.513  12.457  11.302 -0.1372  0.3601  0.4058
27046W        W43307   0.264   8.778   3.026 -0.0699 -0.1237  0.0325
27047W        W43308  15.453   1.047   4.433  0.0976 -0.1159 -0.0833
27048W        W43309  10.945  14.282   0.722  0.1362 -0.2177  0.0267
27049W        W43310   8.789   1.821   4.869  0.0720 -0.1305  0.1207
27050W        W43311   2.375   5.161  14.534 -0.0001  0.1191 -0.0580
27051W        W43312   3.349   1.078   3.541 -0.2362  0.0477 -0.0398
27052W        W43313   3.949   7.230   2.915  0.0365  0.0058  0.1547
27053W        W43314   5.877  13.718  12.395 -0.3426 -0.1529  0.1230
27054W        W43315   8.993   5.110   0.425 -0.1368 -0.2508 -0.1314
27055W        W43316   5.920  17.073  11.251  0.2560  0.0669  0.0818
27056W        W43317   4.396   1.465  13.953  0.4121 -0.0604  0.1202
27057W        W43318  16.365   3.501   5.216 -0.0535 -0.0178 -0.0723
27058W        W43319  14.877  10.737  12.534  0.0635  0.4561  0.1579
27059W        W43320   8.320  16.564  14.610  0.1214  0.2533  0.0395
27060W        W43321   8.382  13.702  14.413  0.1484 -0.3151  0.0176
27061W        W43322  15.073   3.726  14.418 -0.2892 -0.2933  0.0915
27062W        W43323  10.554   4.580   3.606  0.2087  0.3517 -0.0770
27063W        W43324  18.231  15.320  12.949  0.0349  0.0305 -0.0526
27064W        W43325   4.693  13.058   5.551  0.0051 -0.1406 -0.5655
27065W        W43326   9.192   8.035   1.791 -0.0708 -0.1434 -0.1304
27066W        W43327   8.508   3.485  14.810  0.0472 -0.0476  0.0549
27067W        W43328   5.125  12.775  14.807  0.0401 -0.2403  0.3623
27068W        W43329   5.344  18.583  12.528  0.1907  0.1335 -0.3171
27069W        W43330   8.215   6.501   2.224  0.1237 -0.0378 -0.1201
27070W        W43331  14.092   5.271   4.642  0.0465  0.0517 -0.0450
27071W        W43332  16.219  10.494   4.921 -0.1313 -0.0623  0.0507
27072W        W43333  16.488  10.021  13.939 -0.2307 -0.0267 -0.0711
27073W        W43334   7.017   0.396  12.977  0.1539 -0.2500  0.1146
27074W        W43335  18.214  14.225   0.145 -0.2401 -0.2488 -0.1585
27075W        W43336  18.721  17.754  13.921 -0.0339 -0.0110 -0.0606
27076W        W43337  17.753  11.358   2.102 -0.1776  0.2249  0.2901
27077W        W43338  18.702   0.470   9.899  0.1779 -0.0077 -0.2583
27078W        W43339   0.390   9.369   1.712 -0.0415  0.1596 -0.0970
27079W        W43340   4.768  16.476   4.133  0.1297  0.2586  0.2264
27080W        W43341  15.493   9.063   2.190  0.3113 -0.0861 -0.0751
27081W        W43342   4.418   0.726  11.799 -0.0911  0.1704 -0.0435
27082W        W43343   5.191  13.215  14.500 -0.1232 -0.3994 -0.3221
27083W        W43344  11.990  10.449   1.509  0.0458 -0.2425 -0.0245
27084W        W43345   9.274  15.180   1.026  0.0610  0.1269  0.1172
27085W        W43346  15.042   8.015  11.432  0.0268 -0.0171 -0.1118
27086W        W43347  16.880  18.404   0.800 -0.1687  0.0499 -0.0746
27087W        W43348  14.328   6.883  13.786  0.0224 -0.1375  0.0453
27088W        W43349  18.357   0.509  13.898 -0.1072 -0.2387  0.0371
27089W        W43350   8.542   3.487   3.374 -0.2424  0.0352  0.0308
27090W        W43351   6.956   2.487   3.304  0.1277  0.2792 -0.0577
27091W        W43352  11.958   5.099   0.941 -0.0537  0.0150 -0.0001
27092W        W43353  18.755  16.440   1.628 -0.0353  0.1274 -0.0970
27093W        W43354   1.559  11.895  15.498 -0.1886 -0.2708 -0.2691
27094W        W43355  16.330   4.472  14.251  0.0765  0.1878 -0.0269
27095W        W43356   4.564  18.023  15.512  0.0287  0.0210  0.0095
27096W        W43357   4.948   4.610   2.568 -0.0798 -0.1278  0.2454
27097W        W43358  11.689   0.232   4.381 -0.0390 -0.0013  0.2518
27098W        W43359  17.692   3.450   0.737  0.1369  0.0721 -0.1777
27099W        W43360   6.436   8.453   2.304  0.1685 -0.0661 -0.0397
27100W        W43361   8.850  13.085   3.594  0.3149  0.1030  0.2802
27101W        W43362  16.571   3.148  13.211 -0.3572  0.0449  0.0496
27102W        W43363   5.933  14.524  11.464 -0.0099 -0.0767 -0.0680
27103W        W43364  15.940  16.594   4.954  0.0070  0.1362 -0.2735
27104W        W43365   3.744  13.032  11.903  0.1477 -0.2318 -0.1119
27105W        W43366   1.308  15.890  13.600  0.1044  0.3545  0.0173
27106W        W43367   5.157  14.679   4.174  0.2779 -0.2573  0.1997
27107W        W43368   6.449   4.689  15.313 -0.4899 -0.1434 -0.1225
27108W        W43369   0.814   7.256   1.992  0.1553  0.1218  0.1186
27109W        W43370   5.216  15.485  12.356 -0.1916  0.1079 -0.2409
27110W        W43371   3.147  10.950  11.284  0.0972  0.0246 -0.3426
27111W        W43372  18.047   3.288   2.975  0.2323 -0.1437  0.0853
27112W        W43373  16.673   8.457  14.710  0.0620 -0.0870 -0.0225
27113W        W43374   6.862   1.537   2.575 -0.0400  0.2717 -0.2447
27114W        W43375  15.979  15.593  13.014  0.1156  0.3573 -0.2530
27115W        W43376   5.311   3.278   0.798  0.1998  0.2764 -0.2565
27116W        W43377  12.356  11.163  11.423  0.1028 -0.1880 -0.1854
27117W        W43378   5.222  16.347   5.289 -0.0287  0.0599  0.0505
27118W        W43379   8.080  12.547   2.068 -0.1086  0.0841  0.1304
27119W        W43380   0.596  14.335   0.427  0.2854 -0.0207  0.1251
27120W        W43381   3.769   9.205  14.405  0.5760  0.3549  0.0215
27121W        W43382  13.182   2.925  12.354  0.1034 -0.3659  0.2906
27122W        W43383   0.677  18.180  12.107 -0.1586  0.1543 -0.1399
27123W        W43384  11.190  18.332   4.875 -0.2319 -0.3068  0.1554
27124W        W43385  14.689  16.979   4.511 -0.0448 -0.0774  0.2765
27125W        W43386  12.364  13.852  13.224  0.0747 -0.1277 -0.2730
27126W        W43387   1.797   8.001   5.730  0.3670  0.0355  0.0355
27127W        W43388   3.395   3.553   1.347 -0.3663 -0.0050  0.1295
27128W        W43389   3.460  17.854  11.954  0.0471 -0.1210  0.0969
27129W        W43390   0.512  10.446   1.060  0.1825 -0.1905 -0.3465
27130W        W43391  16.603   3.450  11.307 -0.3969  0.0121  0.0735
27131W        W43392   6.905  10.695  13.956 -0.1603 -0.0945  0.2088
27132W        W43393   9.270   6.155  12.385  0.2596 -0.0771  0.1499
27133W        W43394  18.126   0.479   2.508 -0.2140 -0.1131  0.0737
27134W        W43395  11.849   0.466  10.717  0.0134 -0.1970 -0.0622
27135W        W43396   4.609  13.306   3.490  0.0327  0.0071  0.0284
27136W        W43397   2.360   3.225  13.804 -0.2001  0.0126  0.0316
27137W        W43398  11.352  10.887   4.970 -0.1538  0.0685 -0.0232
27138W        W43399   8.433   6.071   5.032  0.3505 -0.3683  0.2168
27139W        W43400   2.319   1.972  12.661 -0.0632 -0.2393 -0.1517
27140W        W43401   2.171   7.073   4.433  0.0088  0.0006 -0.0396
27141W        W43402   3.840  16.041   1.412 -0.1561 -0.2234 -0.1373
27142W        W43403   8.133  14.857   2.054  0.0685  0.6455 -0.0433
27143W        W43404  14.858  16.870   1.523  0.0642  0.1101  0.0252
27144W        W43405   1.683  11.163   1.430 -0.2380  0.3166 -0.2271
27145W        W43406  10.821   3.937  15.131  0.0444 -0.0422 -0.0267
27146W        W43407  15.538  14.543   4.981  0.0831 -0.2633 -0.4573
27147W        W43408   1.552  11.137   0.907 -0.1636 -0.0864  0.1166
27148W        W43409   7.050   2.276  13.404 -0.0645  0.0286 -0.1073
27149W        W43410  11.083  18.284  13.831 -0.0876 -0.0212  0.3878
27150W        W43411   9.133  14.393  13.488  0.3453  0.1912  0.0775
27151W        W43412   9.960  18.011  12.706  0.0418  0.0009  0.0030
27152W        W43413   5.714   2.258   0.029  0.2970  0.0009 -0.0912
27153W        W43414   9.384   4.965  15.260  0.0096 -0.0018  0.1762
27154W        W43415   5.263  17.701  13.529  0.2102  0.2039 -0.1062
27155W        W43416   5.420  12.401  11.581 -0.0133  0.1798  0.0144
27156W        W43417   1.186   0.764   3.922  0.0610 -0.1111 -0.2826
27157W        W43418   9.943  16.414  15.529 -0.0354 -0.0115  0.0461
27158W        W43419  16.283   5.256   4.124  0.1548 -0.1391 -0.0214
27159W        W43420   6.327  15.098   3.104  0.1788  0.1026 -0.0270
27160W        W43421  17.354   6.530   0.598 -0.0581 -0.3423  0.0660
27161W        W43422   3.882  16.719  12.138 -0.1905  0.0613 -0.0245
27162W        W43423   2.188  15.056   3.111  0.1188  0.1254 -0.2059
27163W        W43424  13.966  12.950   3.002 -0.1162  0.0711  0.0886
27164W        W43425   6.496   1.562   1.639 -0.0091 -0.0405 -0.1195
27165W        W43426   5.855   9.819  13.409 -0.3510  0.1044 -0.0534
27166W        W43427  13.508   8.512  14.755 -0.2201 -0.1541 -0.1336
27167W        W43428   1.040   8.404   4.688 -0.2325  0.0148  0.0519
27168W        W43429  16.710  13.201  13.174 -0.0316 -0.0684  0.2010
27169W        W43430   4.572   2.997  14.384 -0.4378 -0.0207  0.1274
27170W        W43431   5.657   3.126  12.857  0.0255  0.0533 -0.1050
27171W        W43432  14.422   3.323   2.045  0.1527  0.1349  0.4236
27172W        W43433   0.366   8.884  13.425  0.1531  0.1776 -0.0315
27173W        W43434   0.982  18.795   5.733 -0.1671 -0.2957  0.0763
27174W        W43435  13.545  18.547  13.240 -0.2182 -0.1215  0.2920
27175W        W43436   2.166   9.775   4.019 -0.3117 -0.0352  0.0236
27176W        W43437  11.052  14.809  12.968  0.3291 -0.1860 -0.1407
27177W        W43438   5.250   5.617   3.599  0.0730  0.0473 -0.0394
27178W        W43439   4.933  17.993  13.819 -0.1566  0.0482 -0.1078
27179W        W43440   0.208  14.651   0.593  0.1059 -0.3085 -0.0431
27180W        W43441  15.961   7.101   5.309 -0.2341  0.0548 -0.1028
27181W        W43442  16.614   1.602  11.295 -0.3485 -0.0811  0.0593
27182W        W43443  17.751   7.572  12.512 -0.1243  0.1546  0.0691
27183W        W43444  17.831   4.788   4.886 -0.1483 -0.3830  0.1506
27184W        W43445   3.053  12.760   3.309  0.0820  0.1533  0.4139
27185W        W43446  15.900   0.711  15.539 -0.0825 -0.0951 -0.0170
27186W        W43447   1.080  14.132   5.984 -0.0039  0.0656 -0.3047
27187W        W43448  14.342  18.596   4.683  0.0109 -0.0135 -0.1863
27188W        W43449   3.049  17.397   0.918  0.3220  0.3516 -0.1653
27189W        W43450   8.818  11.813  12.756 -0.4016 -0.1858 -0.1384
27190W        W43451  14.822  11.293   4.786 -0.2133  0.0868  0.3031
27191W        W43452   1.704  11.706  14.240  0.1356 -0.0436 -0.0068
27192W        W43453  11.196   7.061  12.590 -0.2577 -0.2472 -0.3141
27193W        W43454  12.449   2.779   0.742 -0.0746  0.0228 -0.0954
27194W        W43455  12.280   1.212   1.064  0.2213  0.1697  0.3793
27195W        W43456  13.504   8.050  10.878  0.2432 -0.0424  0.1092
27196W        W43457   7.879   0.370  13.267  0.1034  0.1624  0.2680
27197W        W43458   9.572  15.365  13.981 -0.0293  0.1193  0.2232
27198W        W43459   6.374  14.283   5.901  0.0891  0.1385  0.0149
27199W        W43460   2.005   5.889  11.033 -0.0293 -0.0387  0.1233
27200W        W43461  17.404  16.892  11.672 -0.0856  0.0571 -0.1375
27201W        W43462   0.816  10.012   0.671 -0.1733 -0.0307 -0.1860
27202W        W43463   3.047  15.348   4.155  0.3368  0.0422 -0.3344
27203W        W43464  12.861  10.903   1.192  0.0627 -0.2066  0.0340
27204W        W43465   9.894   6.766   4.179  0.2466 -0.0841 -0.0688
27205W        W43466  17.043   4.744  10.885  0.0283  0.0134 -0.0318
27206W        W43467   1.383  15.096  12.201  0.3523 -0.0534 -0.0092
27207W        W43468   8.233   2.653  12.642  0.2670 -0.1529  0.0259
27208W        W43469   1.540   6.208  10.961 -0.2729 -0.5386  0.0149
27209W        W43470   8.155  17.835  12.936  0.2430 -0.0225  0.0075
27210W        W43471   0.489  13.640  13.805 -0.2376  0.2620  0.0317
27211W        W43472   6.622   6.407   0.562  0.2555 -0.2151  0.2282
27212W        W43473  17.668   5.547  11.330  0.0946 -0.1674  0.1960
27213W        W43474  15.863   9.332   0.381 -0.1086  0.0005 -0.0284
27214W        W43475  16.672  11.235   4.605  0.1204 -0.1459 -0.4342
27215W        W43476   8.709  16.425  13.272  0.0388 -0.1018  0.2217
27216W        W43477   2.177   0.331   4.822 -0.1965  0.1145 -0.0224
27217W        W43478   5.482   7.098  15.440  0.0871  0.0183  0.0898
27218W        W43479   6.002  18.203  13.569  0.0744  0.2564 -0.1145
27219W        W43480   1.210  10.709  12.711  0.0870  0.0749  0.1629
27220W        W43481  16.344   4.368  10.678  0.2387 -0.1193  0.1124
27221W        W43482   0.917   8.106  11.366  0.4189  0.1393  0.1241
27222W        W43483  14.491  10.528  10.361  0.0355  0.2083 -0.0249
27223W        W43484   2.580  12.315  13.853 -0.0112  0.1483  0.0837
27224W        W43485  14.559   4.311  15.437 -0.4523  0.0333 -0.1898
27225W        W43486  16.929  13.292  14.434  0.1489 -0.1712  0.0022
27226W        W43487  18.692  11.913   1.009 -0.2751  0.0861 -0.0072
27227W        W43488  15.315   9.067   3.054 -0.0406  0.1115  0.0475
27228W        W43489   5.434  11.721   1.256 -0.0742  0.2685 -0.1423
27229W        W43490  11.335   1.661   1.034 -0.1562  0.1578  0.1938
27230W        W43491  18.098  18.023  13.952  0.2623  0.1903  0.0862
27231W        W43492   1.282   8.566   2.248 -0.1470 -0.0259 -0.5697
27232W        W43493   7.427  13.789  12.431 -0.1603 -0.1971  0.1084
27233W        W43494   3.170   2.537   4.658  0.4661 -0.0896 -0.0196
27234W        W43495   7.991  13.139   5.058  0.0725  0.0690  0.1149
27235W        W43496   7.682   5.403  13.325  0.2173  0.3156 -0.1320
27236W        W43497   2.483   9.436   2.627  0.1523  0.1865  0.0555
27237W        W43498  15.973   0.300  14.314  0.3892  0.1220 -0.0700
27238W        W43499  17.714   2.113  13.479  0.2116  0.0125 -0.1000
27239W        W43500   3.682  11.506   2.886  0.0961  0.1965 -0.0827
27240W        W43501   7.695   3.189   0.111  0.2071 -0.0476  0.1552
27241W        W43502   9.415   6.991  12.240 -0.1521 -0.1913  0.2543
27242W        W43503   0.600  12.724   5.079  0.0496  0.0338  0.1353
27243W        W43504   4.438  17.855  14.708  0.1140 -0.1309  0.3672
27244W        W43505   2.524   5.825   0.228  0.3902 -0.1078  0.0535
27245W        W43506  17.161   6.297  13.539  0.2410  0.0822  0.2227
27246W        W43507   8.691   5.580  11.390  0.2125 -0.2827  0.0458
27247W        W43508   9.833  16.499  13.847 -0.2068  0.0158  0.2020
27248W        W43509   9.287   3.026   5.173 -0.2260  0.1052  0.1084
27249W        W43510  14.959   1.042  14.572 -0.1041  0.1570  0.3614
27250W        W43511   5.812  12.073   1.061  0.0809 -0.0712  0.3211
27251W        W43512  13.864   2.334  15.452 -0.0521 -0.0593 -0.0281
27252W        W43513   1.437   4.086   2.016  0.0567  0.2091  0.0223
27253W        W43514  18.687   4.041  11.273 -0.1520  0.0360 -0.0934
27254W        W43515   2.021  14.455   0.024  0.0308 -0.1397  0.0306
27255W        W43516  10.101   5.925   0.163 -0.2397  0.3199  0.0002
27256W        W43517   5.669   3.534   3.383 -0.2836 -0.1087 -0.1578
27257W        W43518   8.803  10.147  15.515 -0.1545 -0.1266  0.0127
27258W        W43519  13.208  16.288   1.338 -0.1478 -0.0166  0.1858
27259W        W43520  18.197  16.747  13.386  0.0890  0.0079 -0.0281
27260W        W43521   0.688   0.859  13.700  0.0904 -0.2425 -0.1177
27261W        W43522   0.571   2.407   1.160  0.0657 -0.2233  0.0947
27262W        W43523   5.597   5.294  11.754  0.2097  0.1110  0.4083
27263W        W43524   2.586   9.957   0.676 -0.3216  0.2107  0.0973
27264W        W43525   9.114  13.790  15.155  0.1181 -0.0846 -0.0762
27265W        W43526   8.204   7.974  11.579  0.0777 -0.2698  0.0407
27266W        W43527  10.813  12.854   3.230 -0.2946 -0.0109  0.0439
27267W        W43528   5.108   2.863   3.384 -0.3800  0.2335 -0.1452
27268W        W43529  18.035   8.211  14.756 -0.2199 -0.3030 -0.1759
27269W        W43530  17.767   1.008   4.548 -0.3247 -0.0636  0.0008
27270W        W43531  18.468  16.297   5.738  0.0728  0.1799 -0.1818
27271W        W43532   1.294   1.931  14.893 -0.2279 -0.0048 -0.0447
27272W        W43533  12.014  16.730   3.313  0.0438 -0.0278  0.2400
27273W        W43534   0.039  12.815  13.783 -0.0368  0.1143 -0.1858
27274W        W43535   7.918  11.952  10.911 -0.0508  0.4749 -0.2939
27275W        W43536   3.309   5.185  14.417  0.0645  0.5545 -0.0122
27276W        W43537  10.820  15.414  14.528 -0.0964 -0.0623 -0.2152
27277W        W43538   6.384  17.791  15.030  0.0866  0.1295 -0.1209
27278W        W43539   1.726   7.133   1.500  0.0425 -0.2756  0.0982
27279W        W43540   9.906  11.836  12.122 -0.2214 -0.1508  0.3408
27280W        W43541  17.191   7.939  12.695  0.1830 -0.0263  0.0754
27281W        W43542  11.359   6.219  14.300 -0.2510  0.0556  0.1559
27282W        W43543  16.199  13.242   1.403  0.3078  0.1374 -0.0972
27283W        W43544   5.286   1.138   4.987 -0.1993  0.0395  0.4374
27284W        W43545   5.246  15.405   2.968 -0.4220 -0.0971  0.2297
27285W        W43546   4.866  13.023  12.647  0.6667 -0.0513  0.1859
27286W        W43547  11.033   1.297   4.383 -0.1162  0.1572 -0.0220
27287W        W43548  17.313  14.690  13.280 -0.0313 -0.1101  0.3325
27288W        W43549   5.436  17.945   1.287 -0.2336 -0.1169  0.0365
27289W        W43550  18.829   7.063   3.259 -0.1211  0.1600  0.0966
27290W        W43551  10.776  17.466  13.236 -0.0150  0.2729  0.0720
27291W        W43552   7.733  16.166   2.116 -0.2983  0.2664 -0.2069
27292W        W43553   3.138  11.489   6.229  0.2552  0.0850 -0.0551
27293W        W43554  10.541  14.464   4.086 -0.0581 -0.2383  0.1072
27294W        W43555  13.832  10.347   4.432 -0.1050  0.0258  0.1545
27295W        W43556  10.246   7.756  14.356  0.0202 -0.1773  0.4219
27296W        W43557  16.867  16.648   1.966  0.1588 -0.0864 -0.1181
27297W        W43558  16.468   7.705   3.666  0.1721  0.2462 -0.1285
27298W        W43559  16.448   1.593  15.587  0.1923 -0.2106 -0.1798
27299W        W43560   7.253   7.613  14.729  0.1099  0.0567  0.0119
27300W        W43561   5.863   1.165   2.860 -0.2223  0.3410  0.0354
27301W        W43562  14.906  16.180   0.051 -0.3684  0.0074  0.3095
27302W        W43563   4.537   1.358  14.607 -0.2197  0.1166 -0.0168
27303W        W43564   2.621   3.764  10.676 -0.0047  0.0591  0.0757
27304W        W43565   0.878  15.837  14.967  0.1053  0.0486 -0.4545
27305W        W43566   7.695  14.144   3.135 -0.0812  0.4466  0.3293
27306W        W43567   3.244  12.922   3.741  0.6692 -0.2000  0.4371
27307W        W43568   9.436  10.559  15.418 -0.0923 -0.2378  0.1534
27308W        W43569  17.571  12.139  15.303 -0.0230 -0.2358 -0.2157
27309W        W43570   8.294   9.445  11.694 -0.2012  0.0712 -0.0773
27310W        W43571   3.219  10.027   5.338  0.0978  0.1790 -0.1057
27311W        W43572   7.548   4.097   4.463 -0.3379  0.1314  0.1407
27312W        W43573   6.330   7.581  13.280  0.3962 -0.0350  0.1461
27313W        W43574   0.805  12.255  12.444 -0.1030  0.1371 -0.3187
27314W        W43575  16.901   6.977  14.525 -0.2306 -0.1195  0.1596
27315W        W43576   8.831   8.411   0.960  0.1735 -0.1394  0.1141
27316W        W43577  15.580   1.348   0.155 -0.0305 -0.1015  0.2420
27317W        W43578   3.846   4.498  14.089 -0.1750 -0.3443  0.0864
27318W        W43579  15.267  10.780  11.521 -0.2472 -0.0108  0.0207
27319W        W43580   2.387  15.910   0.268 -0.1673  0.0781  0.0703
27320W        W43581   3.219   8.154  13.614 -0.0017  0.1134  0.0892
27321W        W43582  11.631  17.415  12.836 -0.0858 -0.0182 -0.2533
27322W        W43583   6.647   1.043   0.607 -0.4461  0.1885 -0.1671
27323W        W43584   5.869  13.291  13.332 -0.0805 -0.2053 -0.1225
27324W        W43585   0.382  10.714   4.011 -0.0778 -0.1243  0.0272
27325W        W43586   4.128  18.195  14.085 -0.5058  0.0580 -0.0806
27326W        W43587   6.073   3.338  11.704  0.1489  0.1581 -0.0170
27327W        W43588   4.540  14.330   6.251 -0.0281  0.3338 -0.2433
27328W        W43589   6.741  12.617   5.065  0.1382  0.2361 -0.0735
27329W        W43590   5.695  14.676   1.665 -0.2822 -0.0994  0.0051
27330W        W43591  18.131   5.866   3.843 -0.0758 -0.3666 -0.0101
27331W        W43592   0.265  10.361  11.980  0.1201 -0.3286 -0.1627
27332W        W43593  12.417  13.661   2.266 -0.4391 -0.0657  0.2005
27333W        W43594   6.645   9.666  15.121  0.1813 -0.0080 -0.0184
27334W        W43595  17.739  11.144  13.617  0.4455 -0.1813 -0.1141
27335W        W43596  11.810  15.329   3.937 -0.2404 -0.1192 -0.0072
27336W        W43597   5.281   6.374   3.101 -0.0680 -0.1799 -0.0636
27337W        W43598  18.573   0.654   3.476 -0.4167 -0.2733  0.2249
27338W        W43599   9.216  15.920   1.293  0.2225  0.3363 -0.2570
27339W        W43600   0.144   8.541   5.058 -0.2352  0.0433 -0.2923
27340W        W43601  13.575   7.908  14.894  0.0856  0.0789  0.2188
27341W        W43602   1.814  17.348   4.810 -0.0388  0.0458  0.1577
27342W        W43603   9.014   2.617   1.794  0.0042 -0.2171  0.0461
27343W        W43604   6.077  17.601  13.320 -0.1285  0.1577 -0.0875
27344W        W43605  12.151  17.868   1.677  0.0565  0.0472 -0.2643
27345W        W43606   1.409  13.240  13.506 -0.3711  0.0576  0.2912
27346W        W43607   9.700  15.160   4.586 -0.1181  0.1806 -0.1432
27347W        W43608  18.010   0.239   4.669 -0.1107  0.1429 -0.1204
27348W        W43609  12.812   2.880   3.339 -0.1231 -0.0363 -0.0172
27349W        W43610  17.527   3.904  12.649 -0.1300 -0.0766  0.3186
27350W        W43611  15.495   1.014   3.259 -0.0348  0.1404 -0.2052
27351W        W43612  15.652   4.707   3.057 -0.0605  0.2507  0.0860
27352W        W43613  16.486   3.022  10.978  0.2163  0.3900 -0.1596
27353W        W43614  18.586   2.034   0.397 -0.1057  0.3438  0.2763
27354W        W43615  17.607  13.823   3.188 -0.1053 -0.0956  0.1028
27355W        W43616  18.646   8.843   2.828  0.2592 -0.1717  0.0119
27356W        W43617   4.129  16.260  15.202 -0.0660  0.0627  0.1435
27357W        W43618   3.244   0.629  15.414 -0.1644 -0.2264  0.0604
27358W        W43619  17.421  17.055  12.708 -0.3273 -0.1980  0.0100
27359W        W43620  14.817  14.255   0.176 -0.0526  0.0886  0.2022
27360W        W43621  17.415  14.056   2.612  0.0310 -0.2017 -0.1633
27361W        W43622  14.632  18.512  12.519 -0.1158  0.1937  0.1430
27362W        W43623  11.158  11.950   0.351 -0.0050 -0.0410 -0.1659
27363W        W43624   9.679   4.522  13.286  0.1095  0.3584 -0.0399
27364W        W43625   8.526  12.616   2.302  0.2768  0.2245  0.0713
27365W        W43626   7.217  10.721   2.165  0.0522  0.2535 -0.6237
27366W        W43627  11.450   7.895   3.504  0.1886  0.0301  0.1282
27367W        W43628  10.655   7.155   1.780  0.0234  0.0278 -0.0311
27368W        W43629   1.583   1.196   0.626 -0.0520 -0.0501 -0.0849
27369W        W43630   8.234  13.168  14.437 -0.1245  0.1227 -0.2979
27370W        W43631   8.134   7.937  14.501  0.0543 -0.1830  0.3530
27371W        W43632  13.408   2.777   4.241 -0.1680 -0.0696 -0.0734
27372W        W43633   5.813  10.234   4.859 -0.2094 -0.3221  0.2487
27373W        W43634  17.223   2.607  12.201 -0.0477 -0.4053 -0.0472
27374W        W43635   1.247   6.614  12.960  0.2341  0.2872  0.0731
27375W        W43636  10.022  11.626  11.648 -0.1655  0.2311  0.0336
27376W        W43637  15.556  13.949  10.915 -0.0884  0.0330  0.1251
27377W        W43638   8.794   9.825   0.318 -0.0867  0.0375  0.2050
27378W        W43639   1.864  17.149  15.435 -0.2506 -0.1484  0.3960
27379W        W43640   7.833  14.478   3.819  0.0245  0.1766 -0.1957
27380W        W43641  16.057   7.146  14.362  0.0818 -0.1079  0.1217
27381W        W43642   6.369  17.457   4.317 -0.0877  0.1208 -0.6678
27382W        W43643   0.855  13.056  11.271 -0.0325 -0.0514  0.1801
27383W        W43644   6.499   6.756   2.088  0.0249  0.1803  0.2349
27384W        W43645  13.028  17.497  13.400 -0.0018  0.0769 -0.1884
27385W        W43646   3.714  14.945  15.127 -0.1871  0.0587 -0.0535
27386W        W43647  12.016  18.332  12.544 -0.2747  0.4117 -0.0990
27387W        W43648  11.060   0.856   2.738 -0.0733  0.3037  0.1179
27388W        W43649  16.787   2.848   1.915 -0.0032 -0.1325  0.1581
27389W        W43650  14.845   0.409  14.054  0.1215  0.0677 -0.0873
27390W        W43651  17.067  13.995   0.143  0.1740 -0.1057  0.1227
27391W        W43652   3.120  17.310   1.399  0.0141  0.1457 -0.1444
27392W        W43653   1.504  18.083   1.273  0.2820  0.0971 -0.1861
27393W        W43654   3.718   3.152  12.627 -0.2447 -0.2391 -0.1319
27394W        W43655  10.414   2.296   2.118  0.0980 -0.3273  0.0966
27395W        W43656   0.407   6.031  14.531 -0.1647  0.1295  0.1049
27396W        W43657  15.352   7.791  11.874  0.1488  0.1601  0.1263
27397W        W43658  10.120  12.214  14.024  0.0097  0.1874  0.1481
27398W        W43659   2.765  17.220   2.341 -0.2720  0.1765  0.4894
27399W        W43660  11.587   2.821  12.297  0.1183 -0.0907  0.2439
27400W        W43661  16.603  16.996   3.984 -0.2035  0.1604  0.2346
27401W        W43662   9.396  18.785   5.983  0.1357  0.0512  0.1240
27402W        W43663   2.693  11.678   0.793  0.0540 -0.1960  0.1430
27403W        W43664  17.845   8.882   1.661 -0.2804  0.2002  0.0138
27404W        W43665  10.402  16.586   5.395 -0.4458 -0.0428 -0.0340
27405W        W43666   2.901  13.988   5.547  0.1102 -0.3421  0.1662
27406W        W43667   0.567   1.081   4.883  0.2010  0.1243  0.0747
27407W        W43668   7.506   2.954  14.759  0.0688 -0.0359 -0.2613
27408W        W43669  15.465   3.957  14.152  0.2220 -0.1069  0.1378
27409W        W43670   5.825   7.966   2.878  0.0612  0.0869  0.3259
27410W        W43671  16.434   0.330  12.550  0.1981  0.2601  0.1157
27411W        W43672   7.609   5.735   0.633 -0.0133  0.1222  0.0478
27412W        W43673   3.198   4.239  11.788  0.1460  0.2222  0.0683
27413W        W43674   9.299   3.161  12.136  0.1031  0.1816 -0.0287
27414W        W43675  15.738   1.827  13.476 -0.0599 -0.1306  0.3603
27415W        W43676   6.863  16.896   5.388  0.1902  0.0059  0.1326
27416W        W43677   5.678  14.661   4.162 -0.0413 -0.0170 -0.1502
27417W        W43678  14.434  13.632   4.787 -0.3087 -0.0201 -0.0396
27418W        W43679  10.381  15.907   4.196  0.0184 -0.2040  0.0756
27419W        W43680   2.985  18.146   1.446 -0.1732 -0.0113 -0.0185
27420W        W43681   9.432  13.272   0.111  0.0811 -0.1133  0.0555
27421W        W43682   2.203   1.494  12.589  0.3747  0.0870 -0.0181
27422W        W43683   3.495  16.637   4.404 -0.2698 -0.1318  0.2251
27423W        W43684   0.401   6.608   3.592  0.1274 -0.3462 -0.1495
27424W        W43685   7.951  13.944  12.214  0.2358 -0.2015 -0.0482
27425W        W43686  11.754  13.893  11.687  0.0519  0.3835 -0.0894
27426W        W43687  15.969  18.509   2.815 -0.1242  0.0975  0.0823
27427W        W43688  13.275   9.585   1.878 -0.3292 -0.0315 -0.0275
27428W        W43689  17.657  10.822  13.198  0.1018 -0.5923  0.0481
27429W        W43690   3.161  10.864   0.903 -0.0934 -0.2608  0.0032
27430W        W43691   5.905   7.186  11.490  0.0665 -0.1982  0.0705
27431W        W43692  12.670   8.222   4.601  0.0037 -0.1776 -0.2269
27432W        W43693   2.342  14.740  12.214  0.2491 -0.1665  0.0025
27433W        W43694   2.143   7.674   3.202  0.0172 -0.1430  0.1837
27434W        W43695   7.626  17.490   5.293 -0.0904 -0.0153 -0.4512
27435W        W43696   3.012   8.838   1.769 -0.1166  0.1998  0.0514
27436W        W43697   8.523   0.351   4.612 -0.0450 -0.1312  0.1704
27437W        W43698  10.638  16.123   0.011 -0.1492 -0.0874 -0.1636
27438W        W43699  11.240  14.411   0.158  0.1686 -0.1834  0.0123
27439W        W43700  17.790   3.268  11.608  0.2147  0.3136 -0.1564
27440W        W43701  13.962   2.585   3.361 -0.0025  0.0773 -0.1269
27441W        W43702  14.013   3.702   0.128 -0.3677  0.2540  0.1389
27442W        W43703   0.087   5.432   4.222  0.3824 -0.1072  0.0066
27443W        W43704   2.030  15.098   5.312 -0.3073 -0.2823  0.1073
27444W        W43705   7.096   1.828  11.806 -0.0743  0.0957 -0.0339
27445W        W43706   8.889  12.241   3.100  0.1039 -0.4528  0.0280
27446W        W43707  13.025   1.108  12.183  0.0672  0.1760  0.4282
27447W        W43708  17.979  15.974   1.767  0.0892 -0.4461  0.1547
27448W        W43709  12.420  18.273  10.674 -0.1044 -0.0408 -0.0458
27449W        W43710   5.861  15.701   0.849  0.0524 -0.2500  0.0313
27450W        W43711   0.321  12.647  10.546  0.2288 -0.0898 -0.3656
27451W        W43712   6.130  17.629  12.165  0.0959 -0.0146 -0.0147
27452W        W43713   3.569  13.829  13.650  0.1804 -0.0772  0.0709
27453W        W43714   7.776  11.900   1.889  0.1732 -0.0418  0.2305
27454W        W43715  13.835   8.421   2.137 -0.1461  0.1331 -0.1853
27455W        W43716  15.727  14.729   2.726 -0.0687  0.1143  0.2685
27456W        W43717  13.851   6.834  12.581  0.3505  0.1070  0.0780
27457W        W43718   2.930  10.854  12.397  0.1515 -0.0810 -0.1686
27458W        W43719   5.522   4.499   2.402 -0.0308  0.1765 -0.2392
27459W        W43720  16.736   8.242  12.877 -0.0419 -0.1333  0.2533
27460W        W43721   7.078   0.296   3.183  0.1324  0.1336 -0.2553
27461W        W43722   5.545   5.833  11.978 -0.1598  0.2601  0.0061
27462W        W43723  11.968   1.996   4.151 -0.0892 -0.3942  0.2634
27463W        W43724   8.052   5.316  14.843 -0.0861 -0.2428  0.2553
27464W        W43725  13.830   0.568   1.809  0.1939 -0.0492  0.2770
27465W        W43726   1.475  15.813  12.545 -0.0919  0.3173 -0.2478
27466W        W43727   2.652   6.631   5.150  0.3842 -0.4804  0.2105
27467W        W43728   1.454  13.079  11.738 -0.2312  0.3101 -0.1770
27468W        W43729  18.715  15.687   1.048  0.1734  0.0936 -0.1359
27469W        W43730  13.900   8.795  15.535  0.0649 -0.2167  0.0029
27470W        W43731  18.525   1.187  14.250  0.3032 -0.0270 -0.0827
27471W        W43732   8.425  16.167  13.668 -0.0366 -0.0591 -0.3275
27472W        W43733   9.750  18.149  11.834  0.0955 -0.3367  0.0405
27473W        W43734   4.253   3.214   1.798 -0.0594 -0.0176  0.0362
27474W        W43735  17.417  10.268  11.130 -0.0512 -0.0207  0.0069
27475W        W43736   8.349   5.661   5.329 -0.0098 -0.1055 -0.0198
27476W        W43737  17.042   1.232   0.491  0.1466 -0.2847 -0.0811
27477W        W43738   5.292   0.757  13.078 -0.0466 -0.0045  0.0451
27478W        W43739  17.356  15.414   5.989 -0.4276  0.1207  0.0181
27479W        W43740  11.006  14.510  14.232 -0.1695 -0.1736  0.1870
27480W        W43741   6.674  16.239   0.758  0.1191 -0.2006 -0.2957
27481W        W43742   1.585   6.480   2.963  0.0387  0.0319  0.0949
27482W        W43743  11.518  11.343   3.692 -0.2977  0.0728 -0.0347
27483W        W43744   3.706   1.202  14.816  0.1714  0.2390  0.0438
27484W        W43745   6.206  11.527   5.518 -0.3562 -0.2195 -0.1694
27485W        W43746  13.921  12.912   0.083 -0.0450 -0.0386  0.1931
27486W        W43747   6.008  10.779  12.903 -0.0003  0.0364 -0.0552
27487W        W43748   4.491  10.541  11.403 -0.2955  0.0261  0.1146
27488W        W43749  10.306  14.916   1.796 -0.0791  0.2923  0.0534
27489W        W43750   2.619   0.540   4.617 -0.0772 -0.2560 -0.0627
27490W        W43751  18.746   4.578   5.315 -0.2182 -0.0519 -0.0446
27491W        W43752   6.161   0.802  12.747 -0.3813  0.1368 -0.2409
27492W        W43753  17.754   4.055   3.382 -0.1492 -0.0063 -0.0749
27493W        W43754   6.197   3.212  14.748  0.0359 -0.2628 -0.1086
27494W        W43755  11.266  16.442   3.922 -0.1083 -0.0813  0.0492
27495W        W43756  13.980  14.579   2.924 -0.1262  0.0046 -0.2148
27496W        W43757  10.470   8.106   3.350  0.1649 -0.0394 -0.0000
27497W        W43758  13.894  15.170   2.347  0.1852 -0.0586 -0.2709
27498W        W43759   8.018   1.293   3.843  0.1031 -0.2161  0.1557
27499W        W43760  18.824   1.339   0.949 -0.0244  0.0409 -0.0721
27500W        W43761   5.525  15.351   0.237 -0.0641 -0.0672  0.1871
27501W        W43762  16.467   0.971   2.988  0.0638 -0.2849 -0.4885
27502W        W43763   1.677   0.554   3.211  0.1158 -0.1589  0.0485
27503W        W43764  12.754  12.450   3.655 -0.1319 -0.0761  0.0036
27504W        W43765  15.756   3.044  14.797 -0.4518 -0.0558  0.0382
27505W        W43766   5.864   1.884  14.965 -0.2449 -0.1700 -0.4489
27506W        W43767  18.705  16.209   1.188  0.2274 -0.1259  0.0537
27507W        W43768   4.485  14.837  12.999 -0.2879 -0.0734  0.1753
27508W        W43769   4.568   9.507  13.513  0.0019  0.1544 -0.0852
27509W        W43770   8.126  10.716   0.620  0.0503  0.2010  0.0122
27510W        W43771  15.768   9.199   4.733 -0.0310 -0.2185 -0.0125
27511W        W43772  13.009   9.560  11.732  0.0843 -0.0249 -0.0627
27512W        W43773   2.165  15.749   1.454 -0.0362 -0.1623 -0.0603
27513W        W43774  11.784   8.997  13.199 -0.2193  0.0054  0.1766
27514W        W43775   1.506   2.691   0.838 -0.1859  0.3871  0.0085
27515W        W43776  15.273  10.780   2.909  0.0725 -0.2042  0.1375
27516W        W43777  10.652  13.026   9.743 -0.3501 -0.0505 -0.2199
27517W        W43778   5.183   2.995   1.976  0.2028 -0.2506  0.1859
27518W        W43779   1.747  12.223  15.129  0.0375  0.2123  0.1124
27519W        W43780  12.136  15.147   0.095  0.0794 -0.1467 -0.1283
27520W        W43781  14.533  13.406  15.276  0.0304 -0.1019  0.0898
27521W        W43782  14.161   8.179   1.703 -0.0714 -0.0100 -0.0976
27522W        W43783   6.134  16.164   4.784 -0.1391  0.1578  0.5146
27523W        W43784   7.613   4.099  15.425 -0.2321 -0.1496  0.3298
27524W        W43785  15.288  14.983  10.171  0.2824 -0.4178  0.1718
27525W        W43786  18.247   1.195   0.662  0.4579  0.0056 -0.1071
27526W        W43787   4.515   4.328  12.611  0.1686 -0.0676  0.0572
27527W        W43788   4.250  11.427   1.381 -0.1297 -0.0384 -0.2958
27528W        W43789   8.546   4.031   0.015  0.1718 -0.0855  0.0129
27529W        W43790  14.112  12.378   0.949  0.1232  0.0292  0.3848
27530W        W43791  12.522   1.164  14.014  0.3413  0.1223  0.1197
27531W        W43792   5.442   5.895   4.093 -0.1497 -0.1249 -0.4119
27532W        W43793  15.849  13.914  11.952  0.1773 -0.0783  0.0742
27533W        W43794  16.372   6.666   2.325 -0.1443  0.0110 -0.2369
27534W        W43795   8.444  17.804  13.753 -0.2887 -0.0642 -0.0246
27535W        W43796   4.512   4.603   3.466 -0.0390 -0.0036 -0.0389
27536W        W43797  14.613  11.469  11.338 -0.0376 -0.0389 -0.1927
27537W        W43798  11.982   3.671  11.371 -0.1006 -0.1170  0.2683
27538W        W43799   1.239  17.822   4.659 -0.4062  0.2220  0.0755
27539W        W43800   6.821  18.543  13.734 -0.0141  0.3402 -0.1443
27540W        W43801  14.839   8.819   4.524  0.0630  0.2723 -0.1693
27541W        W43802   4.964   5.684   4.861 -0.0203 -0.2197  0.1838
27542W        W43803   6.871  10.311   0.083 -0.0469  0.0721 -0.0336
27543W        W43804   6.852   4.990  12.771  0.0112 -0.0227  0.0898
27544W        W43805   5.521  13.289   2.514  0.0096 -0.2088 -0.4290
27545W        W43806  16.600  12.522   2.587 -0.1708 -0.0892 -0.0977
27546W        W43807  11.459   0.082  13.118  0.0408 -0.1813 -0.1490
27547W        W43808  18.611   1.175  12.760  0.1716  0.1659  0.1368
27548W        W43809  15.847  14.939   3.556 -0.3125 -0.2318  0.1929
27549W        W43810  16.312  11.933   4.585 -0.0212 -0.2013  0.0814
27550W        W43811  10.928  12.364   0.094  0.2928  0.0419 -0.1487
27551W        W43812  10.267   7.359   3.233 -0.2032  0.0542  0.1383
27552W        W43813  15.723  12.036   1.238 -0.1241 -0.2079  0.1901
27553W        W43814   8.636   0.093   4.138 -0.2658  0.3131  0.0346
27554W        W43815   7.173   4.115  14.704  0.0949  0.1437  0.0899
27555W        W43816   8.681   1.871  15.529  0.4645  0.2608  0.1165
27556W        W43817  17.372   8.125  11.715 -0.1902  0.2427  0.0786
27557W        W43818   2.019  13.806  11.952  0.0574 -0.1564  0.2810
27558W        W43819   4.296   0.183   4.823 -0.4149  0.1811 -0.2582
27559W        W43820  15.450   1.914   5.085  0.2111 -0.2767  0.4163
27560W        W43821   7.809   6.477  14.165  0.0712 -0.2619 -0.0352
27561W        W43822  13.257  13.964  11.666 -0.0593 -0.0196  0.1949
27562W        W43823  13.057   0.700   3.766 -0.1683  0.0312  0.0627
27563W        W43824   8.028  16.014  10.024 -0.1195 -0.1119  0.5061
27564W        W43825  17.359   7.550  11.728  0.1377  0.1029  0.0226
27565W        W43826   9.406  18.388   3.901 -0.0296  0.1570 -0.1084
27566W        W43827   0.704  13.657  12.926  0.0952 -0.0249  0.0268
27567W        W43828   5.659   8.533   1.082  0.1554 -0.4114 -0.1742
27568W        W43829   2.643   6.279   2.868  0.0731 -0.0251  0.0413
27569W        W43830  11.307   5.472  14.304 -0.4098  0.1791 -0.4188
27570W        W43831   8.226   1.547  13.994  0.1511 -0.1063  0.0727
27571W        W43832   0.398   6.598   1.674 -0.0650  0.0892  0.0686
27572W        W43833  16.465   4.948   1.864  0.2554 -0.2485  0.2858
27573W        W43834   3.099  15.047   2.130  0.1893 -0.0063 -0.0379
27574W        W43835  15.902   6.936  12.520 -0.1420  0.2464  0.2549
27575W        W43836   4.211   1.015   3.897  0.2723  0.1387  0.0630
27576W        W43837  15.998  14.131   3.525 -0.0215 -0.0508  0.1892
27577W        W43838  16.476   9.908   0.766  0.0295  0.0137 -0.0552
27578W        W43839  18.587   8.120  12.550  0.0256 -0.1233  0.2358
27579W        W43840  10.380  12.036  15.268  0.1822  0.1359 -0.0052
27580W        W43841  11.105   0.243   5.049 -0.0078  0.3108 -0.0976
27581W        W43842   2.379  14.887  13.582 -0.3383 -0.2889 -0.0567
27582W        W43843   4.034   8.755  14.400 -0.1213 -0.1592 -0.0488
27583W        W43844  12.674   7.070   0.300  0.0276  0.1942  0.0757
27584W        W43845   3.730   1.050   3.952 -0.2449  0.2202 -0.1459
27585W        W43846  12.319  10.688  11.374  0.0155 -0.3650 -0.0624
27586W        W43847   2.954   8.343   1.671  0.1862 -0.3148 -0.0091
27587W        W43848  12.795  17.832  15.057  0.0431  0.3541 -0.0905
27588W        W43849   4.174   5.721  11.731  0.3511  0.0416 -0.1692
27589W        W43850   5.460   5.647  15.225 -0.0391  0.2103 -0.3136
27590W        W43851   4.073  13.998  13.472  0.0432 -0.1865  0.4372
27591W        W43852  17.506   4.192   2.249  0.1946  0.0264 -0.1275
27592W        W43853   4.661   0.003   2.125  0.0773 -0.2471 -0.0355
27593W        W43854  17.387   0.173  15.166 -0.1025  0.2292 -0.2863
27594W        W43855   2.560   2.187   3.740  0.1402 -0.2073 -0.2833
27595W        W43856  15.935  17.077   1.320  0.2609  0.1503 -0.5383
27596W        W43857  16.652   9.423   4.284  0.1257  0.0629  0.1412
27597W        W43858   1.817  12.929   2.205 -0.0337 -0.0479  0.2503
27598W        W43859  16.514  14.156   1.224 -0.0261  0.2898 -0.0376
27599W        W43860  11.643  14.250  10.710 -0.3848  0.0983 -0.2005
27600W        W43861  18.796   2.943   1.176 -0.0066 -0.2420 -0.3480
27601W        W43862   4.831   2.824  14.807  0.5467 -0.0099  0.1968
27602W        W43863  18.052  16.245  14.790  0.0129 -0.2901  0.1023
27603W        W43864  17.125  14.007  13.941  0.1780  0.3088 -0.0941
27604W        W43865   4.234   2.414   1.368  0.1528 -0.3415 -0.1786
27605W        W43866   3.521   5.264   1.081  0.0395  0.0844 -0.0805
27606W        W43867  10.035  17.826  14.175  0.2985 -0.1631 -0.2029
27607W        W43868  12.565   5.327  13.236  0.0253 -0.2887 -0.1978
27608W        W43869   1.019   6.504  13.482 -0.3363 -0.0939  0.2892
27609W        W43870   0.067  10.768   4.437 -0.0392  0.0211 -0.2416
27610W        W43871   3.040  12.276  12.688 -0.0065  0.1033 -0.0706
27611W        W43872  10.538   7.554  11.612  0.2054  0.1666 -0.1466
27612W        W43873   4.795   8.408   1.860 -0.0665  0.1550 -0.0918
27613W        W43874  16.058  17.971   0.626 -0.2841  0.0939 -0.3322
27614W        W43875   9.562   8.533  14.305 -0.0432 -0.0436  0.1030
27615W        W43876  10.128   1.044   4.265  0.0986  0.0319  0.0795
27616W        W43877   7.689   6.984   4.158  0.2247  0.4247  0.3238
27617W        W43878  18.520   8.156  14.574  0.3006  0.1166  0.0840
27618W        W43879   2.160  15.293  14.454 -0.2861  0.2948  0.0025
27619W        W43880   5.008  11.178  12.553 -0.1313  0.0786 -0.1572
27620W        W43881   9.815   2.327   2.293 -0.1232  0.2064  0.1907
27621W        W43882   9.312   0.465   2.348  0.0912 -0.0396  0.2111
27622W        W43883   9.639  12.548   4.567  0.1370 -0.0406 -0.0213
27623W        W43884   1.887   2.906  11.205  0.0574  0.2684 -0.0203
27624W        W43885  14.563   3.761   3.528  0.1253 -0.1891 -0.1963
27625W        W43886   9.710  14.250  11.225 -0.0821  0.1365 -0.1447
27626W        W43887  13.611   2.792   2.939 -0.0950 -0.0592  0.1317
27627W        W43888  10.048   4.904   0.312  0.2207 -0.1911 -0.0608
27628W        W43889  10.119   2.765   3.757 -0.3610 -0.0020 -0.0718
27629W        W43890   1.368  13.858   5.590  0.1712  0.3877 -0.0306
27630W        W43891  11.348  16.993  12.926  0.0363 -0.1255 -0.0520
27631W        W43892  10.147   6.007  14.906  0.1857 -0.0678 -0.2122
27632W        W43893  13.648   9.536   1.354  0.0787 -0.0910 -0.0536
27633W        W43894  18.654   9.832   0.991  0.1059 -0.0987 -0.2199
27634W        W43895   0.365   5.859  13.492 -0.0956  0.2072 -0.0132
27635W        W43896   7.744  17.100   0.848  0.0010 -0.1131  0.1144
27636W        W43897   3.728   6.279  12.056 -0.0721  0.0770 -0.1672
27637W        W43898   2.359   1.778   5.449 -0.0320 -0.0299 -0.1167
27638W        W43899   1.848   9.030  10.945  0.1422  0.0488 -0.1263
27639W        W43900   1.850  18.402   4.523 -0.1087  0.3565  0.1738
27640W        W43901   4.318  18.149   1.607  0.2185 -0.0674 -0.3231
27641W        W43902  17.725   0.952  11.772 -0.3557  0.1190  0.0710
27642W        W43903  12.228   4.973   2.557  0.0336 -0.0046  0.2293
27643W        W43904   3.990  17.983  14.706  0.1907 -0.0330 -0.1665
27644W        W43905   9.427   8.722   1.474  0.1471 -0.2178  0.1010
27645W        W43906  15.297   9.209  12.802  0.3257  0.2628 -0.0807
27646W        W43907   2.938   0.217  11.075 -0.1269  0.0967 -0.0288
27647W        W43908   9.452   9.785   3.899  0.0639 -0.1722  0.0533
27648W        W43909   9.328   7.128  15.458  0.1842 -0.0037 -0.0304
27649W        W43910   8.913   2.351   2.224 -0.0703 -0.0870  0.0611
27650W        W43911   4.409   6.549  12.691 -0.2312  0.1641  0.3415
27651W        W43912   9.281  18.508  13.106 -0.1510  0.1617  0.0162
27652W        W43913   8.537  17.966  12.552  0.0727  0.2621 -0.2025
27653W        W43914  15.605  14.937   4.003 -0.2233  0.0595 -0.1591
27654W        W43915   9.903   9.589  14.487  0.2842  0.3760  0.1889
27655W        W43916   4.518   1.049  11.205  0.0193 -0.1553  0.4113
27656W        W43917   8.284   8.733  12.321  0.0728 -0.0725 -0.2414
27657W        W43918   0.916   3.357  10.894 -0.0330 -0.0946 -0.2051
27658W        W43919   6.193   3.593   4.212 -0.0353 -0.1102  0.0986
27659W        W43920  14.661  10.124  14.220 -0.0990 -0.2209  0.3494
27660W        W43921  15.055   6.535   2.380 -0.0500 -0.1632  0.0225
27661W        W43922   7.681  18.116  12.825  0.0802 -0.0961 -0.1216
27662W        W43923  18.479  15.643   4.347  0.0676  0.1137 -0.0073
27663W        W43924  11.008   6.213   3.265  0.1153  0.2060 -0.1172
27664W        W43925   9.891   6.398   2.686 -0.2238  0.0992 -0.0123
27665W        W43926  12.789   7.026  13.110 -0.0453  0.0224  0.1786
27666W        W43927  11.739   5.217  12.039  0.0760  0.2347  0.0136
27667W        W43928   6.854  17.470  12.928 -0.0720  0.3047 -0.0551
27668W        W43929  17.523   3.613  13.175 -0.1738  0.0019 -0.1689
27669W        W43930  11.470   1.407  13.234 -0.1824  0.0546 -0.1685
27670W        W43931  10.434  12.753   0.784  0.3072  0.1260 -0.0573
27671W        W43932   1.822  10.237   1.036  0.2288  0.2557  0.0748
27672W        W43933  14.106  13.221   1.501  0.3388  0.0324  0.0823
27673W        W43934   3.758   7.396   4.122  0.3041 -0.0765  0.2582
27674W        W43935   5.217  16.992  14.663  0.2022 -0.0177  0.1013
27675W        W43936  15.740   4.631   0.232  0.0122 -0.1506  0.0453
27676W        W43937   5.437  15.946  12.101 -0.0479  0.1482 -0.0537
27677W        W43938   9.255  16.970   1.170 -0.0087  0.0528  0.0385
27678W        W43939  14.789  18.031  12.431  0.0663 -0.1787 -0.2198
27679W        W43940  16.746   6.411  15.199 -0.0098 -0.0444 -0.2672
27680W        W43941  18.574  13.832  10.888 -0.2636  0.0091 -0.0335
27681W        W43942   6.631   6.997  15.358  0.2542 -0.1958  0.2288
27682W        W43943   0.569   6.826   2.104  0.3161  0.0378  0.0202
27683W        W43944  10.348  13.710   3.907  0.2714 -0.1069  0.2426
27684W        W43945   7.761  16.123   2.576 -0.1594  0.0884  0.1723
27685W        W43946   6.714  13.985   2.192 -0.1340 -0.1497  0.0656
27686W        W43947  17.352   8.299   4.571 -0.2446  0.0797 -0.3132
27687W        W43948  18.509  15.457   1.803 -0.3183  0.1566 -0.0910
27688W        W43949  14.160  16.505   0.013  0.0697 -0.0248  0.0687
27689W        W43950  14.653   5.851   0.402  0.1867 -0.0891 -0.3052
27690W        W43951  15.596   8.662  11.615 -0.3354  0.0213 -0.2394
27691W        W43952   4.613  10.239   2.308  0.1050 -0.2212  0.2544
27692W        W43953   8.096   8.226   5.033 -0.2889  0.1775 -0.0026
27693W        W43954   4.590   6.254   0.585 -0.1980  0.0017 -0.0101
27694W        W43955   9.854  14.453   0.349 -0.0140 -0.0987  0.0901
27695W        W43956  17.478  15.564   9.983  0.2603 -0.0160  0.2464
27696W        W43957   5.497   4.698  15.199  0.3129  0.1736 -0.1842
27697W        W43958  10.208   0.437   2.231 -0.2431 -0.0910  0.1292
27698W        W43959   7.229  17.900   3.823  0.0041 -0.0601 -0.0810
27699W        W43960  10.619  18.340   3.219 -0.1261 -0.1342  0.3231
27700W        W43961   1.510   0.208   0.380  0.2435 -0.0186  0.2992
27701W        W43962  14.777   0.528  11.260  0.0302  0.1155 -0.2173
27702W        W43963   6.474   1.444  13.454 -0.3150  0.0849 -0.1249
27703W        W43964  15.008   0.346  11.778 -0.0544  0.1478 -0.3488
27704W        W43965  16.092  16.512  11.727 -0.1270  0.0619  0.0504
27705W        W43966   2.917  12.786   1.911  0.0450  0.0936  0.2133
27706W        W43967   9.670   2.943  12.903 -0.1700  0.0541  0.0646
27707W        W43968   7.513  11.695   3.877  0.1517 -0.1152 -0.1789
27708W        W43969  12.948   1.834   0.387 -0.0418 -0.1289  0.0617
27709W        W43970  17.647  15.248  11.510 -0.1693  0.3098  0.0767
27710W        W43971  17.078   3.187  11.371  0.0802 -0.1872 -0.1143
27711W        W43972   9.104  13.057  13.420  0.0867  0.1460 -0.0431
27712W        W43973  14.501  17.230   3.733 -0.0374 -0.2231 -0.0688
27713W        W43974  16.364   5.546  14.018 -0.0076 -0.0723 -0.0069
27714W        W43975  10.762   2.148   1.549  0.1367 -0.3333  0.3425
27715W        W43976   4.058   3.805   0.176  0.1825 -0.2011 -0.1164
27716W        W43977  15.573   7.116   1.879 -0.1779 -0.0134 -0.0788
27717W        W43978  17.993   4.318  11.132  0.1654 -0.1089 -0.3020
27718W        W43979  11.135   6.943   1.836  0.0049 -0.0475  0.0218
27719W        W43980   9.320   3.607  11.319 -0.0428 -0.0151 -0.1607
27720W        W43981  13.476  14.476   1.736 -0.0193  0.3784  0.1385
27721W        W43982   9.996  16.744   4.086 -0.0683  0.1148 -0.2160
27722W        W43983  17.513  11.425   1.149 -0.1724  0.2046 -0.1563
27723W        W43984   7.400  15.348  12.979 -0.0907 -0.2770  0.0289
27724W        W43985  11.859   5.543  15.551  0.0809 -0.1897 -0.2213
27725W        W43986  13.832  17.736   5.436  0.2296  0.1456 -0.2414
27726W        W43987   8.011   3.874   2.097  0.0180  0.0487 -0.1146
27727W        W43988  10.740   3.534  10.416  0.0337  0.0228  0.1429
27728W        W43989   9.088   9.076  13.206 -0.2359  0.3187 -0.2355
27729W        W43990  17.521  12.068  13.130  0.0663  0.1159  0.0525
27730W        W43991  16.782  18.383   4.706 -0.0700  0.2079  0.2009
27731W        W43992   9.610  18.251   2.416  0.1147 -0.0414  0.0500
27732W        W43993  14.200  15.259  13.951  0.1402 -0.2132 -0.3159
27733W        W43994   5.997   9.586   3.585  0.0740  0.0692 -0.2381
27734W        W43995   2.998  16.274  14.639  0.0802 -0.0151 -0.3516
27735W        W43996   7.607   4.928   3.928  0.0417 -0.0883 -0.1406
27736W        W43997  12.022   0.695   1.768  0.2551 -0.0225 -0.2042
27737W        W43998   0.990   8.966   4.961  0.0727 -0.2864 -0.0904
27738W        W43999  18.179  11.257  11.676  0.3225  0.0949  0.0191
27739W        W44000  18.795   7.865   0.312  0.0867  0.1262  0.2705
27740W        W44001  12.967   0.537  10.902  0.1776  0.2590  0.3710
27741W        W44002   6.087   7.679   5.008  0.0543  0.1371 -0.0558
27742W        W44003   9.588   8.122   0.767 -0.2561  0.0778 -0.3653
27743W        W44004   1.075   3.404   3.325  0.0774 -0.1065  0.0996
27744W        W44005  14.774   4.081   3.898 -0.1801 -0.1360  0.2279
27745W        W44006   6.763  10.435   2.220  0.0515 -0.0856  0.0085
27746W        W44007   7.791  11.932  13.793 -0.0195  0.0649  0.0607
27747W        W44008  13.002   5.916   2.027  0.0068  0.0267  0.1600
27748W        W44009  10.115   5.802  12.966 -0.0337 -0.2984 -0.0592
27749W        W44010  14.881  14.698  13.926 -0.1441 -0.4248 -0.0401
27750W        W44011  14.532   3.108   1.373 -0.2714  0.0197  0.0983
27751W        W44012  13.881   9.310  11.777 -0.1892  0.0804 -0.0364
27752W        W44013   2.254   7.463  13.595 -0.4801 -0.0565 -0.2858
27753W        W44014   0.172  11.011  10.592 -0.0453 -0.0166 -0.3022
27754W        W44015  14.385   8.438   2.689 -0.0525  0.1173  0.0293
27755W        W44016   3.243  15.526  12.797 -0.0196 -0.2416  0.0343
27756W        W44017  15.000   3.931  11.596  0.0342  0.0880  0.0729
27757W        W44018   5.976  12.870   1.435  0.0123  0.3787  0.1030
27758W        W44019  12.007  11.322   1.072 -0.1220  0.4210  0.1200
27759W        W44020   4.386   5.009  15.452 -0.1478  0.0663 -0.0468
27760W        W44021  15.381  15.474   3.464 -0.0053 -0.0299  0.1794
27761W        W44022   0.789   9.706  14.485 -0.0702 -0.0087 -0.2129
27762W        W44023   5.951   7.098   0.155 -0.2922 -0.1038  0.2730
27763W        W44024   6.790   3.855  13.135 -0.2520  0.0215  0.0544
27764W        W44025  17.583  18.352  12.122 -0.1933  0.0106  0.1943
27765W        W44026  18.243   0.297  12.046  0.3102 -0.0103  0.0245
27766W        W44027  14.234   1.611   2.571 -0.0281 -0.3904 -0.1062
27767W        W44028   5.225   8.414   0.031 -0.0908  0.0721 -0.0867
27768W        W44029   0.823  14.770   2.260 -0.1070 -0.1551  0.0042
27769W        W44030   5.405   1.898  15.204  0.2537  0.1203 -0.0584
27770W        W44031  14.348  11.521   2.474  0.1220 -0.3280 -0.2389
27771W        W44032   5.466  10.831   1.595  0.0093  0.0627  0.0676
27772W        W44033  15.539   9.102  14.287  0.0108  0.1809  0.0991
27773W        W44034  16.917  11.872   4.870 -0.1894  0.1015 -0.4326
27774W        W44035  16.654  15.978   4.542  0.0456  0.2488  0.0599
27775W        W44036   1.752  12.315   2.113 -0.0018 -0.1541  0.0466
27776W        W44037   6.303  18.612   5.365 -0.2759  0.1830  0.1320
27777W        W44038  16.590  11.170   3.135  0.0445  0.0140 -0.2543
27778W        W44039   6.438  12.618   1.711  0.1717 -0.2103  0.2127
27779W        W44040   5.965  12.625   4.275  0.0983 -0.0119 -0.0538
27780W        W44041   8.077   5.482   3.048  0.3028 -0.0338 -0.1094
27781W        W44042   1.716   4.722  11.944 -0.1335 -0.1903 -0.0136
27782W        W44043  12.109  12.333  15.222  0.0959 -0.1498  0.4176
27783W        W44044  13.994  12.874   1.828  0.0267  0.1504 -0.3715
27784W        W44045   7.154   1.524  14.622  0.1233  0.2265 -0.1355
27785W        W44046  13.141   1.254  12.653  0.4209  0.0466 -0.1799
27786W        W44047  16.927  12.104  13.050  0.1139  0.2560 -0.0440
27787W        W44048   4.453  10.257  13.019  0.2810  0.1504  0.0737
27788W        W44049  13.976  17.746  13.779  0.0090 -0.0559 -0.0809
27789W        W44050  11.272  17.741  11.390  0.0652 -0.0297  0.0275
27790W        W44051   9.866   8.162   2.659  0.0102 -0.2179 -0.0485
27791W        W44052   6.513  15.955   2.993  0.0768  0.0447 -0.0060
27792W        W44053  16.908  15.982  11.342  0.2555  0.1309 -0.1034
27793W        W44054   8.245  14.217  12.718  0.1020  0.0565 -0.0338
27794W        W44055  17.250  10.449  14.806  0.2828  0.0880 -0.0626
27795W        W44056   6.346  13.307   2.789  0.2408  0.0512 -0.2840
27796W        W44057   1.037   1.670   4.194  0.1482  0.4435 -0.1411
27797W        W44058  16.350   1.481   4.745  0.1414 -0.1503 -0.1904
27798W        W44059   3.884   3.541   0.614  0.1127 -0.0212 -0.3000
27799W        W44060   5.576  16.911   3.876 -0.2166 -0.1581 -0.0541
27800W        W44061  13.943  15.022  13.564 -0.0886  0.0895 -0.3079
27801W        W44062  15.915   8.402   2.646 -0.1952  0.1715 -0.1757
27802W        W44063   3.241   5.379   3.761 -0.2576  0.1848 -0.3823
27803W        W44064  14.734  10.631   2.923 -0.2496 -0.4620  0.2484
27804W        W44065   7.714  14.752   1.794 -0.0706  0.0351 -0.0636
27805W        W44066   0.542  10.537  15.545 -0.0131  0.0720  0.1392
27806W        W44067  17.238  18.412  11.746 -0.1435 -0.0049 -0.0174
27807W        W44068   2.314  16.805  13.450  0.1590  0.2003  0.0346
27808W        W44069   6.629   5.527  12.133  0.1462  0.1715 -0.1001
27809W        W44070   4.931   7.239  10.390 -0.3165 -0.2708 -0.4050
27810W        W44071  12.532   8.545  13.024  0.1447 -0.0127 -0.3544
27811W        W44072   6.279  10.643  12.310  0.0090  0.1651 -0.1218
27812W        W44073   6.292  16.977   3.161  0.2879 -0.0545 -0.0058
27813W        W44074   3.686  14.971  15.595 -0.2477  0.1191 -0.0174
27814W        W44075   4.742   4.751   4.936 -0.1318 -0.0273 -0.0463
27815W        W44076   3.413   8.351   0.680  0.1098 -0.2349  0.0755
27816W        W44077   1.095  18.795   0.737  0.0526 -0.0005  0.1352
27817W        W44078   9.098   4.699  12.477 -0.1851  0.2839 -0.2991
27818W        W44079   4.253  12.935   3.727  0.0271 -0.2205 -0.1050
27819W        W44080  12.525  12.948  12.023 -0.0935  0.3685 -0.3024
27820W        W44081   5.118   8.256   2.260  0.0589  0.2474 -0.1984
27821W        W44082   2.866  14.466   2.990 -0.0669 -0.3184  0.0277
27822W        W44083   0.275   6.109   0.061  0.0535  0.0612  0.0501
27823W        W44084   0.010  17.177  10.790  0.0358  0.1300 -0.1465
27824W        W44085   3.700   4.780   0.944  0.2005  0.0447  0.1038
27825W        W44086  14.369   7.719   5.045 -0.2919 -0.0812 -0.0943
27826W        W44087  10.513   2.816  11.387  0.0133 -0.0834 -0.1284
27827W        W44088   1.549  15.178   0.609 -0.0916 -0.1146  0.1918
27828W        W44089   8.787  10.654   3.111  0.0864 -0.0882  0.0223
27829W        W44090   6.765   4.809  14.144  0.0706  0.3844  0.0446
27830W        W44091   0.780  14.017  13.907  0.1704 -0.1732 -0.0044
27831W        W44092   9.041  15.037   3.505  0.1062 -0.1336 -0.0751
27832W        W44093   4.259   7.828  11.177  0.1968  0.1502 -0.1432
27833W        W44094  10.371   6.878   4.410 -0.1096  0.1110 -0.0379
27834W        W44095  13.539   6.952   1.882 -0.0043 -0.0224  0.1100
27835W        W44096   3.190  13.770   3.442  0.0991  0.1038 -0.2060
27836W        W44097  13.251  12.110  14.269  0.1705  0.4741 -0.0073
27837W        W44098   5.430  18.220  15.616  0.1556 -0.0911  0.0738
27838W        W44099   4.021   3.838   1.789  0.2702 -0.3449  0.0134
27839W        W44100   4.030  14.042  11.061 -0.0781  0.0008 -0.0233
27840W        W44101   9.926   5.907  14.415 -0.0521  0.3516 -0.0003
27841W        W44102   7.052  18.105   5.708 -0.0777  0.0068  0.1980
27842W        W44103   9.153  11.580   1.302 -0.1963  0.0759 -0.2390
27843W        W44104   5.368   5.172  15.398  0.0433 -0.1292  0.0777
27844W        W44105   6.459   7.142  14.194 -0.0583  0.0319 -0.0623
27845W        W44106   2.377  12.879   1.581  0.0638 -0.0775  0.0232
27846W        W44107   0.744   9.192  13.343 -0.0921 -0.1344  0.0459
27847W        W44108   5.958  15.264  15.547 -0.1743 -0.0524  0.3462
27848W        W44109   0.987   2.686  13.562 -0.3172 -0.0712  0.2493
27849W        W44110  11.405  10.248  14.165 -0.2208 -0.0067  0.2134
27850W        W44111  10.913  11.196   0.947  0.4384  0.0938  0.1977
27851W        W44112   1.690  17.967  14.460 -0.0542 -0.0044  0.1112
27852W        W44113  14.398   2.634  15.528  0.0101  0.0692  0.0867
27853W        W44114   0.396  18.536  13.493 -0.1765 -0.0191  0.1546
27854W        W44115   0.022  12.083  14.040 -0.2917  0.4083  0.3354
27855W        W44116   8.853   8.502  10.327 -0.0679  0.2219  0.1547
27856W        W44117   0.042   5.143  13.715  0.2276  0.1350 -0.0836
27857W        W44118   6.900   5.616  14.415  0.1618  0.1591 -0.4087
27858W        W44119  18.805   3.471  10.065 -0.1827 -0.0385 -0.1620
27859W        W44120   9.817  10.369   2.032 -0.2215 -0.3107 -0.1179
27860W        W44121   9.965  13.709   2.123 -0.2230  0.2567  0.0113
27861W        W44122  13.968   1.484   1.672 -0.0348 -0.0203 -0.0234
27862W        W44123  17.888   0.373  10.740  0.0744 -0.1569 -0.2768
27863W        W44124   4.196  15.989   3.607  0.1064  0.0308 -0.1307
27864W        W44125  16.845   7.326  11.704  0.0398 -0.1568  0.2880
27865W        W44126   4.848   3.790   4.873  0.3443 -0.1878  0.0795
27866W        W44127  14.595   4.981  11.396 -0.0004  0.3120  0.2692
27867W        W44128  11.596  13.517   1.986  0.2171  0.1206 -0.0420
27868W        W44129   5.537  14.016   5.177 -0.3592  0.0119  0.1850
27869W        W44130   4.618  10.522   4.162 -0.4549 -0.0548  0.0363
27870W        W44131   9.827  15.307   0.994  0.0812 -0.4168 -0.1200
27871W        W44132  15.237   5.776   1.066  0.0735 -0.0230 -0.1243
27872W        W44133   6.377   2.614   3.212  0.0515 -0.0169 -0.0687
27873W        W44134   1.236  14.107   2.563  0.3854  0.0816  0.0568
27874W        W44135   6.487  11.043   0.616 -0.2280 -0.1839 -0.0897
27875W        W44136  10.759  14.415   1.181 -0.0197 -0.0097  0.0773
27876W        W44137   5.753  11.702   2.478  0.4965  0.0196  0.0209
27877W        W44138   2.882  15.231  15.016  0.1655  0.1989  0.1458
27878W        W44139  10.806   9.293   4.333  0.3278 -0.1813  0.1656
27879W        W44140   9.210   1.903  15.613 -0.0759  0.2533 -0.2553
27880W        W44141   4.914   7.224   5.596 -0.1953  0.2497  0.2324
27881W        W44142  13.431  13.541  14.176 -0.0414 -0.0881  0.0640
27882W        W44143   7.517  17.450  14.806 -0.1824  0.0941 -0.0938
27883W        W44144   7.637   8.412   2.726  0.2814 -0.4126 -0.1910
27884W        W44145  17.729   5.742  13.150  0.0636  0.0506  0.0963
27885W        W44146   0.270  10.940  13.085  0.5210  0.2179 -0.0929
27886W        W44147   0.075   5.756  12.499 -0.0383 -0.1673  0.0638
27887W        W44148   4.655   0.004   3.164 -0.1250  0.0563 -0.0842
27888W        W44149  11.376   0.744  14.708 -0.0522 -0.0609  0.1309
27889W        W44150  11.851  15.619   1.549  0.1414 -0.1978  0.1882
27890W        W44151   2.328  18.339  12.701  0.0543  0.2654 -0.0905
27891W        W44152  16.183   5.470   3.697  0.2953  0.0187 -0.0729
27892W        W44153   4.494  14.499   1.977  0.0478 -0.3400 -0.3277
27893W        W44154  17.545   3.315  14.215 -0.1061  0.4681  0.1190
27894W        W44155   4.134  18.781  11.651  0.0545  0.1162  0.1883
27895W        W44156  13.157   4.092  12.060  0.4485  0.1725  0.1627
27896W        W44157  15.628  17.097  14.353 -0.0107  0.1129  0.1969
27897W        W44158   4.365   8.117   3.828 -0.0502  0.0661 -0.0781
27898W        W44159   1.022  10.976  11.779  0.0031  0.1303 -0.3294
27899W        W44160  13.831  16.046   3.965 -0.0702 -0.1085  0.0491
27900W        W44161   1.307  15.984  15.266  0.0473  0.2059 -0.0655
27901W        W44162   5.424   1.420   0.492  0.0156  0.1181 -0.3283
27902W        W44163   1.025   1.913   4.920  0.2238 -0.2434 -0.1109
27903W        W44164  13.379  18.790   2.696 -0.0775 -0.1653  0.0224
27904W        W44165   5.034  15.557  13.665 -0.2114 -0.2468 -0.1011
27905W        W44166  18.119  12.958   4.231 -0.0416  0.0784  0.2720
27906W        W44167   4.551   1.867   6.013 -0.1682  0.2677 -0.2819
27907W        W44168   9.515   6.032   5.569  0.0962 -0.1863 -0.1790
27908W        W44169  12.248  11.295  14.626 -0.2189  0.1893 -0.0092
27909W        W44170   5.671  16.695  12.425  0.0858 -0.2980  0.3454
27910W        W44171   3.513   8.721   4.953 -0.2304 -0.1873  0.0038
27911W        W44172   4.356  15.091   3.993  0.0748  0.0702 -0.0082
27912W        W44173  15.993   9.727  11.755  0.1704 -0.2734 -0.3509
27913W        W44174  12.792   5.998  14.122 -0.1490 -0.1535 -0.1161
27914W        W44175   2.643  16.128   4.641  0.0161  0.4131 -0.0674
27915W        W44176   2.221  17.658  11.161 -0.4044  0.0861 -0.1706
27916W        W44177  13.624   2.740  12.018  0.0110  0.1548  0.4265
27917W        W44178   6.780   0.518   4.405  0.0592  0.0816  0.0084
27918W        W44179   4.163  12.430   3.628 -0.0847  0.0261  0.0371
27919W        W44180   7.869  10.813   5.787  0.1817 -0.0953 -0.3461
27920W        W44181   9.872   8.263  13.233  0.1989  0.0597 -0.2329
27921W        W44182  11.467  18.126   0.977  0.0199  0.1272 -0.2713
27922W        W44183   3.852   8.838   1.502 -0.1767 -0.2586 -0.0293
27923W        W44184  15.365  13.051   0.568  0.2285  0.2047 -0.0596
27924W        W44185   2.102   3.421   0.241 -0.2712 -0.2947 -0.3068
27925W        W44186   5.783  14.399  12.836  0.0615 -0.2429  0.3065
27926W        W44187  11.551   5.850  14.600 -0.1501  0.2384 -0.0586
27927W        W44188   9.031   4.063   0.444  0.2855  0.2530  0.2047
27928W        W44189  13.440   9.809   0.624 -0.0858 -0.0995  0.2250
27929W        W44190  15.569  16.336  15.372 -0.1671  0.0708  0.1163
27930W        W44191  12.000  11.267   3.544 -0.0335  0.3601 -0.1613
27931W        W44192  10.153  15.951  14.767 -0.0943 -0.0741 -0.1901
27932W        W44193  13.955   0.687  11.963  0.2699 -0.0980 -0.4262
27933W        W44194  17.644  11.696   4.216  0.1346  0.0085 -0.3056
27934W        W44195   7.240  12.622   4.924 -0.0070  0.1459 -0.0245
27935W        W44196  11.016   9.182  13.899  0.2776  0.0657  0.0052
27936W        W44197  13.668  17.280   5.634  0.2845  0.4616  0.1831
27937W        W44198   6.181   4.687  11.947  0.1727  0.3017 -0.1656
27938W        W44199   5.200   2.028  14.267  0.3456  0.1226  0.2577
27939W        W44200  16.662   4.272  11.125 -0.0412 -0.2381  0.2428
27940W        W44201  14.337   5.628   1.717 -0.2567  0.3207  0.0837
27941W        W44202   3.386   4.835   1.422 -0.3428 -0.1577 -0.1443
27942W        W44203  11.967   0.476   2.329  0.0862 -0.1033 -0.3523
27943W        W44204  17.572   5.501   2.314 -0.0077 -0.1336 -0.3191
27944W        W44205   6.619   0.029   0.128 -0.1741 -0.1964 -0.1995
27945W        W44206   5.629   3.747   4.336 -0.1307 -0.0501 -0.0997
27946W        W44207   7.253   4.359  14.311 -0.1993 -0.0454  0.1056
27947W        W44208   0.015   8.161   4.742  0.3215  0.0656  0.3425
27948W        W44209  18.579   7.588   0.691 -0.0493 -0.1749 -0.2279
27949W        W44210   8.686   5.969   1.618 -0.2781 -0.1960  0.3827
27950W        W44211   4.063   3.164   2.303 -0.2150 -0.4049  0.0448
27951W        W44212   4.641  14.111   5.756  0.2621 -0.1132 -0.0862
27952W        W44213  17.804  12.815   0.173  0.1923 -0.0285  0.2361
27953W        W44214  17.462   0.179  13.522  0.0525 -0.2053 -0.2471
27954W        W44215   4.001   1.727  11.563 -0.0447  0.0239  0.0304
27955W        W44216  17.822   7.005   3.397  0.3155 -0.1351 -0.0463
27956W        W44217  16.572  16.393  10.539  0.0845  0.1944  0.0745
27957W        W44218   4.788   2.843   4.978 -0.2342  0.0528  0.0108
27958W        W44219  13.128  10.333   3.520 -0.2375  0.0586  0.0248
27959W        W44220   7.212  17.658   4.224 -0.1407  0.0118  0.1431
27960W        W44221   4.984  18.286   3.369 -0.0531 -0.1520  0.2509
27961W        W44222  15.851   7.546   5.047  0.1313 -0.1031 -0.0470
27962W        W44223   6.498  13.617   9.812 -0.1473 -0.0777 -0.1186
27963W        W44224   7.297   6.353   3.506 -0.0494 -0.2616 -0.0206
27964W        W44225  17.791  14.491  12.463  0.2110 -0.4494 -0.1957
27965W        W44226  12.312   7.500   3.541 -0.2925  0.0017 -0.1920
27966W        W44227   2.959   3.065   3.809 -0.0252  0.1774  0.1145
27967W        W44228  14.584  10.656   9.383  0.0343  0.0673 -0.1737
27968W        W44229  11.017  17.813   4.734  0.0996 -0.1849  0.1433
27969W        W44230  15.845   3.112   4.811 -0.4307  0.1073  0.1279
27970W        W44231  11.125  14.324  13.208  0.2701 -0.1642  0.1088
27971W        W44232  15.552  13.729  13.751 -0.1047 -0.0299 -0.2567
27972W        W44233  12.110  13.367   4.508 -0.1713 -0.2177  0.1024
27973W        W44234   7.264   1.166   3.268  0.4200 -0.0431  0.0159
27974W        W44235  16.183   8.932  13.460  0.0552  0.2464 -0.1979
27975W        W44236  14.360  16.461  13.245 -0.1996 -0.3000  0.0006
27976W        W44237  13.138   6.196  10.059  0.2435  0.0441 -0.0406
27977W        W44238   2.819   9.959   0.252  0.3212 -0.0228 -0.2215
27978W        W44239   2.887   5.523  12.888 -0.2332 -0.1825 -0.4759
27979W        W44240  11.435  10.404  11.696  0.2976  0.0990 -0.1850
27980W        W44241   7.801  17.634  14.346 -0.0011 -0.0771 -0.1752
27981W        W44242  14.479   4.617   3.345 -0.1773  0.3104 -0.1538
27982W        W44243   5.857  12.457  11.856 -0.0175 -0.3192  0.1854
27983W        W44244  12.211   9.337  14.080 -0.2250  0.1075  0.2506
27984W        W44245  17.522  16.828   1.271  0.0504 -0.0164  0.3265
27985W        W44246   9.932  13.847   3.052  0.1788  0.0676 -0.1162
27986W        W44247   9.840  15.783   1.827  0.0078 -0.4113  0.3991
27987W        W44248  17.663  14.021   3.636  0.3147 -0.4513  0.0003
27988W        W44249  18.471  14.672  14.298  0.1432 -0.2045 -0.0661
27989W        W44250  18.823   7.409  14.109 -0.0347  0.3193  0.1963
27990W        W44251   3.972  17.848   0.492 -0.0697 -0.1961 -0.1388
27991W        W44252   4.371  14.450   1.069  0.0591 -0.0509  0.3719
27992W        W44253  13.438  18.003   5.269  0.1326  0.2403 -0.1375
27993W        W44254   5.070   7.742   2.448  0.0121 -0.0948  0.1195
27994W        W44255   0.258  13.815  11.113 -0.0515  0.0939 -0.0474
27995W        W44256   6.354   8.044   0.916  0.0792 -0.1013 -0.2917
27996W        W44257  11.319   3.959   1.195  0.2289  0.0162 -0.2589
27997W        W44258   4.400   0.343   4.370  0.1771 -0.1680 -0.0786
27998W        W44259   0.545   0.195  14.240 -0.3849 -0.1633  0.1002
27999W        W44260  12.199  15.983   2.770  0.1936  0.3465 -0.0052
28000W        W44261   6.796   8.209  14.408 -0.2800  0.1118 -0.0003
28001W        W44262   8.969   5.093  13.160  0.1446 -0.2283  0.2375
28002W        W44263  18.723   5.632  10.431  0.1478 -0.0403 -0.3038
28003W        W44264   0.309  17.825   4.335  0.0110 -0.0158 -0.1222
28004W        W44265   7.819   4.470   5.452 -0.2447  0.2589 -0.1711
28005W        W44266  15.172  18.199   3.096 -0.0559  0.0069  0.1897
28006W        W44267  18.823   5.925  14.312 -0.1075  0.1107  0.2061
28007W        W44268   0.648  18.823  10.940  0.1018 -0.2437 -0.0648
28008W        W44269  13.148  14.137   3.653  0.0181 -0.0280  0.0906
28009W        W44270   9.869  15.510  13.601 -0.0892 -0.1127 -0.0214
28010W        W44271   6.635  14.988  12.140 -0.0381  0.1890 -0.2164
28011W        W44272  10.765   0.708  12.941 -0.2231 -0.1238 -0.1020
28012W        W44273  13.998   1.275  11.167 -0.0162  0.1068  0.1377
28013W        W44274   4.307   4.658  13.706 -0.0948  0.1112 -0.0769
28014W        W44275   8.408   8.961   0.465 -0.0788 -0.3555 -0.2182
28015W        W44276   9.688   6.891   1.815 -0.1606  0.3529  0.1446
28016W        W44277   5.974  13.584   0.663 -0.2557  0.1063  0.1503
28017W        W44278   8.772  13.773  14.772  0.2152 -0.1216 -0.1275
28018W        W44279   5.689   9.977   1.046 -0.0559  0.0208  0.0413
28019W        W44280   6.533  13.190   1.851  0.0597 -0.1015  0.1395
28020W        W44281   5.184   5.745   1.842 -0.4916  0.1975  0.2341
28021W        W44282  10.708   7.109  12.670 -0.1309  0.1834  0.1886
28022W        W44283  11.908   5.248   0.376 -0.0626  0.1092 -0.3474
28023W        W44284   1.040   0.442   4.306  0.2530  0.0237 -0.0044
28024W        W44285   2.095   2.268  13.083 -0.0514  0.2579 -0.2385
28025W        W44286  11.405   1.302  14.507  0.1162 -0.1840  0.3523
28026W        W44287  15.752  12.994   4.812 -0.0516  0.0200  0.0494
28027W        W44288   5.404   4.655   3.390 -0.0666  0.0464  0.0915
28028W        W44289  11.453   3.742  12.326  0.2138 -0.2049 -0.0462
28029W        W44290  12.263  16.808  14.016 -0.3183  0.1273 -0.0807
28030W        W44291   9.464   1.612   4.506 -0.1322 -0.2344  0.2031
28031W        W44292   9.167  11.970  13.134  0.0426 -0.0075  0.2274
28032W        W44293  12.566  10.539   4.684  0.1150  0.0716  0.2326
28033W        W44294   5.612  13.438  11.114 -0.1606 -0.0226  0.1307
28034W        W44295   8.186  18.170   3.714  0.1606 -0.3595  0.0829
28035W        W44296  15.219   9.871   2.681  0.1117 -0.0651  0.2735
28036W        W44297   1.664   7.518  14.039 -0.0237  0.0017  0.3495
28037W        W44298  10.831   7.549   1.947  0.0195 -0.0861  0.1145
28038W        W44299  15.955  16.506   0.456 -0.2546 -0.0222 -0.1081
28039W        W44300  12.761  14.446   3.592  0.1231  0.2050 -0.1126
28040W        W44301  15.340   0.213  12.882 -0.0920 -0.3151 -0.1765
28041W        W44302   3.542  11.623  13.790 -0.0161 -0.2593 -0.3543
28042W        W44303  15.309   3.718  15.458  0.1068 -0.1737 -0.2735
28043W        W44304   1.999   1.511  15.357  0.1734 -0.1199  0.0422
28044W        W44305  12.508  12.465  15.573 -0.2607 -0.1897 -0.1894
28045W        W44306  17.202  12.934  14.609  0.0387 -0.1491 -0.3955
28046W        W44307  12.916  14.752  12.133  0.1837  0.1203  0.1250
28047W        W44308   3.590   9.865   1.061  0.2063  0.0525 -0.1761
28048W        W44309  10.602   8.797  13.619  0.0987 -0.1913  0.1951
28049W        W44310  12.751   6.731   2.389  0.1732 -0.0048  0.1050
28050W        W44311   7.520  11.155   2.308 -0.0894  0.1974  0.4893
28051W        W44312   0.781   2.577  14.911 -0.0277 -0.1047  0.0797
28052W        W44313   7.470   3.104   0.588 -0.2093 -0.0452  0.0479
28053W        W44314  16.895   1.570   1.378  0.0145 -0.0631  0.1447
28054W        W44315  15.833  13.923  11.396  0.2697 -0.3302  0.0504
28055W        W44316  15.722   5.017   3.919 -0.1384  0.3810  0.0827
28056W        W44317   3.963  11.211  14.278 -0.1515  0.0581 -0.0653
28057W        W44318  13.858   4.871  14.668  0.1613 -0.0090 -0.1864
28058W        W44319  14.217  16.443   1.841  0.2693  0.2057 -0.1289
28059W        W44320  11.347   1.240  15.037 -0.0998  0.2699  0.3554
28060W        W44321   8.521  16.075  11.857 -0.2405  0.1841 -0.0709
28061W        W44322  15.247  15.965  14.392  0.2054  0.0014  0.5568
28062W        W44323  17.472  17.323   1.435 -0.1073 -0.1917  0.2357
28063W        W44324   9.721  17.407   3.245  0.2614  0.1245 -0.2620
28064W        W44325   5.134   2.839  11.944 -0.3640  0.1019  0.2746
28065W        W44326  13.678   4.362  12.192  0.1175 -0.0070  0.1489
28066W        W44327   3.214   9.517  11.007 -0.0972 -0.1553 -0.1514
28067W        W44328  14.269  11.769   1.705 -0.2100  0.3201 -0.1473
28068W        W44329  14.510   7.652  15.029 -0.0950  0.3387  0.0795
28069W        W44330   5.076   7.532   3.449 -0.0802  0.0837  0.0446
28070W        W44331  11.865  14.616  13.495  0.2841  0.2321 -0.2806
28071W        W44332   7.146   7.839   3.922  0.0594  0.4763 -0.0486
28072W        W44333   5.752   1.834  14.017 -0.2281  0.0806 -0.4829
28073W        W44334  13.942   9.232  15.184  0.0483  0.1161  0.3666
28074W        W44335  13.495  17.827   3.165  0.1865  0.1643  0.0900
28075W        W44336   8.625  10.438   3.772  0.0369  0.0082  0.0290
28076W        W44337  15.788  18.095   3.845 -0.1226  0.0289  0.0144
28077W        W44338  13.740   5.333  14.020  0.1473 -0.3692 -0.1427
28078W        W44339  11.131   4.246   1.542 -0.2156 -0.1192 -0.5977
28079W        W44340  15.677  17.099  12.647  0.1395 -0.3021  0.1233
28080W        W44341  18.148   3.299   0.617 -0.2849 -0.0210 -0.1294
28081W        W44342   9.463  10.317  10.966  0.0048 -0.1408  0.0011
28082W        W44343   2.424   7.283   2.004 -0.1848  0.0404  0.1365
28083W        W44344  16.977  15.930   1.314 -0.1484  0.2788  0.2452
28084W        W44345  10.382   7.563   1.649 -0.0795 -0.0572  0.1411
28085W        W44346   9.669  10.343   1.483 -0.0015  0.0998 -0.0020
28086W        W44347  17.824  10.130  11.844  0.0796  0.0941  0.2559
28087W        W44348  12.017  18.193  11.000 -0.1152 -0.1146  0.0402
28088W        W44349  11.668  10.570  14.475  0.4512  0.1799 -0.3028
28089W        W44350   3.154  13.100   0.278  0.0500  0.1249  0.4650
28090W        W44351  10.147   1.297   1.902  0.0232 -0.1492  0.3638
28091W        W44352   3.398  15.476  11.735 -0.0950 -0.4412 -0.0538
28092W        W44353   7.564  16.597  15.097 -0.0124 -0.0310  0.2405
28093W        W44354   2.223  13.137  14.089  0.4025  0.1779 -0.3421
28094W        W44355  12.211   2.022  12.882  0.2280 -0.3606  0.1825
28095W        W44356  11.577   9.063  15.508  0.0454 -0.1634 -0.0275
28096W        W44357  13.654   6.550   2.202 -0.0499 -0.0034  0.1238
28097W        W44358   1.238   9.573  11.171 -0.0336  0.1525  0.0847
28098W        W44359  16.459   6.950  12.664  0.0382  0.4251 -0.1203
28099W        W44360  18.728  13.164   1.501  0.1961 -0.1270  0.0139
28100W        W44361   7.918  11.139   5.037 -0.1299  0.0069 -0.1675
28101W        W44362   6.209   1.480  14.136  0.0607 -0.1608  0.0741
28102W        W44363   5.720   0.894   5.244  0.1588 -0.1338  0.1284
28103W        W44364   3.061   3.432  13.230  0.2998 -0.0645  0.0158
28104W        W44365   1.031   8.167  13.557  0.1550  0.0523 -0.0729
28105W        W44366  10.669  12.918   1.523 -0.4381 -0.0547  0.1745
28106W        W44367  17.660  17.291  11.853  0.0285 -0.2608  0.0040
28107W        W44368  18.671  13.413  14.528  0.0218  0.0773 -0.3207
28108W        W44369   7.952   4.111   5.042  0.0342 -0.1557  0.1761
28109W        W44370   0.206   2.902   2.145 -0.0924 -0.0196 -0.2193
28110W        W44371   1.515   7.405  13.219  0.2722  0.0853 -0.1705
28111W        W44372   2.439   3.755  12.025 -0.0336 -0.3738  0.2262
28112W        W44373   2.919   7.056   4.388  0.0311  0.0436 -0.2972
28113W        W44374   3.773  15.184   1.111  0.0882 -0.2025 -0.0650
28114W        W44375   9.599  17.982  12.364  0.0920  0.1078  0.0233
28115W        W44376  14.265  18.082   2.096  0.1894  0.2024 -0.1379
28116W        W44377  13.210   1.219  14.897 -0.1193  0.4197 -0.2519
28117W        W44378  15.682  18.500  15.646  0.3875  0.1841  0.2845
28118W        W44379   2.314  16.965   2.775 -0.1455 -0.1292 -0.0660
28119W        W44380   4.771   2.139   2.640 -0.0883  0.0011  0.1929
28120W        W44381  11.483  14.811   9.546  0.2026  0.1149  0.1042
28121W        W44382   2.060   6.513  12.872 -0.0443  0.1043 -0.1721
28122W        W44383   1.699  18.276   1.992  0.0786  0.2031  0.0228
28123W        W44384  14.403   2.314  13.321 -0.0651 -0.1966 -0.1036
28124W        W44385   2.508   6.360  12.709  0.0596 -0.2073 -0.2433
28125W        W44386  11.933  16.274   0.427  0.1283  0.4732 -0.4563
28126W        W44387  13.556   2.843   0.803  0.1921 -0.0350 -0.0805
28127W        W44388  17.273  13.030  11.550 -0.1941 -0.1706  0.0111
28128W        W44389  18.252  10.001  12.281 -0.1163 -0.0164  0.3636
28129W        W44390   9.159   4.771   4.974  0.0714 -0.1263 -0.0219
28130W        W44391  18.211   7.128  11.234 -0.1002 -0.1514  0.0149
28131W        W44392   9.034  12.550  12.337 -0.2618  0.0363 -0.1200
28132W        W44393   3.856  16.238  11.846  0.2894 -0.2224 -0.0008
28133W        W44394  10.392   0.089  12.365  0.0495 -0.2362  0.1571
28134W        W44395   4.436   6.009   4.157  0.1061  0.0782 -0.2233
28135W        W44396   1.900  16.542   9.907  0.1199  0.0314 -0.1115
28136W        W44397  17.799   9.041   0.413 -0.2271  0.2186 -0.4881
28137W        W44398   9.187  16.901  11.203 -0.1776 -0.2387  0.0217
28138W        W44399  11.825   7.670  15.635 -0.0011  0.2463  0.1562
28139W        W44400   5.260   8.584   1.394 -0.0728  0.0913  0.0219
28140W        W44401   4.396  11.133   1.774 -0.0330  0.1240  0.1162
28141W        W44402  17.637   4.543  12.463 -0.1498 -0.1840 -0.0568
28142W        W44403   8.445   3.367   3.852 -0.0550  0.0094  0.0368
28143W        W44404  12.327  13.567  10.708 -0.2256 -0.0949 -0.0293
28144W        W44405  12.645   1.752   0.798 -0.2768 -0.2774  0.1855
28145W        W44406  15.291  13.556   2.624  0.2477  0.0884 -0.5662
28146W        W44407   0.400   9.217   0.772 -0.1160 -0.3846  0.0389
28147W        W44408  16.285   3.466  14.044 -0.2920  0.1100 -0.2176
28148W        W44409  13.738   5.986   2.285  0.2822  0.0364 -0.0055
28149W        W44410   3.022   3.250  12.610  0.1082  0.1502 -0.0442
28150W        W44411  13.140  13.466  12.469 -0.2082 -0.1301  0.3693
28151W        W44412   5.407  13.645  11.495 -0.2216  0.1750 -0.1989
28152W        W44413  15.302   3.078   3.333 -0.3015 -0.3046 -0.1745
28153W        W44414  14.708   8.148   1.543 -0.1496  0.0732 -0.1084
28154W        W44415   5.822   6.823  15.075 -0.0352  0.0449 -0.0413
28155W        W44416   5.535  13.852   2.354  0.3713 -0.0982 -0.1341
28156W        W44417   9.358  13.275  15.191 -0.0283  0.2078  0.3017
28157W        W44418   3.874   2.660  12.389  0.1043 -0.1335 -0.0409
28158W        W44419   8.614   0.995   1.445 -0.0328 -0.1910 -0.0206
28159W        W44420  16.187   8.487   2.077 -0.1742  0.1159 -0.1538
28160W        W44421   0.963   1.306   2.930  0.0768 -0.1273  0.0922
28161W        W44422  16.062  16.353   4.504  0.0629 -0.1710 -0.2863
28162W        W44423  17.139   0.417  11.030  0.1828 -0.2439  0.0134
28163W        W44424   4.984  12.465   4.936  0.5125  0.0873 -0.2785
28164W        W44425  12.085   8.099   2.202  0.1333  0.0377  0.1895
28165W        W44426  11.463   4.807   2.673 -0.0316  0.0309  0.4525
28166W        W44427  13.639   4.687  15.105  0.0853 -0.0141  0.2791
28167W        W44428   8.174  15.908  14.041 -0.2936 -0.0159  0.3100
28168W        W44429   4.961  15.238  14.473  0.3714 -0.0007  0.1709
28169W        W44430   9.362  18.793   3.573  0.2292 -0.0155 -0.2424
28170W        W44431  15.068   5.879   0.118  0.2841 -0.0183  0.0542
28171W        W44432  10.160   2.269  12.321  0.0176 -0.1674 -0.1616
28172W        W44433   5.459  18.126  13.830  0.1513  0.0550 -0.1421
28173W        W44434   2.145   6.100  11.535 -0.2541 -0.3582 -0.2463
28174W        W44435   3.233   1.969  12.864 -0.0824  0.0966  0.0522
28175W        W44436   9.287  15.511   3.547  0.0270 -0.2743  0.2497
28176W        W44437   4.916  12.260   0.596 -0.1330  0.1276 -0.0363
28177W        W44438   0.940   0.958  10.662 -0.4181 -0.4065 -0.2065
28178W        W44439   7.306   8.374   5.990 -0.0743 -0.1227  0.0453
28179W        W44440  17.862  10.929   3.778  0.0310  0.0888  0.1226
28180W        W44441   9.630  18.374   4.753 -0.1291  0.0378 -0.0204
28181W        W44442   2.107  16.543   0.931 -0.2105 -0.1629  0.0318
28182W        W44443  14.656   2.520   0.264  0.3580 -0.0574 -0.2773
28183W        W44444   8.935  15.811  14.639 -0.0545  0.0692 -0.0209
28184W        W44445   3.809  13.248   2.280  0.0726  0.3327 -0.0911
28185W        W44446   4.933   4.733  12.003  0.1762 -0.3812 -0.2552
28186W        W44447   8.605  12.319  14.869  0.0525  0.1654 -0.0665
28187W        W44448  10.417  12.949   4.877 -0.1441  0.0534 -0.0119
28188W        W44449  12.181  15.058  14.436 -0.0687 -0.3959 -0.5252
28189W        W44450   7.721  18.158  14.323  0.2003  0.1769  0.0179
28190W        W44451   0.719  17.263  10.529  0.1971  0.2040 -0.1602
28191W        W44452   5.037  17.286  12.033  0.0043  0.1611 -0.1125
28192W        W44453   4.518   9.929   6.009  0.1454 -0.1723  0.3546
28193W        W44454   8.103   6.437   0.252 -0.1977  0.1701  0.0883
28194W        W44455  18.020   5.561   4.213  0.1457 -0.0420 -0.2264
28195W        W44456  11.077  13.150  14.182 -0.0851 -0.0859 -0.0264
28196W        W44457   2.903   2.556   3.840  0.0458  0.0120  0.0168
28197W        W44458  16.565  16.002   5.225 -0.2944  0.3624 -0.2835
28198W        W44459   0.767   0.843  12.027  0.1595  0.2423  0.1697
28199W        W44460   9.135   7.114   1.137  0.3162 -0.2968 -0.0037
28200W        W44461   6.603   8.991  13.301  0.0690 -0.1494 -0.1604
28201W        W44462   8.497  14.107  11.493  0.3020 -0.2147  0.1772
28202W        W44463  16.516   2.551   0.096  0.2055 -0.0365 -0.2411
28203W        W44464  11.180  15.132   2.240 -0.1186 -0.1038 -0.0212
28204W        W44465  14.222  12.452  12.190 -0.3070 -0.1426  0.1377
28205W        W44466   9.931  13.609  14.500  0.1557  0.2429  0.1554
28206W        W44467  15.930   7.866   2.869 -0.2447  0.1911 -0.0908
28207W        W44468   8.252   6.315   3.833 -0.1698  0.0285  0.3505
28208W        W44469  15.754   8.759   3.204  0.1554 -0.2639 -0.1400
28209W        W44470   7.397   7.003   3.118 -0.0010  0.0813 -0.1659
28210W        W44471  18.243   2.544   2.866 -0.1091 -0.0488  0.0185
28211W        W44472   9.404  11.422   5.052  0.1885  0.1934  0.1124
28212W        W44473   9.820  12.012   2.852 -0.2665 -0.1223  0.1412
28213W        W44474   3.038   3.552   0.965 -0.0631 -0.1165 -0.2440
28214W        W44475  14.676  15.568   4.796  0.1990  0.1786 -0.0458
28215W        W44476   4.869  10.060  13.200 -0.1242 -0.2239  0.1853
28216W        W44477   6.433   2.968  11.612 -0.3432  0.0550 -0.2098
28217W        W44478   5.383   3.711   3.809  0.2349  0.1530 -0.3580
28218W        W44479  13.471  17.995  14.035  0.2241 -0.1587  0.0560
28219W        W44480   3.197  11.719   5.157  0.2583 -0.1936  0.0642
28220W        W44481  12.805  14.859  13.845  0.0325  0.1391 -0.0269
28221W        W44482   1.299  11.128   4.064 -0.0823 -0.3660  0.1547
28222W        W44483  17.375   2.734   3.349  0.3416  0.1020  0.3603
28223W        W44484  17.408   3.159   3.079 -0.2082 -0.0890 -0.1188
28224W        W44485  10.327  18.817   3.108 -0.2837 -0.1412 -0.0267
28225W        W44486   9.294   5.465  13.171  0.1087 -0.0015  0.0512
28226W        W44487  10.796   4.099  11.931  0.1692  0.1814 -0.3211
28227W        W44488  16.371   7.550  13.389 -0.0041  0.1562  0.3876
28228W        W44489   8.372   9.923  12.504 -0.0190  0.0739  0.0326
28229W        W44490  14.397  18.648   3.609  0.0347 -0.0105  0.2495
28230W        W44491  13.511  10.664   2.668 -0.3098  0.0123  0.0702
28231W        W44492  13.100   3.742   3.115 -0.0007 -0.1407  0.2106
28232W        W44493   6.822  10.968   5.791  0.2572  0.1248  0.0782
28233W        W44494   3.173   5.930   3.890  0.0455 -0.2559  0.1869
28234W        W44495   8.874  14.379   1.611 -0.0417 -0.0464  0.0616
28235W        W44496   7.964   6.592  12.161 -0.2385  0.2739 -0.0644
28236W        W44497   0.816   0.724   1.952 -0.3014  0.0824 -0.0816
28237W        W44498  12.210  11.388   1.776  0.0619  0.0811  0.0211
28238W        W44499  13.950  18.676   1.864 -0.0713 -0.1320  0.2167
28239W        W44500  17.723   6.579  14.445  0.0292  0.1202 -0.2106
28240W        W44501  18.638  11.411   4.200 -0.0742 -0.1337 -0.0054
28241W        W44502   2.565  12.334  12.464  0.1695  0.0041  0.3324
28242W        W44503  17.498  18.739   0.024 -0.0701  0.3283 -0.0595
28243W        W44504  18.170   2.475  11.960 -0.0555  0.1135  0.1946
28244W        W44505   9.827   2.456  13.283  0.0556 -0.3202  0.0331
28245W        W44506  15.315   4.776   4.816  0.1539 -0.1647 -0.0337
28246W        W44507  11.393  10.633   5.511  0.1232 -0.2058  0.1150
28247W        W44508   7.434   8.192  11.129  0.3566 -0.0736 -0.0444
28248W        W44509   4.086  12.910  12.510 -0.1233 -0.0792 -0.0582
28249W        W44510   4.227  14.976  11.132 -0.1462  0.0439  0.1096
28250W        W44511  18.366  15.928   4.931  0.1457  0.1994  0.1774
28251W        W44512   4.146  15.098   0.784 -0.0308 -0.2052 -0.0906
28252W        W44513   0.605   6.775   2.690  0.2488 -0.1622 -0.0235
28253W        W44514  13.230   4.896  10.252 -0.1302  0.1934 -0.1272
28254W        W44515   5.959   4.550  15.221 -0.1167 -0.0303  0.2484
28255W        W44516  13.979   1.935  15.154  0.2025  0.0031 -0.3435
28256W        W44517  18.641   5.775  12.944  0.1561  0.1692  0.0945
28257W        W44518  17.349  15.371   2.613  0.0233 -0.2428 -0.1482
28258W        W44519   1.628  17.632   1.094  0.0885  0.0770 -0.2740
28259W        W44520   9.901  12.968   2.873  0.2626  0.0296 -0.0413
28260W        W44521  12.587   9.502   4.598  0.3637  0.1812 -0.1240
28261W        W44522  13.648   9.404   3.341  0.0841 -0.4493 -0.3099
28262W        W44523   8.803   7.526   1.131 -0.0454 -0.0270 -0.0446
28263W        W44524  14.408  15.485   1.157 -0.1871 -0.1561  0.2571
28264W        W44525   9.347   1.829  12.673 -0.0056  0.4511 -0.3136
28265W        W44526  12.534  16.570   3.390  0.1251  0.0243 -0.1291
28266W        W44527  10.831  17.384   2.525 -0.5416 -0.3067 -0.1873
28267W        W44528   9.899   5.117  14.893 -0.0633 -0.1809 -0.0501
28268W        W44529   0.587  11.467   2.785  0.3227  0.3876  0.2611
28269W        W44530   9.245   3.734   4.128 -0.0114  0.0846 -0.2938
28270W        W44531   1.374   9.470   3.330 -0.0297  0.1116  0.3064
28271W        W44532   1.786   4.970  13.389 -0.0483 -0.0757  0.1424
28272W        W44533  15.329   0.859  12.946 -0.0896  0.0045 -0.0124
28273W        W44534   4.385   8.485   4.732 -0.2289  0.1406  0.1095
28274W        W44535   4.822   1.798  13.805  0.0442  0.1665 -0.0139
28275W        W44536   3.361  15.305   1.845 -0.0239 -0.0267 -0.0226
28276W        W44537   8.899   1.120  13.146  0.0076  0.1182 -0.2676
28277W        W44538   3.111   5.460   2.074  0.3231  0.5632  0.2543
28278W        W44539  14.605  12.984   4.092  0.1130  0.2688 -0.3120
28279W        W44540  16.735  17.518  14.914 -0.1109  0.0105  0.1722
28280W        W44541   4.718  13.021  11.810 -0.0842  0.2999 -0.0787
28281W        W44542   1.689   1.149  15.034 -0.0402 -0.0190 -0.0618
28282W        W44543  17.372   8.651  11.671 -0.1568  0.2587 -0.2046
28283W        W44544   1.208  10.963   0.409  0.1630 -0.2329 -0.0106
28284W        W44545   0.989   7.251   0.067 -0.0361 -0.0523  0.3335
28285W        W44546  18.590  13.620   3.101 -0.0994  0.2737 -0.0924
28286W        W44547  12.081   7.791   1.367  0.2513  0.0309 -0.2806
28287W        W44548  11.683  12.229   0.675  0.1283  0.1596  0.0992
28288W        W44549  16.294   4.267   0.024 -0.0069 -0.0026  0.2738
28289W        W44550   5.435  11.370  11.276  0.1153  0.2562 -0.0782
28290W        W44551  18.564  16.501  11.162 -0.1809  0.1197  0.0477
28291W        W44552   0.818  17.359  12.336 -0.0952 -0.2244  0.0254
28292W        W44553  15.200  11.684  11.907 -0.0439  0.0665  0.0144
28293W        W44554  17.229  17.923   4.029  0.1551 -0.1424 -0.2223
28294W        W44555   6.741   2.168   0.326  0.2289 -0.3115  0.4067
28295W        W44556   1.516  13.485  14.396 -0.1885 -0.2594 -0.2560
28296W        W44557  16.150   0.252  11.170  0.0566 -0.1244  0.1493
28297W        W44558   2.928  10.437   5.243 -0.0953  0.0771 -0.1094
28298W        W44559  10.925   7.578  10.236 -0.2160  0.0098  0.2118
28299W        W44560  18.523   6.581   2.808 -0.1054  0.2246 -0.2090
28300W        W44561   7.745   6.473   1.769 -0.0430 -0.2596  0.2859
28301W        W44562  14.975   0.745   3.066  0.1103 -0.0041 -0.4797
28302W        W44563   8.512  15.285   2.473 -0.1200 -0.2881 -0.0180
28303W        W44564  15.255  12.688   2.802 -0.1874 -0.0931  0.0478
28304W        W44565   0.055   2.828   2.615  0.0169  0.2543  0.0431
28305W        W44566   7.768   3.914  12.228 -0.0746 -0.0090  0.0504
28306W        W44567  11.062   6.591   4.517  0.2699 -0.1646  0.0908
28307W        W44568  15.588  18.309   0.882 -0.2532 -0.0119  0.2156
28308W        W44569  15.175  12.563  12.445  0.0786 -0.2414  0.1995
28309W        W44570  13.047  10.799  13.991  0.1420  0.3330 -0.1271
28310W        W44571   0.055   3.609  10.547  0.3054 -0.0085 -0.0119
28311W        W44572   2.308   3.776  13.953  0.0462  0.0086 -0.1342
28312W        W44573  12.737   1.405   2.325  0.0845  0.0744  0.2256
28313W        W44574  15.027   2.688  14.025  0.2655 -0.1508  0.3987
28314W        W44575  14.098   6.886   3.815  0.1604  0.0193 -0.1133
28315W        W44576   8.447   3.504   4.704  0.1389  0.0686  0.1444
28316W        W44577   2.222   0.630  13.243  0.0330  0.1398 -0.0592
28317W        W44578  10.388  13.986   1.133  0.3781 -0.1693 -0.2348
28318W        W44579  12.133   1.285  14.332 -0.3630  0.0156 -0.4476
28319W        W44580  15.338  14.142  15.562  0.0485 -0.0442 -0.2805
28320W        W44581   2.901   9.589   3.362  0.1690  0.1348  0.0124
28321W        W44582  13.328  14.863  12.557  0.0332 -0.1535 -0.1332
28322W        W44583   4.910  16.061  11.497 -0.3651  0.1503 -0.2202
28323W        W44584   9.214  14.821  13.230  0.2958 -0.1386  0.0946
28324W        W44585   4.224   4.318  12.128  0.0038 -0.0629 -0.2422
28325W        W44586   9.006   0.174   4.478 -0.1074  0.2819 -0.1158
28326W        W44587   1.076   1.085   1.723  0.0748  0.0648 -0.0075
28327W        W44588  11.135  13.265   1.330 -0.0467  0.0834  0.0052
28328W        W44589   9.220   6.319   0.941  0.1154 -0.0633  0.1090
28329W        W44590   8.406  15.691   2.207  0.3928 -0.0665  0.0346
28330W        W44591  12.670   3.730   4.771 -0.1386 -0.1890  0.2332
28331W        W44592   0.950  16.270   0.023  0.2283 -0.1027  0.0512
28332W        W44593  13.702   0.917  14.989  0.0840  0.2108  0.4164
28333W        W44594   2.330   8.208  13.066 -0.0308  0.2146  0.1183
28334W        W44595  10.181  18.275  13.012  0.0328 -0.0324 -0.1747
28335W        W44596  16.824   9.959   4.133  0.0337  0.0149  0.0398
28336W        W44597   2.691  17.689  13.115 -0.0986 -0.1337 -0.0918
28337W        W44598  14.880   1.481  15.610  0.1343  0.1180  0.0351
28338W        W44599  13.882  17.019   0.253  0.0218 -0.2610  0.0728
28339W        W44600   7.605  10.857  11.933  0.1859 -0.3135  0.0163
28340W        W44601   1.562  16.280   3.884 -0.1157  0.0038  0.0606
28341W        W44602  17.715   7.229  13.774  0.2572 -0.1159 -0.3182
28342W        W44603   6.176  16.845   3.653 -0.0534  0.2197 -0.4228
28343W        W44604  14.786   3.586   1.828 -0.2016 -0.0709 -0.1776
28344W        W44605   4.091  17.934  15.208 -0.0829 -0.0348  0.0784
28345W        W44606  12.007   1.132  15.579  0.3086 -0.1984 -0.0461
28346W        W44607   2.683  15.331   3.004  0.0100  0.0086  0.0129
28347W        W44608   0.607   3.035  10.702 -0.0258 -0.2075 -0.0958
28348W        W44609  12.485   3.340   4.591  0.0555  0.3102 -0.1362
28349W        W44610  15.181  10.889  13.661 -0.0307  0.0829  0.3483
28350W        W44611  13.422  16.209  11.549 -0.2682  0.0186  0.0873
28351W        W44612   5.171   8.704  13.130 -0.4467 -0.1479 -0.1388
28352W        W44613  16.275   3.218  10.483  0.1795 -0.1923 -0.0284
28353W        W44614   5.185  12.842   3.762 -0.0491 -0.3578 -0.0339
28354W        W44615   6.324  16.708   0.027  0.3629 -0.1104 -0.0568
28355W        W44616   6.349   9.631  14.668  0.1583 -0.0488 -0.1062
28356W        W44617   9.871  11.006  14.176  0.0280  0.0511 -0.0337
28357W        W44618  15.846  12.446  14.129 -0.1438  0.0007 -0.0412
28358W        W44619   6.312  13.552  13.537  0.0292  0.1028  0.0199
28359W        W44620  12.168   1.458   2.393 -0.2849 -0.2161 -0.0168
28360W        W44621  18.035  14.476  10.825 -0.0962 -0.3979  0.1174
28361W        W44622  15.431  17.612   1.796 -0.1369  0.3100 -0.2286
28362W        W44623  18.603   1.081  11.632  0.1400 -0.2448 -0.0927
28363W        W44624  17.380   7.026  14.437 -0.2752  0.0336 -0.0875
28364W        W44625   3.350  15.957   3.815 -0.0351  0.1755  0.3205
28365W        W44626  12.428   1.517   5.016  0.0199  0.2605  0.2515
28366W        W44627  14.374   0.424   4.917  0.0023  0.0220 -0.0917
28367W        W44628  17.615   8.696  12.416 -0.2448  0.1487 -0.1463
28368W        W44629  12.140   2.573  13.093  0.1349 -0.3538 -0.1021
28369W        W44630  11.019   4.294   3.999 -0.0992 -0.1621 -0.0583
28370W        W44631  15.842   9.979   5.065  0.1366  0.0013 -0.2122
28371W        W44632  12.011   8.125  15.558 -0.2201  0.4981 -0.0740
28372W        W44633  17.925   4.473  12.073 -0.0173  0.1844  0.3163
28373W        W44634  10.096  14.082  15.364  0.0970 -0.4765 -0.1566
28374W        W44635  15.075  13.106  15.035  0.0730 -0.1067  0.0600
28375W        W44636   0.699   2.491   2.942  0.1356  0.2281 -0.0434
28376W        W44637   4.310  14.165  10.615 -0.0175 -0.1419  0.3526
28377W        W44638   3.846   3.500   3.289 -0.0132  0.0591  0.1979
28378W        W44639  14.306   5.514   9.751  0.0480 -0.2723 -0.0653
28379W        W44640   5.315  10.443   0.285 -0.1555 -0.2935 -0.0122
28380W        W44641   0.492  11.339   0.776 -0.0575 -0.3310 -0.3000
28381W        W44642   2.158   2.283  13.681  0.0616  0.3371 -0.0918
28382W        W44643   6.650  16.088  11.374 -0.1126  0.0114  0.1088
28383W        W44644  11.580  18.071  11.190  0.1429  0.0874 -0.0391
28384W        W44645  16.632  10.836   1.203 -0.0275 -0.0357  0.0318
28385W        W44646   2.489   8.693  14.510  0.2144  0.5246  0.1101
28386W        W44647  12.552   9.341   4.049  0.0818 -0.0356  0.2680
28387W        W44648  13.572  17.004   3.439 -0.0118  0.0433 -0.0657
28388W        W44649   3.001  12.753  14.480  0.1627  0.3357  0.3284
28389W        W44650   2.038   0.831  14.666 -0.1672  0.1576  0.1930
28390W        W44651   9.703   8.003  13.737 -0.1436 -0.0729  0.0855
28391W        W44652   7.347  11.817  13.609  0.0685  0.0811  0.0008
28392W        W44653   2.393  12.231  12.027  0.2170  0.0274 -0.0576
28393W        W44654  16.821  13.319   1.557  0.1650 -0.0916 -0.1411
28394W        W44655  12.705  11.394  13.318 -0.5533 -0.0218 -0.1534
28395W        W44656  15.887  12.409   3.236  0.1395  0.1561  0.0826
28396W        W44657  12.367  12.358  12.103 -0.1739  0.0802  0.0711
28397W        W44658  12.367   9.155  11.397  0.0396  0.0282  0.2425
28398W        W44659   3.527   7.698  12.453 -0.5837  0.2506 -0.1983
28399W        W44660  15.706   8.537   1.133 -0.1314 -0.0274  0.3094
28400W        W44661  10.037   4.154  12.906  0.4251 -0.0055 -0.0801
28401W        W44662   6.153   5.657   3.398 -0.1307 -0.1018  0.0365
28402W        W44663  14.085   1.745  12.840 -0.1161 -0.0503 -0.1231
28403W        W44664   1.863  16.092   6.282  0.0333 -0.1666 -0.6419
28404W        W44665   1.701  16.385   0.685  0.0756 -0.1263 -0.0195
28405W        W44666  13.975  10.661  14.323 -0.0676  0.3748  0.0467
28406W        W44667  12.246   0.760   3.758 -0.3004  0.2660 -0.3510
28407W        W44668  11.336   7.385   1.876 -0.2295  0.1182  0.0286
28408W        W44669   8.172   7.330  12.881 -0.2677 -0.2777  0.1209
28409W        W44670  18.385  12.281  14.872  0.0526  0.0948 -0.0626
28410W        W44671   6.689   7.547  15.232 -0.3949 -0.1120  0.2562
28411W        W44672   4.654  17.495  13.385  0.2624 -0.0959 -0.0811
28412W        W44673  14.331   2.927   2.324  0.1245  0.0005  0.1132
28413W        W44674  18.774   7.147   0.923 -0.0151  0.0928 -0.1312
28414W        W44675  14.755  16.866  12.998 -0.1527 -0.0636  0.0296
28415W        W44676   9.023  10.255   0.982 -0.1926 -0.0082 -0.1370
28416W        W44677  15.218   7.068  14.268 -0.1805 -0.1970 -0.3603
28417W        W44678  10.567   1.959   1.145  0.2253 -0.0869 -0.3151
28418W        W44679  13.603  11.346  15.242 -0.0918  0.2385 -0.0732
28419W        W44680   5.983  16.729  10.953  0.2818  0.1063  0.3911
28420W        W44681  16.459  18.695   2.896  0.0892 -0.3547 -0.1664
28421W        W44682   0.309  17.803   0.383  0.0528  0.1820  0.0499
28422W        W44683  16.398   2.781   3.002  0.2700 -0.2557  0.2947
28423W        W44684   7.963  11.662   3.550 -0.2069  0.0580  0.3102
28424W        W44685   9.126  11.361  11.313  0.1085 -0.0665  0.0513
28425W        W44686  10.023  12.574   3.808 -0.2195 -0.3732 -0.1615
28426W        W44687   4.290   4.211   2.015  0.0097 -0.1769 -0.3790
28427W        W44688   1.428   2.247  13.751 -0.2206  0.0277  0.0308
28428W        W44689   3.238   8.608  12.211 -0.1426  0.0905  0.3109
28429W        W44690  10.730  11.716   0.271  0.0017  0.3192 -0.0578
28430W        W44691   6.076  18.364   2.700  0.1848 -0.0579  0.2895
28431W        W44692   3.924  10.004   1.962 -0.1964  0.7139 -0.0825
28432W        W44693  15.807  18.730   2.387 -0.2828 -0.0166 -0.1404
28433W        W44694   6.770   4.111  12.282  0.1010  0.0254 -0.0395
28434W        W44695  15.122   1.444   2.386  0.0316  0.1247 -0.3109
28435W        W44696  11.462  15.945   2.224  0.0473  0.0890  0.3124
28436W        W44697  14.446  14.923   1.796  0.1062  0.1879 -0.0685
28437W        W44698  10.936  14.292  14.770 -0.4972 -0.2653 -0.1997
28438W        W44699  13.824   3.137   4.238  0.3434 -0.2955  0.0567
28439W        W44700   2.413  16.796   2.237 -0.1275 -0.1149  0.2258
28440W        W44701   7.025  12.763  11.152  0.2128 -0.0467  0.0205
28441W        W44702   0.996  17.957   1.418 -0.0034 -0.0284  0.0672
28442W        W44703  13.137   0.180   4.415 -0.1164 -0.1153 -0.1183
28443W        W44704   3.609   6.148   2.501  0.1032  0.5781  0.0273
28444W        W44705   6.081  16.233   0.036  0.1546 -0.0108  0.0131
28445W        W44706  18.428   2.294  14.072  0.0703 -0.0343 -0.1444
28446W        W44707   8.753   8.341  13.576  0.1569 -0.1132  0.2403
28447W        W44708  17.781   1.463   4.255 -0.2378  0.1482  0.0934
28448W        W44709   0.619   9.049  11.609  0.0630 -0.0232  0.0790
28449W        W44710  12.413   1.971   3.854  0.1522  0.2342 -0.0532
28450W        W44711   8.655   7.458  13.014 -0.3130 -0.0159 -0.0504
28451W        W44712   1.058  16.264   3.976  0.2802 -0.3027 -0.2522
28452W        W44713   6.218   1.641   4.111  0.1462 -0.0871  0.3167
28453W        W44714  11.164   9.061   1.114  0.1483  0.3789 -0.0222
28454W        W44715   7.114   5.583   5.484 -0.2211  0.1456  0.1123
28455W        W44716  17.878  16.494   1.441  0.1154 -0.0795 -0.0693
28456W        W44717   9.894   4.692  13.683 -0.0076 -0.0883  0.2047
28457W        W44718  13.272   4.421   3.059 -0.3868 -0.3103  0.0639
28458W        W44719   7.421   3.215   3.570  0.3001  0.1531  0.0701
28459W        W44720   5.383   9.092   1.255 -0.1795  0.0073  0.1559
28460W        W44721   4.657  18.076  13.369 -0.0857 -0.0551  0.0860
28461W        W44722   4.466  12.988   1.359 -0.4715 -0.1140  0.0300
28462W        W44723  18.582  14.842   2.875 -0.1143 -0.2573  0.0751
28463W        W44724  10.826  12.365  10.757  0.1500 -0.2936 -0.3526
28464W        W44725   8.888   0.880  13.984 -0.0254 -0.2023 -0.0558
28465W        W44726   1.938   7.441   1.130  0.1647 -0.1863  0.0575
28466W        W44727  18.577   5.068   5.438 -0.0640 -0.0433  0.1312
28467W        W44728   1.042   8.313  14.482  0.0477  0.0546  0.0230
28468W        W44729   1.785   2.510  11.624  0.1333  0.2005 -0.1472
28469W        W44730  14.244  11.161  11.055 -0.1166 -0.3167  0.1434
28470W        W44731   2.998   7.607   3.503 -0.1258 -0.2193 -0.2339
28471W        W44732  17.083   0.980   3.805  0.1015 -0.3234  0.1014
28472W        W44733   9.729   0.029  14.688  0.3502 -0.1881  0.1154
28473W        W44734   0.902  11.044  15.109 -0.0096  0.0900  0.1261
28474W        W44735  16.675  17.438   3.649 -0.0145  0.0217 -0.2226
28475W        W44736  16.607   5.429  13.608  0.1473 -0.0536  0.3377
28476W        W44737   4.017   5.688   1.186 -0.0220  0.1037 -0.0739
28477W        W44738  16.914  10.370  10.918 -0.1403 -0.0815  0.1883
28478W        W44739  12.520   4.589  14.286  0.0258 -0.1411  0.0586
28479W        W44740  13.242  18.439  14.287  0.1964 -0.4032 -0.2368
28480W        W44741   3.495   6.665   1.551 -0.0608  0.0396 -0.3787
28481W        W44742  14.604   3.670   2.962 -0.0022 -0.0593 -0.4491
28482W        W44743   7.201  15.406   5.563 -0.0915  0.0843  0.0886
28483W        W44744   5.590   3.101   1.693 -0.2330 -0.0595 -0.1271
28484W        W44745  15.929   1.754   3.856 -0.0797  0.1029 -0.0592
28485W        W44746  13.588   0.542  14.710  0.0497  0.0683 -0.1018
28486W        W44747   2.828  16.089  11.239  0.2762 -0.1784 -0.0247
28487W        W44748   7.000  11.672  12.617  0.1037  0.2111 -0.0291
28488W        W44749   6.176  14.884  11.765 -0.1584 -0.2752 -0.0876
28489W        W44750   8.188   7.549   3.078 -0.0778  0.0135 -0.1620
28490W        W44751   3.069  12.965  15.439  0.1446  0.0851 -0.2265
28491W        W44752   0.192   1.751   2.463  0.0113  0.1491 -0.0888
28492W        W44753   3.253   1.136  13.104 -0.2918  0.3110  0.1603
28493W        W44754   1.251   4.433  11.805 -0.1214 -0.0018  0.0789
28494W        W44755   4.819  18.826  13.193  0.2129  0.2631  0.1659
28495W        W44756   3.439  13.401   3.867 -0.0073 -0.0605  0.0659
28496W        W44757   2.091   2.737  12.932  0.0354  0.2020 -0.0756
28497W        W44758  16.125  11.406   1.090 -0.0966 -0.0416  0.0660
28498W        W44759   9.458  12.041   0.337  0.3006 -0.2069 -0.2162
28499W        W44760   8.795   4.750   1.267 -0.2783  0.0655  0.1310
28500W        W44761   7.263  17.358   0.912 -0.1462  0.2434  0.1188
28501W        W44762   1.622   0.166  15.163  0.0743 -0.0623 -0.4050
28502W        W44763   6.671   9.866   5.295  0.3752 -0.1051 -0.0547
28503W        W44764   2.189  11.779  14.189  0.0450  0.4161  0.3647
28504W        W44765  18.754   6.507   1.928  0.2413 -0.0016  0.0135
28505W        W44766  12.664   1.571  13.727  0.1268  0.0837 -0.0202
28506W        W44767  11.500   9.396  13.349  0.0687  0.2877  0.0500
28507W        W44768  10.727  11.110  11.851  0.0526  0.1747 -0.4325
28508W        W44769   8.627   6.600   4.471 -0.1189 -0.1734  0.1519
28509W        W44770  16.926  15.634  12.606  0.2138 -0.2068  0.3181
28510W        W44771   9.615   7.702   2.739  0.0280  0.1618  0.1640
28511W        W44772  10.794  18.327  11.808  0.2908 -0.1300  0.2550
28512W        W44773  12.730   0.488   0.336  0.4819  0.1752 -0.0545
28513W        W44774  17.408  16.207  12.059  0.0435 -0.1764  0.0310
28514W        W44775   2.606   5.563   0.780 -0.0415 -0.2163 -0.2423
28515W        W44776   7.694  11.295   2.743 -0.1107 -0.1296 -0.0017
28516W        W44777   3.594  10.622  13.208  0.1176  0.0195  0.1026
28517W        W44778  12.169  11.128  14.120 -0.3606 -0.1427  0.1019
28518W        W44779   1.421  12.168   4.661  0.1696  0.1606 -0.3549
28519W        W44780  17.006  16.066   1.751  0.1260  0.0836 -0.1627
28520W        W44781   9.734   7.800  14.967 -0.1313 -0.1662  0.0260
28521W        W44782  17.672  16.958   4.800  0.1711 -0.0694 -0.0230
28522W        W44783   5.837  16.031   1.430  0.2477 -0.3095  0.1231
28523W        W44784  12.521  17.792   5.302  0.2031  0.2214  0.4903
28524W        W44785  11.225  11.345  10.178 -0.3725 -0.1077  0.2921
28525W        W44786   2.011   4.813  11.197 -0.3594 -0.1658 -0.2175
28526W        W44787   1.935   0.717   2.756  0.0925  0.1208 -0.2047
28527W        W44788  16.727  17.917   3.850 -0.0852 -0.0903  0.1229
28528W        W44789   0.329   9.977   0.815  0.0276  0.3844  0.1543
28529W        W44790  12.679   0.469   1.136 -0.0625  0.0513  0.4828
28530W        W44791   8.202   0.174   3.906  0.0400 -0.2722 -0.1737
28531W        W44792   3.681  16.333  13.480  0.0808  0.3835  0.2371
28532W        W44793  10.783  13.462   3.289 -0.3344 -0.2533 -0.0734
28533W        W44794  16.871   7.972   0.628  0.3270  0.1576  0.0954
28534W        W44795   4.774  10.016   4.281  0.1933  0.0688 -0.1832
28535W        W44796   8.465  16.764   2.348 -0.1395  0.2874 -0.2508
28536W        W44797  12.931   7.333  15.508 -0.0230  0.3289  0.2179
28537W        W44798  14.268   2.000  15.509  0.0649 -0.0565  0.2146
28538W        W44799  15.489   5.768  12.035 -0.2226 -0.2217  0.2010
28539W        W44800  17.861  14.523   0.272 -0.1243 -0.0283  0.2613
28540W        W44801   8.559   0.881  13.502 -0.0530  0.0693  0.1883
28541W        W44802  12.742   2.889  13.654 -0.4075 -0.1705 -0.2324
28542W        W44803  14.668   3.028  10.813 -0.1561  0.2362 -0.3447
28543W        W44804   8.605   3.218   1.119 -0.0250  0.2280 -0.2312
28544W        W44805  11.568  12.662   5.684 -0.2572  0.3405 -0.0201
28545W        W44806   2.977   9.555   5.088 -0.4692 -0.3981  0.4156
28546W        W44807  13.942  10.904  11.551 -0.0214  0.3045 -0.0973
28547W        W44808  13.006  11.107  10.879 -0.0678 -0.0014  0.0109
28548W        W44809  10.860   6.406  14.608  0.0227 -0.3866  0.2151
28549W        W44810   1.827  10.123   2.923 -0.2356  0.0940 -0.2915
28550W        W44811  11.515  18.589  11.737 -0.1428  0.3113 -0.0848
28551W        W44812  18.322  10.755   3.914  0.1648  0.1781  0.2875
28552W        W44813  15.086   0.933   2.616 -0.1990 -0.3001  0.0443
28553W        W44814   4.857   8.088   5.652 -0.0274  0.1515 -0.1116
28554W        W44815  11.240  15.458   0.462  0.0989 -0.1820  0.2154
28555W        W44816   8.957  16.917  14.663  0.1541 -0.2187 -0.3639
28556W        W44817  13.626   1.187  12.359 -0.1322  0.0094  0.0573
28557W        W44818  14.429   6.295   2.897  0.0407 -0.1013  0.1436
28558W        W44819   2.457  15.861  12.963 -0.0497 -0.1088  0.0470
28559W        W44820  10.441  17.961   0.391  0.5298 -0.2206 -0.0702
28560W        W44821  17.409  16.533   4.962 -0.4149  0.0544  0.3114
28561W        W44822   3.011  10.939  14.989  0.2610  0.0431  0.2414
28562W        W44823   2.830  10.162  15.452 -0.2318  0.0663 -0.0736
28563W        W44824   4.452   1.827  14.760 -0.3861 -0.0228 -0.1688
28564W        W44825   3.912  16.327   0.006  0.1451  0.0549  0.1785
28565W        W44826   1.267  10.281  11.816 -0.1219 -0.1293  0.0478
28566W        W44827   0.815  14.094  14.433 -0.0517 -0.1169  0.1328
28567W        W44828   0.238  12.194   1.694  0.0720  0.4151 -0.1788
28568W        W44829  14.405  12.599  13.358  0.0736  0.0304  0.0264
28569W        W44830  11.365  11.509   2.817  0.0016 -0.0369  0.0449
28570W        W44831  14.272   3.683  13.662  0.2625  0.0870  0.1403
28571W        W44832   1.405  13.165   4.753 -0.2348  0.2263  0.2395
28572W        W44833  10.556  17.659  14.253  0.1798  0.0995 -0.0281
28573W        W44834   4.310   2.165   4.469 -0.0072  0.2320  0.1049
28574W        W44835  10.490  16.391   3.981  0.0357 -0.0292 -0.1440
28575W        W44836   4.798  13.277  14.097 -0.0930 -0.0573 -0.3063
28576W        W44837  15.757  11.347  14.682  0.0001  0.1145 -0.3877
28577W        W44838  14.637   1.323   2.434  0.0216  0.0740 -0.2135
28578W        W44839   3.644  15.502   1.516 -0.0602 -0.0032 -0.0715
28579W        W44840   3.660  18.067  14.275 -0.1416  0.0633 -0.1299
28580W        W44841   3.389  13.516   2.276  0.0141 -0.3620 -0.0436
28581W        W44842   8.216   1.479  13.504  0.0554  0.2059  0.2801
28582W        W44843  15.745   9.622   3.917  0.1015  0.0812 -0.1084
28583W        W44844   1.948   7.531  11.794 -0.2099  0.0336  0.2971
28584W        W44845  17.899  10.086   2.515 -0.0553 -0.0967  0.1088
28585W        W44846  13.560   1.107   0.365 -0.1230 -0.2269  0.1750
28586W        W44847   8.775  17.629   2.294 -0.0952 -0.0054  0.1067
28587W        W44848  16.010  12.479   5.566  0.1280 -0.0285 -0.0478
28588W        W44849   6.875  17.058   0.278  0.1316  0.2241 -0.1695
28589W        W44850  16.762  16.343   5.598 -0.0019  0.0338  0.3380
28590W        W44851   0.261  10.755   2.566  0.0795 -0.3877 -0.0957
28591W        W44852   4.650  15.651   4.818  0.2417 -0.0128  0.2612
28592W        W44853  13.794   1.435  15.071  0.1569  0.2335  0.0619
28593W        W44854  14.164   7.492   4.584 -0.0752 -0.1085  0.0858
28594W        W44855  10.177  11.152  11.480 -0.2320  0.0464 -0.1301
28595W        W44856   6.263   9.625   0.392 -0.1231 -0.1095  0.0928
28596W        W44857   7.577  10.826  15.520  0.1368  0.0556  0.1591
28597W        W44858  17.207   7.445   3.991 -0.0122 -0.3437 -0.1320
28598W        W44859  11.124   2.090  14.927  0.1139 -0.1309  0.1323
28599W        W44860   1.783   7.285  13.623  0.0260 -0.0627  0.2480
28600W        W44861   0.542   2.085   2.353  0.0516  0.0742  0.2073
28601W        W44862  10.664   7.657   4.275  0.1954 -0.1281 -0.1840
28602W        W44863   2.038   5.921   1.663  0.2270  0.2034 -0.1850
28603W        W44864   8.848  14.864  12.775  0.3657  0.5888  0.1073
28604W        W44865   6.133   1.049   2.362  0.0119 -0.2183  0.3152
28605W        W44866   0.292   5.078   2.510 -0.0540  0.0260  0.0230
28606W        W44867   7.935  13.014   3.915 -0.6593  0.1389 -0.1717
28607W        W44868   7.450   7.163  12.526 -0.0518 -0.0343  0.0991
28608W        W44869  17.184  17.829  10.698 -0.0525  0.0266 -0.0372
28609W        W44870  14.861   7.572   5.060 -0.1194 -0.1198  0.1905
28610W        W44871  18.532   0.246   2.695  0.2351 -0.0527 -0.1267
28611W        W44872  12.836  16.360   5.013 -0.0910 -0.0061 -0.4606
28612W        W44873  16.688   6.304   3.614  0.0336  0.1488 -0.1539
28613W        W44874   0.871  12.606  11.456 -0.1493  0.2249 -0.1219
28614W        W44875   6.168   1.320  15.526 -0.0851  0.1464  0.0230
28615W        W44876   4.737   0.142   1.670 -0.0073 -0.0117 -0.2585
28616W        W44877   0.474   6.945   5.773  0.2046  0.3070  0.0576
28617W        W44878   6.181   1.795  13.147  0.0383 -0.0324  0.1635
28618W        W44879   5.004   8.528   5.783 -0.1669  0.0330 -0.0763
28619W        W44880   0.897  15.222   0.048  0.0491  0.1910  0.2184
28620W        W44881   1.039  11.520  13.165  0.2108  0.1301 -0.1655
28621W        W44882  18.448  18.243   2.718 -0.2375  0.2877 -0.1552
28622W        W44883   8.017   7.645  11.218  0.3765 -0.1211 -0.3937
28623W        W44884  15.560   3.113   3.884  0.1117 -0.0233  0.0698
28624W        W44885   3.718   7.181  11.905 -0.1616  0.5338  0.0766
28625W        W44886   0.449  10.327   2.661  0.0104  0.0877  0.0435
28626W        W44887  17.704  10.445  12.652 -0.2914 -0.0102 -0.1732
28627W        W44888   1.763  13.482  11.558  0.1558 -0.3961 -0.2670
28628W        W44889   4.286   2.928  13.590  0.2379 -0.2012  0.0800
28629W        W44890  12.274  14.244   4.734  0.0283  0.1238  0.0721
28630W        W44891   2.723   1.081  11.671  0.0493  0.0178  0.1225
28631W        W44892   0.117   5.276   0.665 -0.1031 -0.3035  0.1354
28632W        W44893   0.129   2.538   1.397  0.1644 -0.1284 -0.0500
28633W        W44894   3.548  14.725   0.890 -0.1736 -0.0609 -0.2151
28634W        W44895   8.715  16.284  15.403 -0.0115 -0.0483  0.0389
28635W        W44896   9.374   3.447   4.924  0.0044 -0.2549 -0.2209
28636W        W44897  16.623   4.912   4.252  0.0963  0.0456 -0.0680
28637W        W44898   4.961   7.000   2.216  0.2480  0.3631  0.0498
28638W        W44899  10.261  11.232  13.984  0.2576 -0.2442  0.0433
28639W        W44900  10.900  12.884   1.031  0.0277 -0.0605 -0.1145
28640W        W44901  15.647  16.845   4.268 -0.0377 -0.2484  0.0806
28641W        W44902   8.195   0.251  12.883 -0.0231 -0.0759  0.1161
28642W        W44903  12.698   4.511   0.428  0.0465 -0.2413  0.0749
28643W        W44904  16.028   3.323   2.175  0.2407 -0.0964 -0.0357
28644W        W44905   2.536  14.590   3.704  0.2520  0.0582  0.1695
28645W        W44906   3.343  14.816  11.216 -0.0568  0.4219 -0.2229
28646W        W44907   3.692   6.368   5.052 -0.2408 -0.0087  0.0447
28647W        W44908  17.916   6.566  11.059  0.0855 -0.1219 -0.1839
28648W        W44909  14.031   6.263  12.564  0.4597  0.1359 -0.1263
28649W        W44910   2.454  16.424  15.015 -0.1748  0.0708 -0.0303
28650W        W44911   6.051   0.927  12.091 -0.2669 -0.0414 -0.3364
28651W        W44912  11.967   6.592  11.637  0.2134  0.1761 -0.1695
28652W        W44913  11.487  12.500  14.530  0.0136 -0.1451  0.1763
28653W        W44914   3.377   2.286   1.475  0.2672  0.1321  0.0730
28654W        W44915  11.543  15.520  12.870 -0.1608  0.0228  0.2320
28655W        W44916   9.957   5.571  13.905 -0.0953 -0.2811 -0.2492
28656W        W44917   1.784   1.515   3.051  0.2061 -0.1129  0.1904
28657W        W44918  15.839   9.966   2.923  0.2054 -0.0934  0.1980
28658W        W44919  18.200   9.545  11.171 -0.0361  0.0021 -0.0847
28659W        W44920   3.844   0.010   3.297 -0.0929  0.0940  0.1855
28660W        W44921  14.547   7.732  13.971 -0.4032 -0.2419  0.2477
28661W        W44922  13.452  17.134  13.251  0.0159 -0.0091  0.1367
28662W        W44923   3.274  14.267   4.136  0.1547 -0.0058  0.1678
28663W        W44924  14.337  13.991   0.874  0.3561 -0.1231 -0.1312
28664W        W44925   9.125  17.197   6.219 -0.1398  0.0669 -0.1747
28665W        W44926   7.568  15.005   4.800  0.1425  0.1799  0.0457
28666W        W44927  11.733  18.348  13.979 -0.0866  0.0037 -0.0471
28667W        W44928  10.345   7.170  11.812  0.1397  0.0074  0.0335
28668W        W44929  14.905  11.236  13.923 -0.0085  0.2923  0.1870
28669W        W44930  12.476   9.359   0.739 -0.3812 -0.0444 -0.0972
28670W        W44931  16.245   3.151  13.534  0.2500  0.2533 -0.0904
28671W        W44932   8.956  13.483  12.077  0.0016  0.0043  0.0153
28672W        W44933   4.238   4.635   1.767 -0.0903 -0.1865  0.0311
28673W        W44934  18.455   9.293   3.987  0.1544 -0.1074 -0.1864
28674W        W44935   0.951   1.264  12.363 -0.1421  0.2393  0.0158
28675W        W44936  13.848  18.025  10.722 -0.1650  0.1384  0.0121
28676W        W44937   7.474   5.371   5.240 -0.0714 -0.0997  0.0769
28677W        W44938  18.275  10.221   9.860 -0.0723  0.2072 -0.0290
28678W        W44939   0.322  16.661  12.292  0.0486  0.0253  0.0498
28679W        W44940  18.785   8.484   0.063 -0.3198 -0.0420  0.1222
28680W        W44941   5.222   3.418  13.222  0.0798 -0.1001  0.2057
28681W        W44942  15.214   0.096  10.670  0.3554  0.2919  0.0091
28682W        W44943   4.257  15.684   4.271 -0.0300 -0.0283 -0.2619
28683W        W44944   4.726   9.097   4.054  0.2578  0.1121  0.0359
28684W        W44945   6.269  13.969  11.499  0.1408  0.1971 -0.0058
28685W        W44946   9.403  12.686  12.730 -0.1594  0.0325 -0.0694
28686W        W44947   5.082  10.737  14.308  0.1907  0.0122 -0.1461
28687W        W44948  17.739   5.033   2.184 -0.1103  0.2725 -0.1399
28688W        W44949  12.258   0.162  11.553 -0.0192  0.1054 -0.0182
28689W        W44950  11.281   5.207  11.766 -0.2645 -0.0252 -0.1298
28690W        W44951   5.719   2.107   3.157  0.0845 -0.1362 -0.0044
28691W        W44952   4.087   7.646  15.148 -0.0540 -0.1763  0.0752
28692W        W44953   7.673   1.888   4.541 -0.0806  0.2548 -0.2097
28693W        W44954  10.318   1.534   1.083 -0.3422 -0.0110  0.1690
28694W        W44955  17.417   7.083  10.630 -0.2030 -0.0962  0.2288
28695W        W44956   6.210   5.310  13.183  0.0515 -0.1796  0.0658
28696W        W44957   6.358  12.927   3.765 -0.1768  0.0142 -0.0844
28697W        W44958  13.053   5.710   4.826  0.1141 -0.1117 -0.2292
28698W        W44959  15.831   9.763  11.227 -0.2027  0.3252 -0.1936
28699W        W44960  10.441   6.793  13.511  0.0540 -0.0974  0.0678
28700W        W44961  18.115   6.627   5.202 -0.0438  0.0814  0.1747
28701W        W44962   8.642   2.768  15.481  0.2426  0.2497  0.3035
28702W        W44963   1.001  16.197  13.233  0.0198 -0.2995  0.0521
28703W        W44964  18.436  11.724  10.829  0.1583  0.0800  0.0524
28704W        W44965  14.440  16.261  14.437  0.1632 -0.1497 -0.1077
28705W        W44966  12.091  14.292  12.311 -0.1263  0.2849 -0.0378
28706W        W44967   2.988   2.786  15.563 -0.0903 -0.2004 -0.1950
28707W        W44968  11.919  18.466   5.240  0.2174 -0.1066 -0.0828
28708W        W44969  14.245  17.121   2.168  0.0672  0.0220 -0.2221
28709W        W44970   3.274   0.876   4.071  0.0994  0.1113  0.1169
28710W        W44971   9.573  12.330   2.462  0.0245  0.1990  0.3426
28711W        W44972   7.031   9.125  13.538 -0.1950  0.2727  0.0350
28712W        W44973  17.142  13.907   3.587 -0.0417  0.1032  0.2575
28713W        W44974   4.053   4.712  13.205 -0.1446 -0.1529  0.0510
28714W        W44975  14.697   2.264   1.850  0.0508 -0.1172 -0.0386
28715W        W44976   9.754  14.823  11.247  0.0032  0.2704 -0.1199
28716W        W44977   0.188   5.597  10.858  0.2025  0.0217 -0.0219
28717W        W44978   8.138  13.063   4.527  0.1955 -0.5355 -0.0331
28718W        W44979   8.268  14.253   3.924 -0.1646 -0.1456 -0.1330
28719W        W44980  10.617   2.898  13.278  0.0614  0.1479  0.2841
28720W        W44981   2.393   5.882   2.615 -0.3007 -0.0656 -0.1062
28721W        W44982   0.296   1.656   1.445  0.3443 -0.0987 -0.2460
28722W        W44983   7.549  13.414   2.392 -0.2060  0.0731 -0.2736
28723W        W44984   1.444  10.547  14.320 -0.0231  0.0537 -0.2947
28724W        W44985   9.878   3.854   4.101  0.2063 -0.0627 -0.0586
28725W        W44986   7.504   0.572  11.687 -0.1472  0.1914  0.1581
28726W        W44987   5.415   6.331  12.645  0.0336 -0.0171  0.3239
28727W        W44988  11.795  16.559  13.578  0.1080 -0.0205  0.3503
28728W        W44989  16.305  10.681   2.446  0.2544 -0.1240  0.2515
28729W        W44990   0.338  12.203  12.210  0.0257 -0.0636  0.0455
28730W        W44991   2.996   7.071  13.136 -0.2904 -0.0826 -0.3607
28731W        W44992   3.079   5.498   0.962 -0.1420 -0.1608 -0.2606
28732W        W44993  18.668   6.405   3.274 -0.0376  0.2819  0.0728
28733W        W44994   0.645  10.450   5.601 -0.1059 -0.0812  0.0142
28734W        W44995  13.153  17.073   2.015  0.2869  0.3417  0.0718
28735W        W44996   4.658   2.236   2.143 -0.0791  0.0737 -0.0029
28736W        W44997  15.165   4.388  12.857  0.3192 -0.3103 -0.0004
28737W        W44998  17.255  18.609   1.074  0.2496 -0.2039  0.1593
28738W        W44999  16.496  15.590  13.122  0.1035 -0.0077  0.0962
28739W        W45000  12.819   6.128   1.405 -0.1615  0.0743 -0.2763
28740W        W45001   2.188   7.186   2.437 -0.0262 -0.1352 -0.3237
28741W        W45002  17.559  11.502  12.409  0.1038  0.1040  0.0764
28742W        W45003  14.410   1.240  13.042 -0.1779 -0.0774  0.1491
28743W        W45004  15.941   4.941   1.822 -0.0490 -0.0040  0.0381
28744W        W45005   0.225  17.176   1.025  0.0577 -0.1519 -0.5357
28745W        W45006   9.039  17.590   5.575  0.0494 -0.1216  0.2590
28746W        W45007  15.395  11.978  15.587 -0.0213  0.0996 -0.0185
28747W        W45008   1.712  12.594  13.650 -0.0014  0.0875  0.0379
28748W        W45009   3.671   3.783   0.968  0.6267 -0.2364 -0.0955
28749W        W45010   5.107  13.212   0.251  0.1710  0.1280  0.0517
28750W        W45011   2.164   8.750   2.788 -0.3154 -0.0324 -0.1010
28751W        W45012  15.642  10.201   1.496  0.1217 -0.1993 -0.1410
28752W        W45013   1.674  11.087  13.843  0.2566 -0.2916 -0.0905
28753W        W45014  18.319  16.291  13.287 -0.1289  0.2517  0.2960
28754W        W45015  13.414  11.734  12.079 -0.3214  0.0163  0.2214
28755W        W45016   8.274   0.193  11.541 -0.2964 -0.0052  0.1128
28756W        W45017  16.056  12.865   3.399 -0.1380  0.0500  0.0628
28757W        W45018   1.417   2.289  10.724  0.0917  0.2293 -0.2330
28758W        W45019   8.530  13.026   0.636  0.0431  0.0990  0.4572
28759W        W45020  13.666  18.661  14.432  0.0392 -0.3743 -0.1205
28760W        W45021  12.830  12.747  11.123  0.0416 -0.3263 -0.3003
28761W        W45022   6.894   1.495  15.159  0.1908 -0.0569 -0.2754
28762W        W45023   2.265  18.804  12.824 -0.1578  0.1771  0.1659
28763W        W45024   2.390  13.471  15.072  0.1637 -0.0887  0.0796
28764W        W45025   5.204   6.257  14.524  0.1150  0.0797  0.2693
28765W        W45026   0.199  11.757  11.338  0.2370  0.1072 -0.1319
28766W        W45027   9.926   0.719  13.585  0.4654  0.1712  0.2615
28767W        W45028   1.129  13.955  12.820  0.1244 -0.1164 -0.0639
28768W        W45029   5.140   4.236  11.989 -0.0182  0.1388  0.0071
28769W        W45030   2.759  13.801   3.662  0.2240 -0.1159 -0.1019
28770W        W45031   4.792   0.349  14.727  0.4994 -0.4122 -0.0106
28771W        W45032   6.039  14.039   1.566  0.0522 -0.0429  0.2969
28772W        W45033   1.600   2.590   3.677  0.1326 -0.0324  0.0787
28773W        W45034   7.327   1.439   4.386  0.1109  0.2819 -0.4042
28774W        W45035  17.771   5.308  12.958  0.1303 -0.2117 -0.3516
28775W        W45036   8.345  15.135   0.090 -0.1895  0.0086  0.0590
28776W        W45037  12.738   9.040  10.924 -0.0330 -0.3909  0.0031
28777W        W45038  14.639   3.666  11.382 -0.5508 -0.1522 -0.0148
28778W        W45039   6.577   5.339   3.057 -0.1182 -0.1888 -0.2825
28779W        W45040   0.594   8.308  13.693 -0.1455  0.1159  0.3383
28780W        W45041  10.885   9.579  14.746 -0.1882  0.1543  0.2525
28781W        W45042   8.246   4.338   2.581 -0.2203 -0.1731  0.2952
28782W        W45043   6.423  16.575  14.512  0.0353  0.2920  0.2167
28783W        W45044  11.587   0.792   4.828 -0.0696  0.2393 -0.1360
28784W        W45045  14.282  10.059   2.828 -0.4062  0.2650 -0.1708
28785W        W45046   3.495  10.432  11.764 -0.2074  0.2240  0.0434
28786W        W45047  12.349   6.642   2.118  0.0332 -0.1099 -0.0774
28787W        W45048  10.591   9.687   1.084  0.0405 -0.0149  0.2961
28788W        W45049  15.122   2.688  10.689 -0.3220 -0.1391  0.0599
28789W        W45050   1.883  14.599  10.244  0.0342  0.0229  0.0036
28790W        W45051   7.004  14.992   3.010 -0.1422  0.1887  0.2241
28791W        W45052   8.261   0.434   2.337 -0.0417 -0.0831 -0.2430
28792W        W45053   5.148  17.653   1.946  0.2419 -0.2848  0.1999
28793W        W45054  11.179  14.094  10.538 -0.1792 -0.2466 -0.1503
28794W        W45055   7.825  17.623   1.669 -0.2768 -0.5176 -0.0131
28795W        W45056  13.289  16.289   2.513 -0.0244 -0.1120 -0.0631
28796W        W45057   5.307  18.224  14.854 -0.1663  0.0185 -0.3681
28797W        W45058  13.814  18.208   1.724  0.0393 -0.0647 -0.1709
28798W        W45059   3.796   1.008  10.598  0.4082  0.3895 -0.3125
28799W        W45060   5.579   7.636   2.501  0.0327 -0.1307  0.0213
28800W        W45061   4.912  13.261   4.703 -0.0984  0.1012 -0.0797
28801W        W45062   1.612  12.363   0.090 -0.3093  0.1235 -0.1105
28802W        W45063  11.637  16.684   4.777 -0.0866 -0.0019  0.2133
28803W        W45064   0.533   2.496  12.179  0.1107 -0.0898  0.1571
28804W        W45065   3.914  15.237  12.892 -0.0530  0.2628 -0.0349
28805W        W45066  16.215  16.442  12.807  0.0150  0.0887 -0.3994
28806W        W45067   0.818  15.660   0.701  0.0473  0.0960 -0.2016
28807W        W45068   4.047  15.816  11.642 -0.0798 -0.1083 -0.2155
28808W        W45069   2.938   7.459   1.931 -0.3260  0.3273 -0.1492
28809W        W45070  17.294  12.814   4.230  0.2068 -0.2257  0.1846
28810W        W45071   0.501   1.011  13.269  0.0172  0.2190  0.0956
28811W        W45072  18.328   2.080  12.354 -0.0057 -0.0549  0.0124
28812W        W45073  12.991   5.503   2.949  0.1693  0.0188 -0.1444
28813W        W45074   5.266  12.629   4.186 -0.0392  0.0875  0.1105
28814W        W45075  18.296  12.979   3.800 -0.2805  0.3620 -0.2850
28815W        W45076  18.498  12.462   0.886  0.1036 -0.0770  0.2086
28816W        W45077   1.614   8.987  12.895 -0.1547  0.3419 -0.0504
28817W        W45078   8.769   3.607  15.256 -0.2905 -0.1368 -0.1689
28818W        W45079  13.317   9.887   1.209  0.0040  0.2011  0.1970
28819W        W45080  10.408   7.927   2.042 -0.0122 -0.0177 -0.0613
28820W        W45081   9.878   7.393   2.030 -0.1477  0.2232  0.0957
28821W        W45082  17.570   2.747  11.405  0.1359 -0.1092  0.2161
28822W        W45083   0.668   3.742   0.788  0.4096  0.0010 -0.0702
28823W        W45084  18.189  12.464  12.406 -0.0275  0.1766 -0.4575
28824W        W45085   3.237  12.280  14.647 -0.2067 -0.1016 -0.0722
28825W        W45086   4.409  14.000  12.468  0.1557  0.0322  0.0081
28826W        W45087   3.801   7.968  13.932 -0.0851  0.2914  0.4333
28827W        W45088  16.521  11.521   0.093  0.0776  0.3231  0.0661
28828W        W45089  10.722   9.113  15.240 -0.2656  0.0977 -0.0488
28829W        W45090  10.946   3.382   1.412  0.0807 -0.0579 -0.1955
28830W        W45091  13.954   7.720  10.760  0.4099 -0.1699 -0.0079
28831W        W45092  15.569   0.699  14.398  0.1828 -0.0735 -0.2154
28832W        W45093  16.235  15.406   2.830  0.0255  0.0680 -0.2622
28833W        W45094  10.328  13.203  13.007  0.0498  0.2914 -0.0012
28834W        W45095   2.984   2.265   2.874  0.4095  0.0614  0.0547
28835W        W45096  16.365   5.424  13.053  0.0957  0.0810 -0.2216
28836W        W45097   2.821  11.122  10.903 -0.1955 -0.1487 -0.1260
28837W        W45098  18.108   5.096   0.432  0.0159  0.3238  0.1056
28838W        W45099   0.342   3.015  14.853 -0.0557  0.1183 -0.1092
28839W        W45100   1.404  12.599  11.632  0.1932  0.1991  0.2505
28840W        W45101  10.806  16.626   4.284  0.0785  0.0525 -0.1046
28841W        W45102   9.810   2.874  13.555 -0.0533  0.2299  0.0640
28842W        W45103  11.524  16.559  14.925 -0.3065  0.1141 -0.2236
28843W        W45104   5.645   6.879  13.363 -0.2901  0.2886 -0.2586
28844W        W45105  12.466   0.381  11.148 -0.0809  0.3733  0.3974
28845W        W45106   8.186  12.291  11.832  0.1251 -0.1293 -0.0538
28846W        W45107   1.466  11.587   1.626 -0.2809 -0.0442  0.0064
28847W        W45108  11.218  12.004   2.721 -0.2833 -0.0054 -0.0185
28848W        W45109   2.368   8.463  13.533  0.2720  0.0624  0.0619
28849W        W45110  15.043  15.356  14.196  0.0798 -0.1931  0.0468
28850W        W45111   1.679   7.756   5.284 -0.3534 -0.0392  0.0270
28851W        W45112   1.487   8.872   4.121  0.3227 -0.0244 -0.1594
28852W        W45113   9.503   0.865   2.606 -0.4597 -0.0499  0.1920
28853W        W45114  16.865  12.628   4.373 -0.0267 -0.3832  0.2418
28854W        W45115   9.820  15.438  15.437  0.0443  0.3469  0.1586
28855W        W45116  15.192  10.988  10.816 -0.0542  0.2266 -0.1757
28856W        W45117   5.472   6.895   0.332 -0.1355  0.1567 -0.2467
28857W        W45118  16.680  10.293   1.717  0.1309  0.1224 -0.0110
28858W        W45119   5.660   6.404   4.841  0.0232 -0.2897  0.1567
28859W        W45120   4.765  16.034   6.087 -0.0910  0.1049  0.0042
28860W        W45121  16.219   9.886   3.239 -0.2541  0.2058  0.0848
28861W        W45122   5.428  16.724   2.852 -0.1009  0.1308 -0.1157
28862W        W45123  12.076   2.324   2.945  0.1090 -0.1112  0.2472
28863W        W45124  14.952   4.816  11.095 -0.1382 -0.0338  0.2610
28864W        W45125  17.550   0.025   0.652 -0.2926  0.2361 -0.0271
28865W        W45126  16.949   2.920   2.382 -0.1183 -0.0301 -0.1419
28866W        W45127  13.601   0.379   2.587  0.1240 -0.2233  0.0199
28867W        W45128  10.071  12.802  12.829  0.2976 -0.3051 -0.2558
28868W        W45129   7.756  14.047  12.696  0.2708  0.1121 -0.0403
28869W        W45130  12.080   7.730  13.058  0.4180  0.0749 -0.0342
28870W        W45131   7.840  15.006   3.008 -0.0390  0.1094 -0.0873
28871W        W45132  18.177   2.890  10.162 -0.0224  0.3441  0.0630
28872W        W45133   9.046   7.277  10.561 -0.0349 -0.1392  0.6372
28873W        W45134  11.766   8.414  11.623 -0.0261 -0.1281  0.2354
28874W        W45135  13.850   2.495   4.240 -0.2748 -0.0961 -0.0965
28875W        W45136   8.121   3.970   4.563  0.0103  0.1781  0.0755
28876W        W45137   9.456  18.331   3.355 -0.0574  0.0189  0.0931
28877W        W45138   7.852  13.895   4.149 -0.0963 -0.1445 -0.0005
28878W        W45139  14.004   8.939  12.315  0.5058 -0.0518 -0.0460
28879W        W45140   7.447   9.355   3.779  0.2073  0.2261 -0.0167
28880W        W45141   4.719  10.885  12.234  0.1340  0.1947  0.4061
28881W        W45142   4.809  14.259   0.795 -0.1806 -0.0835  0.2049
28882W        W45143  12.839   1.298  15.256  0.0511 -0.1202  0.0751
28883W        W45144  12.467   7.177   2.181  0.1743  0.0724 -0.0568
28884W        W45145   2.154  17.757  13.320  0.0463  0.0649 -0.1368
28885W        W45146  11.447  14.996  11.324  0.2620 -0.0041  0.3434
28886W        W45147  15.408   5.462  11.110 -0.0371 -0.2422  0.1331
28887W        W45148   3.223  12.971   1.479  0.1315  0.3241 -0.1272
28888W        W45149  16.142  15.174  12.675 -0.0577 -0.4251 -0.4961
28889W        W45150  18.578  10.289   5.463 -0.3421  0.0195 -0.1174
28890W        W45151  13.003  11.726   0.513  0.2649  0.1065  0.0386
28891W        W45152  18.629   5.029  14.694 -0.0365  0.0967 -0.0926
28892W        W45153   9.012   0.264  14.203 -0.1849  0.0259  0.0290
28893W        W45154   2.208  14.896   0.240 -0.1044  0.0650  0.1919
28894W        W45155   9.958   7.017   3.375  0.0897 -0.1083 -0.2360
28895W        W45156   6.041   3.861   0.589  0.4279  0.0361  0.3582
28896W        W45157  10.057   0.105  15.491 -0.1210  0.1809 -0.2307
28897W        W45158  13.118   3.585   2.675  0.0725  0.0917  0.0458
28898W        W45159  13.819   1.720  15.589 -0.2580  0.1582  0.1360
28899W        W45160  14.779   8.982   1.718 -0.0266  0.2656  0.0876
28900W        W45161   2.320   1.545  14.050  0.1017  0.0138  0.2299
28901W        W45162  11.385  15.012   1.627 -0.0584  0.0675  0.0561
28902W        W45163   4.365   6.324   2.225 -0.2126 -0.3805  0.0510
28903W        W45164   7.705  11.364  11.571  0.0017 -0.2784 -0.2993
28904W        W45165   1.174  18.442  13.281 -0.0124  0.0064  0.2549
28905W        W45166   6.978  16.183  15.459  0.1755 -0.0696  0.1265
28906W        W45167   9.333   4.580   3.599  0.0127  0.0300  0.0082
28907W        W45168   2.592  17.316   1.105 -0.0663 -0.1802  0.2063
28908W        W45169   1.223   3.754  10.931  0.0722  0.0276 -0.0303
28909W        W45170   1.959   2.828   1.764  0.2137 -0.2340  0.1716
28910W        W45171   3.332  17.103   3.580 -0.1035 -0.1088 -0.2158
28911W        W45172   4.606  13.225   2.340  0.0362 -0.0717  0.0061
28912W        W45173  15.229   8.655   0.217  0.2516  0.3429 -0.0857
28913W        W45174   2.713   8.031   1.264 -0.3130 -0.2643  0.0526
28914W        W45175   1.874   2.455  15.380  0.2799 -0.3176 -0.3925
28915W        W45176  11.387  15.755  15.073  0.1283  0.0791 -0.1479
28916W        W45177  16.903   7.518   2.804  0.1023 -0.2720 -0.0390
28917W        W45178   0.252  12.066   5.004  0.1729 -0.0288  0.2707
28918W        W45179  15.363  13.836   2.158 -0.0028 -0.3115 -0.1267
28919W        W45180   1.626  12.912   0.301  0.0536  0.1422  0.0971
28920W        W45181   8.317  10.971   5.839  0.0538 -0.0963 -0.2724
28921W        W45182  18.616   1.297  10.374  0.1627 -0.1546 -0.0637
28922W        W45183   9.687  13.588   0.867  0.2551  0.3591 -0.1920
28923W        W45184   0.845  15.846   4.689  0.0777  0.1056 -0.0958
28924W        W45185   0.322  14.481  15.415  0.1358 -0.2090  0.1332
28925W        W45186   8.112   0.518   5.840 -0.1349  0.1578 -0.0832
28926W        W45187   1.930   6.962  11.887 -0.1347 -0.2323 -0.1327
28927W        W45188   9.956  16.609   0.654 -0.3324 -0.3595 -0.2359
28928W        W45189  11.941  14.600  11.411 -0.2312  0.1920 -0.1322
28929W        W45190   5.603   3.124   1.197 -0.0834  0.0921 -0.1440
28930W        W45191   8.131   2.081  13.512 -0.2400  0.0388 -0.0736
28931W        W45192  13.648  12.769  12.963  0.1887 -0.0228 -0.1462
28932W        W45193   3.791   2.709  13.349  0.3621 -0.0745 -0.1373
28933W        W45194   2.292   8.991   4.715  0.2488  0.0454  0.2460
28934W        W45195   6.743   7.861   2.023 -0.1587 -0.0601  0.1759
28935W        W45196   2.249  12.442   1.426  0.1457  0.2175  0.0138
28936W        W45197   7.848   4.396  14.230 -0.1313  0.0958 -0.1500
28937W        W45198  13.279  15.450  14.870 -0.0349 -0.0305  0.1269
28938W        W45199   6.747   3.666   4.606  0.1261  0.1361  0.0588
28939W        W45200  12.697  11.033  10.492 -0.2148  0.2377 -0.1259
28940W        W45201   9.821  18.684   3.914 -0.0041 -0.2311  0.3926
28941W        W45202   5.819  15.211  14.407  0.1505  0.0553 -0.4099
28942W        W45203   0.943   7.419  10.782 -0.1092 -0.0677  0.0487
28943W        W45204  16.724   1.311  13.736 -0.2653  0.2190  0.0162
28944W        W45205  14.500   2.630   1.191  0.3015  0.1047 -0.0362
28945W        W45206  17.832   3.523  11.053  0.1105 -0.0308 -0.1439
28946W        W45207  14.538   0.883  13.986  0.0840  0.0832 -0.2318
28947W        W45208   5.381  13.526   5.387 -0.0280 -0.0193 -0.0860
28948W        W45209   1.467   3.450   0.236 -0.2832 -0.1056 -0.0559
28949W        W45210  12.784  18.675   5.390  0.1435 -0.4669  0.0586
28950W        W45211   9.443   5.338   2.224  0.1036 -0.2682  0.2698
28951W        W45212   8.014  16.915  10.343  0.2294  0.0658  0.2892
28952W        W45213   2.591   2.098  11.808  0.1671 -0.0213  0.0732
28953W        W45214  12.452  11.094   3.851 -0.3197  0.0431  0.1059
28954W        W45215  15.421  13.264  12.093 -0.0171  0.2377  0.0249
28955W        W45216  11.480  14.000  15.127  0.3639 -0.0802  0.0090
28956W        W45217  17.030   7.055   1.461  0.4635 -0.0003  0.1802
28957W        W45218   8.828   5.435   0.723  0.1011 -0.1049 -0.1676
28958W        W45219  16.575  15.509  10.658  0.1070  0.3667  0.1135
28959W        W45220  13.718   6.856   4.183 -0.1377 -0.1457  0.0635
28960W        W45221   6.871  11.266   9.937 -0.0317  0.0203 -0.1320
28961W        W45222  11.220  12.427   0.514 -0.3910  0.4220 -0.1131
28962W        W45223  15.405   7.497  10.576 -0.0231  0.0380 -0.0333
28963W        W45224   7.677   2.920   2.708  0.2692  0.1422 -0.1567
28964W        W45225   8.436  14.627  11.356  0.0400 -0.3289 -0.0837
28965W        W45226  16.687  12.113   1.304 -0.1213 -0.2120 -0.0966
28966W        W45227  15.535  16.756   0.630  0.2811 -0.1285 -0.0687
28967W        W45228   6.287   4.422  13.316 -0.0200  0.0891  0.0057
28968W        W45229  16.385   4.828  10.461 -0.0762 -0.3046  0.0738
28969W        W45230  15.719   4.494   1.644  0.2246  0.2569 -0.0328
28970W        W45231  14.415   4.841  13.255  0.2433  0.2253  0.4150
28971W        W45232  17.105   4.181   4.898 -0.1515 -0.0115 -0.1244
28972W        W45233  10.623  10.500  11.023  0.0772 -0.2367 -0.0997
28973W        W45234  18.786  16.736  14.664  0.1076 -0.2815  0.2482
28974W        W45235   2.672   6.840  12.593  0.1506  0.0158 -0.0631
28975W        W45236   8.205   2.326   1.448  0.2205  0.0935 -0.0586
28976W        W45237   0.547   4.505  15.123  0.1283  0.0249  0.2659
28977W        W45238   8.907  17.614   3.870  0.0558  0.0132 -0.2400
28978W        W45239  12.492  15.058  12.903  0.1875  0.0557 -0.0493
28979W        W45240  18.668  13.245   1.987  0.1038  0.1299  0.0487
28980W        W45241   6.858  15.375  13.349  0.0444  0.0592  0.0003
28981W        W45242   2.305  12.691  11.636 -0.0753 -0.3072 -0.2509
28982W        W45243   7.504   7.395  13.564  0.3517  0.3582  0.0287
28983W        W45244  16.910   7.553   5.163 -0.2434  0.3116  0.2156
28984W        W45245   8.530  10.662  15.202  0.0163 -0.0035 -0.0050
28985W        W45246   5.727   2.904   0.744  0.2992  0.1227  0.1241
28986W        W45247   8.571  11.751  14.281 -0.2655  0.1771 -0.1687
28987W        W45248  10.177  18.522   1.142  0.0030 -0.3513  0.1604
28988W        W45249  11.644   9.021   1.258 -0.2406 -0.0141  0.2572
28989W        W45250  10.230  12.282   5.069  0.3485  0.3317  0.1387
28990W        W45251   5.585  12.389  11.129  0.0423  0.2783  0.0184
28991W        W45252  18.017  10.054   1.604  0.0421  0.1177 -0.2765
28992W        W45253  17.617  16.964   3.623  0.1073 -0.1445  0.0299
28993W        W45254   4.065  10.182   0.229 -0.1967  0.0962 -0.1672
28994W        W45255  13.561  13.637  11.253  0.2053  0.0997  0.0199
28995W        W45256   5.248   4.753   2.056 -0.0705 -0.3649 -0.1139
28996W        W45257   8.247   0.436  14.546  0.0411 -0.1700  0.0358
28997W        W45258  17.480   7.372  15.184 -0.0303 -0.5319 -0.1259
28998W        W45259  18.613   2.403  15.102  0.2176  0.3292 -0.2712
28999W        W45260  17.065  10.522   2.416 -0.1286  0.0180 -0.0815
29000W        W45261   0.046   3.707   4.762 -0.1483 -0.1328 -0.2004
29001W        W45262   4.831   4.684  13.669 -0.0559  0.1290 -0.0065
29002W        W45263   7.479   0.352  15.362  0.3340  0.0813 -0.2996
29003W        W45264   2.094  14.757  12.680  0.2956  0.1887  0.0659
29004W        W45265  16.491   0.142  11.469 -0.1835  0.1897 -0.0779
29005W        W45266   3.262  13.560  12.677 -0.2020  0.0367  0.1768
29006W        W45267  18.648   5.796   1.207 -0.4261  0.1477  0.0205
29007W        W45268   6.434  17.845  13.075  0.0882 -0.3304 -0.2516
29008W        W45269   8.750   7.341   5.642 -0.1490  0.0578  0.0865
29009W        W45270  15.904   2.975   0.557 -0.0119 -0.0926  0.2339
29010W        W45271   0.330   0.870  14.963  0.0644  0.0927  0.2742
29011W        W45272  15.178   3.863   1.981 -0.1017  0.1209  0.1315
29012W        W45273   1.379   4.204   2.901 -0.1510 -0.1604  0.0069
29013W        W45274   5.297   2.554   3.917 -0.1020 -0.1866  0.2840
29014W        W45275  12.542  11.959  15.505 -0.1110 -0.3809  0.2094
29015W        W45276  17.779   0.007   1.116 -0.0069  0.0032 -0.0852
29016W        W45277  17.249   8.028  13.256  0.1076  0.1980 -0.0178
29017W        W45278  11.649  15.596  11.939  0.1464  0.4205 -0.3732
29018W        W45279   3.104  15.946  13.849 -0.1098  0.0433 -0.3124
29019W        W45280  17.579   0.428   3.410  0.0412  0.0106 -0.1553
29020W        W45281   9.745  18.606   2.879  0.2093  0.2596 -0.3111
29021W        W45282   8.506   7.791  14.202  0.1675 -0.0389 -0.1392
29022W        W45283   0.485   0.555  14.605  0.1571  0.3204  0.2619
29023W        W45284   9.404   7.236   2.881 -0.2176 -0.0130  0.1911
29024W        W45285  13.474   7.547  12.479 -0.1864 -0.3722  0.1213
29025W        W45286  16.566  13.656   1.882 -0.0410 -0.0566 -0.0012
29026W        W45287   6.984  12.508   2.346  0.0380  0.2482 -0.0647
29027W        W45288  17.179  12.013  10.797  0.1831  0.1172  0.0389
29028W        W45289   4.496  12.476   4.639 -0.0832  0.0985 -0.0426
29029W        W45290  11.926  15.095   5.091 -0.4396  0.0853 -0.1487
29030W        W45291   1.367  11.183   4.948 -0.0417  0.0267 -0.2788
29031W        W45292   6.943  10.681  13.398 -0.0456  0.0205 -0.4294
29032W        W45293   1.005   2.685  12.128 -0.0348  0.2888 -0.1366
29033W        W45294   5.396  13.777   0.027 -0.0938  0.1051  0.0422
29034W        W45295   7.403  17.483  12.991  0.1538  0.0215  0.1306
29035W        W45296   1.066  18.279   5.666 -0.0645  0.3895  0.1728
29036W        W45297  13.341  16.806   1.392  0.4555  0.1598  0.1262
29037W        W45298  12.134   8.946  13.556 -0.0867 -0.4257 -0.3470
29038W        W45299   4.388   1.024  15.373 -0.0958  0.0049  0.0702
29039W        W45300  15.549   9.480  11.793  0.0485 -0.0692 -0.2676
29040W        W45301  11.130  16.780   0.871 -0.0069 -0.1964 -0.1053
29041W        W45302  10.348   3.976   5.022  0.4134  0.7150 -0.1690
29042W        W45303   6.846   5.496  13.907  0.0143 -0.1642  0.2561
29043W        W45304  15.415   1.730  11.659 -0.1594 -0.4630 -0.1623
29044W        W45305   5.941  12.989   0.853 -0.1989 -0.0325 -0.3392
29045W        W45306   0.979   2.071  10.573  0.1587  0.1672 -0.0141
29046W        W45307  17.805   2.818   3.033  0.1672 -0.0462 -0.3094
29047W        W45308   1.462   8.246  11.430 -0.2341 -0.0221  0.1298
29048W        W45309  14.686  15.670  13.379  0.0013 -0.2725 -0.1040
29049W        W45310  11.442   3.367  14.573  0.0980 -0.0931  0.0748
29050W        W45311   8.084  11.651  14.111  0.2128  0.0883 -0.3219
29051W        W45312   4.052  14.638  11.834 -0.0576  0.0497 -0.3052
29052W        W45313   5.726  14.576  12.336 -0.1015 -0.3207 -0.3150
29053W        W45314  12.262   7.595   2.239 -0.2496 -0.0120  0.2304
29054W        W45315   4.233  12.102  13.987 -0.1146  0.0265  0.0865
29055W        W45316  16.727   4.855  13.537 -0.1583  0.3540 -0.0153
29056W        W45317   9.649  16.074   2.449 -0.0849 -0.1544  0.2739
29057W        W45318  14.661  12.377  15.375  0.1857  0.1773  0.0494
29058W        W45319   8.000  14.484   0.456 -0.3295 -0.1281 -0.2810
29059W        W45320   5.816  16.601  12.971  0.0029 -0.0787  0.3755
29060W        W45321  18.285   6.164  11.973 -0.3544 -0.0553 -0.0553
29061W        W45322   4.484   1.314   1.794 -0.1360 -0.1427  0.0019
29062W        W45323  13.287  10.366  14.756  0.3370 -0.0285 -0.1677
29063W        W45324   2.954   9.890   1.824 -0.3381  0.0245  0.1346
29064W        W45325   0.889   5.334  11.781  0.1801 -0.0890  0.1690
29065W        W45326  16.619  14.685   1.452 -0.0796  0.0062 -0.2253
29066W        W45327   5.655   9.855   0.038 -0.0078 -0.1836 -0.1053
29067W        W45328  11.758   6.664   2.032 -0.1673 -0.0424 -0.1238
29068W        W45329  13.276   4.906   3.106  0.0952 -0.1423 -0.0435
29069W        W45330   1.698  11.004   2.325  0.5263  0.0841  0.0765
29070W        W45331   1.997   0.224  13.390 -0.0176 -0.2077  0.2459
29071W        W45332  11.065  17.986  12.052  0.3006  0.3664 -0.0026
29072W        W45333  18.699  15.929   1.655  0.0373 -0.0323  0.2518
29073W        W45334   7.037  14.157   4.467  0.0768 -0.1562  0.0059
29074W        W45335  13.399   2.325   5.786  0.1979  0.1113  0.1953
29075W        W45336   5.856  11.811   1.552 -0.2807 -0.2152 -0.2360
29076W        W45337   6.293  11.941   2.429 -0.0828  0.2303  0.0795
29077W        W45338  11.207  14.114   1.829  0.1204  0.3673 -0.1401
29078W        W45339   1.686   3.535   4.038  0.1151  0.0425  0.2538
29079W        W45340   6.920   3.933   0.613  0.1386 -0.2681 -0.0543
29080W        W45341   6.693  15.928  12.135 -0.3814  0.1510  0.1818
29081W        W45342  17.062  15.783   2.208  0.2140  0.2229  0.1366
29082W        W45343  17.865   1.182  15.011  0.1972 -0.0026  0.1292
29083W        W45344   2.251  18.076   3.894 -0.0226 -0.2650  0.0978
29084W        W45345  13.015   9.223  13.528  0.0338  0.2116  0.0631
29085W        W45346   0.492   2.474  14.294  0.1486  0.0737  0.1063
29086W        W45347  15.603   4.543   3.616 -0.3186  0.3136 -0.0604
29087W        W45348   8.350  10.307   0.873 -0.1323  0.5898 -0.3192
29088W        W45349  12.600   2.094  15.637  0.0966 -0.0226 -0.1911
29089W        W45350  15.986   7.258   2.070 -0.4771  0.0209  0.0503
29090W        W45351  18.223  13.375   1.757 -0.3846  0.1890 -0.0443
29091W        W45352  13.240  13.032   4.807 -0.0833 -0.2827  0.0667
29092W        W45353   3.400  12.508  14.097  0.3203  0.0365  0.0218
29093W        W45354   0.844   8.662  15.311  0.1966 -0.2453 -0.1343
29094W        W45355   8.946  10.643  15.599  0.3518  0.0456 -0.2094
29095W        W45356  12.741  15.000  15.208  0.0672 -0.3009 -0.1513
29096W        W45357  14.205  11.174   0.240 -0.1653 -0.0603  0.0421
29097W        W45358  13.925  17.805  12.616 -0.2423 -0.0640 -0.2631
29098W        W45359   1.604   8.216   0.589  0.3266 -0.1198  0.1305
29099W        W45360   6.309  13.796   2.548  0.2351 -0.0626  0.0089
29100W        W45361  14.338  18.695  12.875  0.0499 -0.3397 -0.0964
29101W        W45362  15.897   2.832  11.741 -0.0541  0.2264  0.0757
29102W        W45363   1.049   2.881   2.877 -0.3114  0.2351  0.2090
29103W        W45364   6.625   1.053  15.220 -0.1148  0.1062 -0.2952
29104W        W45365   1.345   1.972  11.173  0.2841 -0.1814  0.0648
29105W        W45366  14.129   5.110  11.836 -0.1497 -0.0637 -0.1707
29106W        W45367   7.985   9.746   2.431  0.1049 -0.0972 -0.1115
29107W        W45368  10.637   4.124  14.717  0.2758  0.0693 -0.0725
29108W        W45369  16.338   1.474   3.163  0.0132  0.0406 -0.0187
29109W        W45370   8.593  16.390   5.150 -0.2946  0.6355 -0.2518
29110W        W45371  10.117   5.534  15.321  0.0667 -0.1548 -0.1551
29111W        W45372   5.044  16.719  13.186  0.1705  0.0854  0.0207
29112W        W45373  15.479  15.803   5.199 -0.1436  0.2440 -0.1457
29113W        W45374  15.731  13.731   4.451 -0.0046  0.1235 -0.2013
29114W        W45375  15.897  17.686  10.499 -0.0641 -0.2242  0.1389
29115W        W45376   0.184  15.124  11.749  0.2757  0.2354  0.3091
29116W        W45377   1.384  10.193   0.593  0.0438 -0.0683 -0.1674
29117W        W45378  11.622  11.231   0.319  0.0505 -0.2043 -0.0202
29118W        W45379  17.425   1.373   1.159 -0.1751  0.2306 -0.3194
29119W        W45380   2.646   0.889  12.991  0.0947 -0.1177 -0.1764
29120W        W45381  10.866  14.046   2.943  0.3019  0.2138  0.0792
29121W        W45382  14.816   3.108  14.756 -0.4524 -0.0549  0.1952
29122W        W45383   8.133  10.665   3.759 -0.2127 -0.0684  0.2065
29123W        W45384   9.874   2.435  14.319  0.0518 -0.3291 -0.4663
29124W        W45385   0.111   2.653  10.946 -0.3299  0.1286  0.3146
29125W        W45386   2.495   3.735  11.387 -0.0655 -0.1941 -0.0504
29126W        W45387  13.342  10.526   3.127  0.2484 -0.1193  0.0062
29127W        W45388  18.064   6.947  15.315  0.1761  0.0368 -0.0314
29128W        W45389   6.392  11.936   1.600  0.1271 -0.0022  0.2724
29129W        W45390   8.732   8.110   3.657 -0.1720 -0.0580  0.2779
29130W        W45391   5.981  13.090   0.375 -0.0812 -0.1245  0.3013
29131W        W45392  15.428  13.003  12.578 -0.1100 -0.2928 -0.0975
29132W        W45393  10.537   3.471   1.147 -0.0406 -0.0313  0.2068
29133W        W45394  11.034  18.688  11.602 -0.3864 -0.1976 -0.1625
29134W        W45395  17.829   5.305  10.878 -0.0406 -0.1083 -0.2603
29135W        W45396   7.760  13.900   2.600  0.0350  0.0496  0.1702
29136W        W45397  16.033  17.776   4.844  0.0018 -0.0112 -0.0862
29137W        W45398   6.124  16.407  14.906  0.2110  0.0848  0.1134
29138W        W45399  16.634   8.717  11.643  0.2565  0.1732 -0.4661
29139W        W45400   6.563  17.186  13.822 -0.5035 -0.2291 -0.0987
29140W        W45401   3.459   6.207   1.823 -0.0628 -0.1050 -0.3887
29141W        W45402   7.866   9.474  13.301 -0.2517 -0.1163 -0.1718
29142W        W45403  17.826  12.448   3.017  0.1597 -0.3958  0.1588
29143W        W45404   1.137  10.595  14.690 -0.1224 -0.4855 -0.1201
29144W        W45405   5.365   4.272  14.801 -0.1253  0.2244 -0.2291
29145W        W45406  17.917  10.163   0.761 -0.0438  0.1514 -0.0442
29146W        W45407   2.422  17.978  15.119  0.0540  0.0896 -0.1094
29147W        W45408  17.140   9.100  11.626 -0.1325  0.3879 -0.0052
29148W        W45409   3.178  10.593  13.493 -0.0229 -0.1561  0.1404
29149W        W45410  16.096   6.624   1.526 -0.1224 -0.3629 -0.1319
29150W        W45411  17.977  13.305   0.073 -0.0145 -0.2003 -0.1417
29151W        W45412  18.412  11.596   1.393 -0.1206  0.0134  0.1268
29152W        W45413  11.493   5.940   3.362 -0.0533 -0.1707  0.2404
29153W        W45414  14.676  16.213   2.164  0.0309  0.2952 -0.1376
29154W        W45415   4.480  16.764   2.971 -0.2433  0.0060 -0.0973
29155W        W45416   3.340   0.816   0.225 -0.2071 -0.1801  0.0884
29156W        W45417  13.579  14.557  13.006  0.1224 -0.1014  0.2221
29157W        W45418  12.446   3.449   2.143 -0.1334 -0.0890  0.4351
29158W        W45419   5.135  18.677   0.076 -0.2219 -0.1117  0.0870
29159W        W45420  11.627  18.273   2.345 -0.2180  0.0115 -0.3083
29160W        W45421  10.937   7.891   5.243  0.2014  0.0102 -0.0603
29161W        W45422   7.095  13.246   3.820  0.0053  0.0693  0.0296
29162W        W45423   8.043   8.572  12.926 -0.1948  0.2108 -0.0461
29163W        W45424   0.838  13.487   3.893 -0.1065 -0.0447  0.2730
29164W        W45425  16.123  15.636  10.109  0.1915  0.1474  0.3030
29165W        W45426  14.326   6.178  13.276  0.2165 -0.0576  0.1776
29166W        W45427   3.426   7.266  12.283 -0.2281  0.1704 -0.2998
29167W        W45428   2.938  16.144  15.142  0.0542  0.2081 -0.2250
29168W        W45429   9.895  18.411   4.313 -0.1152 -0.2157 -0.2287
29169W        W45430  17.509   6.822  13.984  0.1186  0.0117 -0.0656
29170W        W45431  17.073   6.012  15.032 -0.1183  0.0557 -0.0228
29171W        W45432   0.029   9.441  10.468  0.3134 -0.1929  0.1210
29172W        W45433   6.582  14.911  13.638  0.1426  0.1304  0.3689
29173W        W45434   1.623  11.590  12.427 -0.2344 -0.1626  0.0223
29174W        W45435  10.352  18.479  12.503 -0.1080 -0.2141  0.1818
29175W        W45436   7.499  18.268   4.856  0.4946  0.0085  0.1352
29176W        W45437   0.649  18.059   3.684 -0.1107  0.2134  0.1832
29177W        W45438   9.008   8.874   1.164 -0.1145 -0.0321  0.1524
29178W        W45439  11.682   8.220   0.336 -0.0597  0.0640  0.0601
29179W        W45440  18.786  15.241   3.413 -0.0940  0.1306 -0.1923
29180W        W45441  13.303  16.968   4.696 -0.0571  0.2803 -0.2816
29181W        W45442   3.964  14.693  13.071  0.0516 -0.3099 -0.0354
29182W        W45443   4.875   2.357   4.985  0.0421  0.0866  0.1226
29183W        W45444   1.983  12.689   0.027  0.1805  0.0890 -0.1395
29184W        W45445  12.071  11.190   4.597  0.0408  0.1967  0.1461
29185W        W45446  16.225  16.115  14.235  0.1913  0.0321 -0.1923
29186W        W45447  13.343  14.681  11.166  0.2893  0.1411 -0.1503
29187W        W45448  13.735  12.440  11.265  0.1595  0.0660  0.2621
29188W        W45449  16.085   8.129  15.614  0.0365  0.2137 -0.3752
29189W        W45450  10.046  14.594  15.592  0.1046  0.1460 -0.0836
29190W        W45451   0.452   4.185  11.246  0.3911  0.0273  0.3188
29191W        W45452  15.363  10.410   1.953  0.0195 -0.0200  0.0999
29192W        W45453   5.107   5.552   4.369 -0.3113 -0.0161  0.2811
29193W        W45454   7.488  12.010  15.484 -0.0107 -0.1348 -0.1097
29194W        W45455   4.827  13.852   1.634 -0.0743 -0.2909 -0.3915
29195W        W45456   4.435   9.629  11.866  0.1269 -0.0327  0.0929
29196W        W45457   2.697   3.232   2.020  0.0470  0.0878 -0.0189
29197W        W45458  18.628   6.343   2.358 -0.0229 -0.0820  0.1272
29198W        W45459   0.743  15.777  13.312 -0.2812 -0.0048  0.1027
29199W        W45460   3.555   8.683  14.392 -0.5113  0.0838  0.0605
29200W        W45461  18.012  18.246  14.871  0.0559  0.0526 -0.1983
29201W        W45462   5.650   0.523  12.727  0.2013 -0.1657 -0.1988
29202W        W45463   9.430  11.675  12.141 -0.1842 -0.2648  0.1649
29203W        W45464  18.516  17.375   2.179  0.4149 -0.1278  0.1558
29204W        W45465  12.027  17.053   5.756 -0.0119 -0.0465  0.0861
29205W        W45466   0.222   7.919   2.998  0.1010 -0.1843  0.3221
29206W        W45467  12.601   5.761  13.699 -0.1100 -0.1062  0.0605
29207W        W45468  17.702   8.418  12.014 -0.2422 -0.2075  0.0084
29208W        W45469   5.286   5.428  14.186  0.0550 -0.2186 -0.1717
29209W        W45470   8.181   7.430   0.202 -0.0798  0.1363  0.1343
29210W        W45471   2.235   9.264  13.966  0.1066 -0.1456 -0.0022
29211W        W45472   1.637  16.796  15.080 -0.1823 -0.1828 -0.1664
29212W        W45473   8.528   5.798  13.836 -0.4982 -0.0368 -0.2035
29213W        W45474  14.103   9.677  10.942  0.0584  0.2394 -0.1980
29214W        W45475   9.966  17.365   5.985 -0.2567  0.0634 -0.3079
29215W        W45476   1.078   8.909   1.507  0.0961 -0.1489 -0.0214
29216W        W45477  10.992   2.535   2.072  0.1349  0.2899  0.3615
29217W        W45478  15.502   9.958  11.810 -0.0584  0.0352 -0.4134
29218W        W45479  15.513  12.866  14.334  0.1406  0.0432  0.0823
29219W        W45480  17.356   1.332  15.012 -0.0734 -0.0612  0.4823
29220W        W45481   1.043   5.766   1.568  0.0841 -0.0649 -0.2118
29221W        W45482   4.520  16.522  11.897  0.1672  0.0544 -0.2193
29222W        W45483   5.565   5.906   0.453  0.0806  0.3553  0.0095
29223W        W45484   4.210  12.885   2.361 -0.0334 -0.3008  0.0032
29224W        W45485  17.048  18.346   5.612 -0.0012 -0.2253  0.1395
29225W        W45486  14.745   3.565  13.630 -0.1231  0.1617 -0.0284
29226W        W45487   1.778  15.839   1.818 -0.1205  0.1255  0.1363
29227W        W45488  14.078   4.711  12.153 -0.3718 -0.1069  0.1575
29228W        W45489  16.597   6.381   4.463 -0.0504  0.1248  0.1541
29229W        W45490   2.554  15.466   3.535 -0.3693  0.1730 -0.1065
29230W        W45491  11.134   4.171  14.683  0.0717  0.4101  0.1649
29231W        W45492  10.703   0.981   5.999  0.3262 -0.0518  0.0070
29232W        W45493  15.432   4.329  15.537  0.1078 -0.0505  0.0613
29233W        W45494  12.516   0.712  13.777 -0.0091 -0.1321 -0.0506
29234W        W45495  10.167   0.251   1.103 -0.1404  0.2023 -0.1205
29235W        W45496   7.692   2.553  11.689  0.2780 -0.1853 -0.1976
29236W        W45497  15.669  18.214   4.758 -0.0433  0.1175 -0.1606
29237W        W45498   6.184   8.913  12.278  0.3089  0.0012  0.1702
29238W        W45499   6.483   8.229  13.560 -0.1243 -0.1639  0.0895
29239W        W45500   9.500   0.255   4.631  0.2537 -0.0624 -0.0724
29240W        W45501  15.599   7.224   2.504 -0.2060  0.0431  0.0837
29241W        W45502   6.190   0.282   1.327 -0.2153 -0.2802 -0.0065
29242W        W45503   6.695   0.095   3.751  0.0132  0.2002  0.0574
29243W        W45504  15.508   1.241  13.753  0.3424 -0.3684 -0.1701
29244W        W45505   8.980   8.888   5.446 -0.2376  0.3109 -0.2088
29245W        W45506  18.498  16.504  15.047 -0.2364  0.0279  0.2672
29246W        W45507   3.023  13.652  13.082  0.0235 -0.0982 -0.0154
29247W        W45508   1.370   1.940   0.204 -0.0868 -0.1520 -0.0391
29248W        W45509   3.725  13.452  10.371  0.0996 -0.0032  0.0229
29249W        W45510  10.509  13.467  15.163  0.4600  0.0772 -0.0873
29250W        W45511  14.183   5.809  11.419 -0.1790 -0.0080  0.0982
29251W        W45512   3.698   2.429  14.211  0.1482  0.2954 -0.1419
29252W        W45513   5.875   2.626   3.155  0.3307 -0.0817 -0.1166
29253W        W45514   0.958   5.155   4.187 -0.2683 -0.2919  0.1760
29254W        W45515   2.095   9.544   5.270  0.2625  0.0824 -0.0586
29255W        W45516  14.650  15.939   4.292 -0.0120 -0.1862 -0.0880
29256W        W45517   1.082  10.844   4.425  0.1194  0.0599  0.0612
29257W        W45518  16.435   7.674  15.601 -0.1085 -0.2898  0.1129
29258W        W45519   1.511   4.494   0.218 -0.2056 -0.2611  0.4982
29259W        W45520   7.628  16.444   0.771 -0.3658 -0.0841 -0.2179
29260W        W45521  10.068   1.891  13.180 -0.2186 -0.2917  0.0513
29261W        W45522  12.581   9.962  12.071  0.0839 -0.2648 -0.0532
29262W        W45523   8.119   6.897   1.841 -0.0341 -0.1947 -0.5360
29263W        W45524  10.249   9.328   1.696  0.3212 -0.0942 -0.3955
29264W        W45525  12.285   4.185   4.828 -0.0399 -0.1868 -0.1273
29265W        W45526  17.246  16.846  13.117 -0.1574  0.0546  0.1369
29266W        W45527  11.460  14.522  13.929 -0.1060  0.1016  0.2840
29267W        W45528   6.856  16.106   3.849 -0.3854  0.0939  0.3624
29268W        W45529  18.001   8.651  15.065 -0.3011  0.0689 -0.0301
29269W        W45530   4.606   0.136  11.382 -0.0588 -0.0048 -0.3423
29270W        W45531  13.000   4.651  12.920 -0.2655 -0.0768  0.1711
29271W        W45532   6.412   2.903  13.094 -0.0022  0.1736 -0.3374
29272W        W45533  12.963  15.755   3.339  0.0691 -0.3655  0.0094
29273W        W45534  18.174   3.614   0.235 -0.3211 -0.1922 -0.2416
29274W        W45535   6.032   9.239   0.767 -0.0375  0.0871  0.0013
29275W        W45536  14.460   5.831   4.618  0.2970 -0.0635 -0.4910
29276W        W45537   8.223  17.513   0.179  0.1184 -0.1001 -0.3166
29277W        W45538  15.075   1.416  11.793  0.1443 -0.1438  0.0876
29278W        W45539  13.714   7.764   3.742  0.2353  0.1151 -0.0138
29279W        W45540  14.704   2.789   0.678  0.0106  0.2115 -0.0057
29280W        W45541   6.656  13.751  11.870 -0.1500 -0.0286  0.1137
29281W        W45542  12.179   8.670   1.137  0.2084  0.0403 -0.1490
29282W        W45543  10.026   7.698  12.679  0.1960  0.0125  0.1396
29283W        W45544  10.475   4.158  11.583 -0.3491  0.2083  0.2277
29284W        W45545  17.745   9.627  12.688 -0.0248  0.0665 -0.2736
29285W        W45546  17.708   0.006   4.296  0.0344  0.3048 -0.1954
29286W        W45547  10.089  13.425  12.621 -0.0026  0.2072 -0.0185
29287W        W45548   7.927   8.680   0.394  0.0531 -0.0689 -0.1133
29288W        W45549  13.879  12.017   0.544 -0.0178  0.6021 -0.0215
29289W        W45550   7.194  10.872  11.467  0.0311 -0.0836 -0.1699
29290W        W45551  11.647  13.109  12.365 -0.2932 -0.1187  0.0718
29291W        W45552   7.590  14.607   0.144  0.0227 -0.1835  0.1124
29292W        W45553  12.064   3.736  13.139  0.1274 -0.0960 -0.2606
29293W        W45554  12.062   1.860   2.622  0.0658 -0.3057  0.1593
29294W        W45555  13.191   4.996   1.652  0.0677  0.0566  0.0419
29295W        W45556   9.350  11.078   1.375 -0.0308 -0.0302  0.1735
29296W        W45557   2.427   3.851   4.564  0.4054 -0.0572 -0.0849
29297W        W45558  16.485  11.093  15.508 -0.0698  0.1588 -0.0041
29298W        W45559   8.707   9.113  12.228  0.3877  0.3109  0.3719
29299W        W45560   2.421   1.325  12.093 -0.1733 -0.2716  0.0477
29300W        W45561   5.634   7.949  15.178  0.0180 -0.0586 -0.1586
29301W        W45562   8.674   5.973   5.540  0.2759  0.2883 -0.0023
29302W        W45563  13.138  11.278  12.942 -0.0003 -0.1659 -0.1987
29303W        W45564   8.800   5.918   3.363  0.0528  0.0236 -0.1029
29304W        W45565  17.925   9.678  11.545  0.1085  0.2846  0.1711
29305W        W45566  15.702  12.314   1.649  0.0663  0.0888 -0.2734
29306W        W45567   9.526  15.001   3.785  0.1748 -0.0343  0.2126
29307W        W45568   8.031  12.230   0.668 -0.2009  0.1434 -0.2508
29308W        W45569   9.140   2.219  13.267  0.1207  0.0527 -0.1791
29309W        W45570   2.822  11.278  15.288  0.4091  0.2506  0.2504
29310W        W45571  18.241   8.998   1.900 -0.1207  0.2342  0.0450
29311W        W45572   1.930   4.649  12.436  0.0617 -0.0039  0.2870
29312W        W45573   7.439  11.170   4.901  0.3565 -0.2020 -0.1755
29313W        W45574   4.634   4.090   3.171 -0.3633  0.4410 -0.3324
29314W        W45575  10.394  18.175   5.153 -0.3178  0.1628 -0.2032
29315W        W45576  18.371  18.184   3.214 -0.1718 -0.1156 -0.1331
29316W        W45577   2.201   4.647  11.712  0.4190 -0.0016 -0.1851
29317W        W45578   0.401   6.420  10.502  0.1685  0.2169 -0.0872
29318W        W45579   8.788   3.701  11.760 -0.0379  0.0393  0.1927
29319W        W45580   6.777   8.607   3.081  0.0591 -0.4414 -0.0476
29320W        W45581   0.024   8.011   0.766 -0.0393 -0.2247 -0.0182
29321W        W45582   5.241   3.482  14.938  0.2289  0.2782  0.2733
29322W        W45583   0.400  17.168   2.733 -0.0844 -0.0710 -0.1418
29323W        W45584  13.353  18.755  12.839 -0.0151  0.2645 -0.0058
29324W        W45585   2.852  13.499  11.449 -0.0769 -0.0853  0.0703
29325W        W45586   0.613  15.559   1.239  0.3647  0.2258  0.0732
29326W        W45587  18.624  12.945   0.150 -0.3345 -0.0313  0.1213
29327W        W45588  15.518   8.755  15.491  0.1202  0.0489  0.1856
29328W        W45589   9.794  10.067  11.335  0.1265 -0.1483 -0.2310
29329W        W45590  14.892   4.120   0.494  0.0218  0.0343 -0.0703
29330W        W45591  12.559   3.497   0.352  0.2224 -0.1807 -0.0026
29331W        W45592   1.952  14.287  15.145  0.2287  0.2604  0.1373
29332W        W45593  16.666  18.369   3.478 -0.1010  0.1358 -0.0882
29333W        W45594  15.254   1.902   3.336 -0.1881  0.2125  0.0431
29334W        W45595   7.738  13.526   2.931 -0.0087  0.1646  0.0313
29335W        W45596  17.752  15.081   0.247  0.1407 -0.1558 -0.1417
29336W        W45597   1.622   5.181  12.929 -0.0405  0.2414  0.0722
29337W        W45598   8.367   6.208  13.499 -0.1655 -0.0518 -0.3138
29338W        W45599  16.950   4.840   1.737  0.0032 -0.1838  0.6306
29339W        W45600  14.939  16.644   2.399  0.0323 -0.1250  0.2538
29340W        W45601   9.044  17.037   4.046  0.0038  0.2416  0.1082
29341W        W45602   9.243  14.316   0.209 -0.0049  0.1748  0.0220
29342W        W45603   6.310  17.257  15.086 -0.1402 -0.0633 -0.1740
29343W        W45604   2.809   6.076   0.716  0.0623 -0.0500 -0.0370
29344W        W45605  15.513  18.082  13.667  0.0201 -0.2514 -0.1311
29345W        W45606  12.826  12.197  11.380 -0.0607  0.0840  0.1253
29346W        W45607  14.479   4.164   1.246  0.2602  0.0633 -0.1218
29347W        W45608   7.717   5.628   3.472 -0.1291  0.0709 -0.0323
29348W        W45609   0.211   2.418   2.158  0.1507 -0.1929 -0.1053
29349W        W45610  16.204   2.832   1.988  0.1817  0.3414 -0.1202
29350W        W45611   4.741   4.084   0.508  0.0200 -0.1598  0.0712
29351W        W45612   0.570   8.729   0.647  0.1178  0.1182  0.1238
29352W        W45613  16.914   7.121  14.052  0.1041  0.1794  0.1533
29353W        W45614  11.428   3.547   1.493  0.0740 -0.2340  0.3389
29354W        W45615   0.486  17.645  10.822  0.0689  0.0852 -0.1643
29355W        W45616  16.454   0.848  15.369 -0.0915 -0.3078 -0.3948
29356W        W45617   4.798  12.073  13.468  0.0316  0.0525  0.0166
29357W        W45618  12.403   7.869  12.704  0.1214 -0.1711  0.0855
29358W        W45619   2.738  15.982   1.004  0.0721 -0.0197 -0.2024
29359W        W45620  14.392  11.954   2.158  0.0790 -0.1336 -0.1028
29360W        W45621   2.386  16.215   0.697  0.0707  0.1784 -0.0529
29361W        W45622  16.083  10.769  15.346  0.1743 -0.1205 -0.2630
29362W        W45623  15.734   7.490  11.075 -0.1108 -0.2364 -0.0372
29363W        W45624  18.528  13.642   4.840  0.0960  0.5725  0.1338
29364W        W45625   5.729   3.551   1.427  0.1231  0.2038  0.0811
29365W        W45626  15.158   4.469   2.910  0.0334  0.2172  0.1177
29366W        W45627   3.273  13.383  13.472  0.2806  0.3424 -0.0666
29367W        W45628  18.042   7.263   3.784 -0.0219  0.0092  0.0532
29368W        W45629   6.294   9.595  13.881  0.2602  0.0345 -0.1557
29369W        W45630   7.857  10.544   3.171  0.1264 -0.0254  0.1078
29370W        W45631  10.335  17.331   5.117 -0.1017 -0.2145 -0.0317
29371W        W45632  10.334  13.090   3.059  0.1563 -0.0158  0.0311
29372W        W45633   1.653  15.075  13.550 -0.0963  0.0510 -0.0231
29373W        W45634   2.461  12.663   0.540  0.1116  0.0708  0.2712
29374W        W45635   2.381  14.860  14.859 -0.2364 -0.1256 -0.0198
29375W        W45636   7.120   9.392   0.364 -0.1970  0.0634  0.1672
29376W        W45637   7.005   7.252   1.039 -0.2875 -0.1845  0.1103
29377W        W45638   7.277   6.230   2.415  0.3781 -0.3833  0.0252
29378W        W45639   2.297  11.850  13.176  0.2304  0.0371 -0.1361
29379W        W45640   2.580  14.910   4.122  0.3269  0.1941 -0.0389
29380W        W45641   0.536  16.691  13.530  0.2308 -0.5353 -0.2944
29381W        W45642  16.351  14.960  14.123  0.4370 -0.0597 -0.1588
29382W        W45643  10.657  17.066   0.686 -0.2741  0.0984 -0.1622
29383W        W45644  12.294  11.624  12.764 -0.2485  0.1361  0.4279
29384W        W45645   8.565   3.098   3.037 -0.1203  0.3071 -0.0736
29385W        W45646   3.301  13.458  11.130 -0.0250 -0.2955  0.4464
29386W        W45647   8.225  15.128  14.572  0.1763 -0.0840 -0.1302
29387W        W45648   9.000  17.943  12.317  0.1123 -0.0221  0.1100
29388W        W45649  18.622   8.212   1.315  0.1604  0.0451  0.1205
29389W        W45650  11.704  14.242  14.774 -0.2526  0.1251 -0.1696
29390W        W45651  10.036  14.127   1.783  0.2796 -0.1063  0.0159
29391W        W45652  17.735  10.385   1.185  0.0014  0.1304 -0.1057
29392W        W45653  12.402   1.146  13.484 -0.0328 -0.2999 -0.1007
29393W        W45654  12.422   8.959   3.690  0.3618 -0.0393 -0.2861
29394W        W45655   7.826   7.193   6.057  0.0430 -0.2102  0.0197
29395W        W45656   0.279   1.795  13.891 -0.1919 -0.0651  0.0162
29396W        W45657   0.627   0.330  15.041  0.1038  0.3288 -0.1099
29397W        W45658  12.437  14.621  11.442  0.0407 -0.2754 -0.2079
29398W        W45659   0.343  10.344  15.058  0.3494  0.1965 -0.3279
29399W        W45660   0.569   9.043   3.819  0.1305 -0.1250 -0.2735
29400W        W45661   4.983  10.022   4.833  0.1481 -0.0189 -0.2902
29401W        W45662  10.564   0.392  13.490  0.0550 -0.0223  0.1952
29402W        W45663   6.899  10.069   1.678  0.1617 -0.0268 -0.1006
29403W        W45664   2.360  15.001  10.997  0.0256 -0.0028  0.0412
29404W        W45665  15.416  17.755   4.807 -0.0149 -0.0479  0.0277
29405W        W45666   3.940  13.248  13.029 -0.0148  0.5122 -0.2198
29406W        W45667  15.587  14.255   5.477 -0.0448  0.1536 -0.0476
29407W        W45668   1.693   4.190   4.039  0.0004  0.1329  0.4027
29408W        W45669  11.430   7.373   3.684  0.0661  0.0215  0.0237
29409W        W45670   9.800   3.660  11.494  0.4382  0.0481  0.1743
29410W        W45671   0.754   5.196   2.555 -0.0913 -0.1394 -0.2061
29411W        W45672   6.627  16.132   0.195 -0.0340  0.0938 -0.0146
29412W        W45673   6.827  18.242  11.753  0.0237  0.0315 -0.2615
29413W        W45674  15.228   7.647  12.628 -0.3293  0.3415  0.0094
29414W        W45675   7.069   9.542   4.708  0.1277 -0.2645 -0.1855
29415W        W45676   8.622   4.560   4.122  0.0014 -0.0951 -0.3437
29416W        W45677   0.517  16.998   4.401 -0.1099 -0.0603 -0.1827
29417W        W45678  13.875  18.479   4.817  0.0765 -0.1542  0.0274
29418W        W45679  13.297  14.393   2.783 -0.0532 -0.1909 -0.0544
29419W        W45680  17.441   0.871   3.504 -0.2224  0.5914  0.0319
29420W        W45681   6.190  15.759  12.284 -0.2858 -0.0335 -0.1880
29421W        W45682   8.243  12.790   0.005  0.1525 -0.0229  0.1000
29422W        W45683   7.124  13.773   4.772  0.0643  0.4288  0.1389
29423W        W45684   0.302   4.007   1.155  0.1631  0.0758  0.1984
29424W        W45685   8.562  10.070   4.106 -0.0816  0.3293  0.0536
29425W        W45686   2.917   0.124   3.767 -0.1726 -0.0676  0.0048
29426W        W45687  18.345  17.830  12.569 -0.0211 -0.2689  0.1310
29427W        W45688   7.564  13.035   4.956  0.0974 -0.1406  0.0287
29428W        W45689  11.607   8.625  12.103  0.4109  0.2314  0.0841
29429W        W45690  14.615  13.424  12.391  0.2753 -0.0166  0.0382
29430W        W45691  16.645  10.019   1.280  0.0777  0.3488 -0.1497
29431W        W45692  18.496  15.015  14.914  0.1736  0.2862  0.1674
29432W        W45693   8.872   2.301   0.084  0.2172  0.0557 -0.0363
29433W        W45694  17.448   0.797   5.300  0.0423  0.0340 -0.1498
29434W        W45695  18.600   9.244   9.778  0.4840 -0.5746  0.0522
29435W        W45696  18.689  11.535  12.384 -0.1832  0.0284 -0.1114
29436W        W45697   3.920   4.122  14.890  0.0601  0.1053  0.3894
29437W        W45698  13.615  18.123   5.731 -0.1183  0.2253  0.1182
29438W        W45699   8.783  12.496  10.493  0.1722 -0.0793 -0.1221
29439W        W45700  11.100  16.693   0.378 -0.3601  0.0087  0.0947
29440W        W45701  15.233  14.945   5.009 -0.0523  0.1839  0.0195
29441W        W45702   0.272  16.156  10.974  0.0461  0.1917  0.0954
29442W        W45703  16.155   7.709  12.973  0.1665  0.2233 -0.0793
29443W        W45704   0.202   3.378   5.123  0.3598  0.2324  0.3030
29444W        W45705  15.984  17.947  14.065  0.1179 -0.1771  0.1620
29445W        W45706   7.684   2.609   4.921  0.1132 -0.0730 -0.2247
29446W        W45707  18.303   9.055   0.806 -0.0587  0.0126  0.0027
29447W        W45708   3.588  14.373   5.166  0.1655  0.2212 -0.1856
29448W        W45709   2.544   6.770   0.575 -0.2734  0.1700  0.1458
29449W        W45710   0.896  10.412   4.094 -0.3059 -0.6475  0.4129
29450W        W45711  12.800   4.232  14.578 -0.0763 -0.3388  0.1121
29451W        W45712  11.463   3.056   1.439 -0.0309 -0.1451  0.1811
29452W        W45713  15.904   5.790  11.207 -0.2705 -0.0286  0.0592
29453W        W45714  16.356   6.523   0.584  0.1185 -0.0474 -0.1068
29454W        W45715   1.841  11.332   1.883  0.1078  0.0874 -0.3290
29455W        W45716  16.254  12.949   0.268 -0.1720 -0.0482 -0.2903
29456W        W45717   0.617   6.857  15.542 -0.1927  0.1582  0.0672
29457W        W45718   6.985   2.076   6.082  0.3566  0.1296 -0.0997
29458W        W45719   1.275   2.553  14.752 -0.3108  0.0037 -0.3010
29459W        W45720   2.484   4.550  12.106 -0.1553  0.1395  0.0426
29460W        W45721   7.176  14.184  10.019 -0.0683 -0.0645 -0.0252
29461W        W45722  10.158   0.324   1.743 -0.0524 -0.1543 -0.1787
29462W        W45723   2.073  16.373  13.289  0.3753 -0.0992  0.0262
29463W        W45724  14.773   7.470   2.553 -0.0350 -0.4659 -0.0236
29464W        W45725   6.716  18.001   3.707  0.1292 -0.0199 -0.0994
29465W        W45726   4.399  16.303  11.475 -0.3034 -0.3022 -0.0917
29466W        W45727  10.768   1.764  15.407  0.1400 -0.1749 -0.2852
29467W        W45728   5.982   5.843  12.893  0.0973 -0.2263 -0.0734
29468W        W45729   5.084  15.305   3.423  0.2782  0.1703  0.0845
29469W        W45730   2.118  12.468  12.417 -0.1222 -0.0353 -0.1864
29470W        W45731   2.961  14.206  15.255 -0.0792  0.3886 -0.1370
29471W        W45732   4.236   8.073   3.177 -0.0062  0.3396 -0.0012
29472W        W45733   2.665  17.249   9.897  0.1690  0.0351  0.0074
29473W        W45734   7.735  13.657  15.065  0.2894  0.1143  0.4692
29474W        W45735  13.565   7.106   4.977 -0.1653 -0.1721  0.0722
29475W        W45736  11.126  10.485   1.647  0.2976  0.0636  0.2062
29476W        W45737  18.539  12.647   2.554 -0.0520 -0.1923 -0.1818
29477W        W45738  17.101   2.337  14.253 -0.0361  0.1281 -0.1499
29478W        W45739   2.078   0.270   1.272  0.0370  0.0193  0.1379
29479W        W45740   6.812   3.737  11.866 -0.1467  0.1402  0.1301
29480W        W45741  15.856   1.888  13.939 -0.1927 -0.0737 -0.2292
29481W        W45742   2.509  14.426  15.538 -0.1056 -0.1250 -0.1609
29482W        W45743  10.812   4.748  15.516 -0.1250  0.1047  0.1103
29483W        W45744  13.873  14.764   2.092  0.1580  0.0674 -0.2110
29484W        W45745  12.168   9.573   4.276 -0.2744  0.0363  0.2542
29485W        W45746  13.162  11.580  12.513  0.2242 -0.1049  0.0575
29486W        W45747   0.481  14.355  13.319 -0.0103 -0.1386  0.1264
29487W        W45748   5.572  16.176  14.155  0.1592  0.2326  0.1826
29488W        W45749   2.597  15.087  14.211  0.1127  0.1298  0.0573
29489W        W45750  16.917  15.830   3.903 -0.0872  0.2815 -0.3644
29490W        W45751   4.843   3.923  12.589 -0.2956 -0.2250 -0.1899
29491W        W45752   7.796  11.677  14.596 -0.0085 -0.1826 -0.0936
29492W        W45753  13.960   4.997   2.455  0.1310  0.1556  0.1794
29493W        W45754  11.077   6.616   2.847 -0.0511 -0.0447  0.1214
29494W        W45755  13.973   0.418   5.203  0.0461 -0.2684 -0.0948
29495W        W45756   7.162   8.497   2.586  0.2132 -0.0277 -0.2752
29496W        W45757   5.308  11.983  15.428 -0.0264  0.0638  0.3131
29497W        W45758  15.034  17.379   2.874  0.1456 -0.0274 -0.2519
29498W        W45759  17.670   9.570   4.289  0.1930  0.0282 -0.0515
29499W        W45760   4.427  15.268   1.152 -0.1077  0.0108 -0.1741
29500W        W45761   5.954   8.300   1.701 -0.0391  0.2637 -0.0872
29501W        W45762   3.603   1.542  11.359 -0.0568  0.1528 -0.3356
29502W        W45763  17.375  18.499  12.555 -0.0447 -0.1459 -0.3524
29503W        W45764  13.047  16.789   2.485  0.0904 -0.2733 -0.1752
29504W        W45765  18.222  16.269  10.811 -0.1278 -0.1125  0.0538
29505W        W45766  12.728  10.435   3.269  0.0799 -0.0426  0.1233
29506W        W45767  16.680   8.605   1.333  0.1579  0.1839  0.3032
29507W        W45768   2.259   4.992  13.209 -0.1449  0.0819 -0.1088
29508W        W45769  10.972  17.648  14.561 -0.2994  0.1595  0.1341
29509W        W45770  10.335   4.298  13.958  0.0669  0.1412  0.0873
29510W        W45771   7.460   2.563   4.473 -0.1889 -0.0509 -0.2345
29511W        W45772  17.643  16.526  15.492  0.3045  0.1791 -0.0614
29512W        W45773   7.945   9.850  12.109  0.0042 -0.0762  0.0430
29513W        W45774  12.161   2.255   0.767  0.1353 -0.1855  0.4421
29514W        W45775   2.754  15.390  12.834 -0.1580  0.0479 -0.0182
29515W        W45776  12.109  17.375   2.467 -0.0499 -0.3461 -0.2592
29516W        W45777  13.014  11.566  14.453 -0.2958  0.0863  0.0783
29517W        W45778   0.849  16.743   4.050 -0.2502 -0.3077 -0.0885
29518W        W45779  11.587   1.292   4.392  0.0035 -0.0105 -0.2157
29519W        W45780   8.376  12.316  14.348 -0.0223  0.0086 -0.1875
29520W        W45781   2.563   7.079   1.064 -0.1399  0.1374 -0.1246
29521W        W45782  11.085   4.301  13.217 -0.1098 -0.2333  0.1937
29522W        W45783   1.416  12.951  11.274  0.0547  0.2137 -0.1225
29523W        W45784   8.464  17.004  14.560 -0.1205 -0.1868 -0.2426
29524W        W45785   3.128  11.233   4.356 -0.0761 -0.0041  0.1075
29525W        W45786  16.714  16.582  13.626 -0.0440  0.2821  0.0485
29526W        W45787   7.262  10.469   0.481 -0.0521  0.0621 -0.2646
29527W        W45788  13.401  14.632  12.107 -0.0005  0.1088  0.0051
29528W        W45789  11.354   0.411  13.660  0.3673 -0.0259  0.5315
29529W        W45790   9.183   7.919   4.755  0.1263 -0.1338  0.2851
29530W        W45791  16.613   6.498   1.475  0.3119 -0.0370 -0.0656
29531W        W45792  14.134   7.311  14.857  0.1372  0.1033 -0.1976
29532W        W45793  10.130   9.813  11.645 -0.0150  0.0473  0.0528
29533W        W45794  11.354   6.252   0.840 -0.4930 -0.1787 -0.1298
29534W        W45795  13.609   8.418   0.070 -0.2151 -0.0539  0.0725
29535W        W45796  17.362  13.504   1.457 -0.0051  0.3924 -0.1492
29536W        W45797  11.892   2.193   5.290  0.0679 -0.1513  0.0533
29537W        W45798  10.665  15.204   2.144  0.0643 -0.1158 -0.2489
29538W        W45799   3.463  14.556  13.938  0.0415 -0.2254 -0.0354
29539W        W45800   5.896  10.360   0.261  0.1321 -0.2050 -0.1741
29540W        W45801   3.856   0.670  13.606 -0.0419  0.0047  0.3983
29541W        W45802  13.721   8.912   2.135 -0.0938 -0.8125  0.2842
29542W        W45803   6.118  12.151   4.248  0.0131  0.0589  0.0539
29543W        W45804   4.605  18.186   3.029 -0.0310  0.0453  0.0747
29544W        W45805  12.051   0.060  12.436  0.2592  0.0699  0.3583
29545W        W45806  11.039  14.429   3.844  0.2384 -0.1738  0.0189
29546W        W45807  13.006   4.392   2.201  0.1460 -0.3970 -0.3455
29547W        W45808   8.036   0.395   4.963  0.0052 -0.1145  0.0269
29548W        W45809   0.934   5.028  11.131  0.0083  0.2476  0.0225
29549W        W45810  14.655   9.857  13.775 -0.1434 -0.1494 -0.0543
29550W        W45811  15.832   8.109  14.116 -0.2018  0.0512 -0.0398
29551W        W45812  11.316   2.261   4.528 -0.1888  0.2513 -0.1143
29552W        W45813   4.436  17.758   0.800  0.2373  0.2579 -0.0895
29553W        W45814  10.847   1.351  14.381 -0.0747 -0.2039 -0.0486
29554W        W45815   4.179  13.123   0.425 -0.2059  0.4260 -0.1934
29555W        W45816  11.015   7.156   3.850  0.2555  0.1121 -0.1112
29556W        W45817  11.832  15.511   4.729 -0.2511 -0.0176 -0.0665
29557W        W45818  15.305  11.110   4.115  0.1208 -0.1567 -0.2086
29558W        W45819   8.699  11.126   2.619  0.1958 -0.1445 -0.3726
29559W        W45820   2.724   5.315   0.272 -0.1729 -0.0655  0.3327
29560W        W45821   7.948  12.677   4.878  0.0089  0.0122  0.1929
29561W        W45822  17.774  18.372   2.389  0.0647  0.2762 -0.1893
29562W        W45823   3.453  11.983  15.524  0.2929  0.0991 -0.1089
29563W        W45824  11.065   7.967   4.007 -0.2295 -0.0633 -0.2010
29564W        W45825  12.233   8.902  14.340  0.2428 -0.1249 -0.2524
29565W        W45826  14.098  18.652  14.139 -0.1515  0.1272  0.0308
29566W        W45827   5.885   7.140   0.726  0.1449  0.1848  0.1924
29567W        W45828  11.600   5.711  13.919  0.1006 -0.0757  0.3448
29568W        W45829   1.009  12.044   3.927  0.3301  0.0301 -0.2290
29569W        W45830  15.136   9.069   2.555  0.1785 -0.2285  0.0260
29570W        W45831   5.582  10.770  11.217  0.3131  0.2500 -0.2477
29571W        W45832  18.143   1.418  13.785 -0.2290  0.3769  0.0364
29572W        W45833   0.940   9.146   3.487  0.0793  0.1406 -0.2280
29573W        W45834   6.686  18.470   5.702 -0.1984  0.2020 -0.0222
29574W        W45835  12.736  17.018  13.925  0.0815 -0.1540 -0.2651
29575W        W45836  16.498  16.943   1.443 -0.1111  0.3257 -0.2778
29576W        W45837   2.401   1.493   4.384  0.0381  0.3881 -0.2299
29577W        W45838   4.639  17.495  14.331  0.2681  0.1429  0.2480
29578W        W45839  11.715   9.487   3.385  0.0537  0.0142  0.1326
29579W        W45840  16.148  17.667  13.271  0.0432  0.0251 -0.0136
29580W        W45841   4.364   3.306   0.471  0.1865 -0.3432 -0.0830
29581W        W45842   1.321   6.568   3.388  0.1177  0.1083  0.0491
29582W        W45843   2.197  15.190   4.402  0.2481  0.4362 -0.1514
29583W        W45844   1.842   3.567   2.517  0.0770 -0.0046  0.2077
29584W        W45845   4.526   1.412  15.114 -0.0069 -0.0195 -0.5166
29585W        W45846   6.335  17.477  14.146 -0.0335 -0.0205 -0.1112
29586W        W45847  14.360  15.725  11.501 -0.0408  0.2037  0.0339
29587W        W45848  13.811   4.910   1.870 -0.0286 -0.0536  0.1186
29588W        W45849  11.323  18.345   3.904 -0.0248  0.0038  0.0277
29589W        W45850   7.313  11.451  13.948  0.1843 -0.2770  0.0725
29590W        W45851   3.333   2.448  12.057  0.0194 -0.1201 -0.0449
29591W        W45852  15.515   3.628   4.073  0.0714 -0.2549  0.2885
29592W        W45853  16.738  11.474  13.724 -0.3377 -0.0268  0.0229
29593W        W45854  13.132   2.072  12.376  0.2844  0.0529  0.0097
29594W        W45855  12.906   1.471  11.008 -0.3992 -0.1666 -0.0978
29595W        W45856  12.087  10.928   2.618  0.0209 -0.2423  0.2008
29596W        W45857   3.463   0.770   4.817  0.1619  0.0517 -0.0957
29597W        W45858  12.541  14.360  13.718  0.0293  0.2377 -0.1582
29598W        W45859  14.488  18.165   3.170 -0.1124  0.1469  0.0344
29599W        W45860  15.884   5.339   2.513 -0.0945  0.0611 -0.0602
29600W        W45861  14.948  15.171   4.668  0.0425  0.1097 -0.0453
29601W        W45862  14.427  16.556  11.839  0.3378 -0.2936  0.2370
29602W        W45863  18.127  14.899   5.202 -0.3073  0.0865  0.0406
29603W        W45864  11.204   1.544   2.000 -0.1594 -0.1749 -0.2061
29604W        W45865  17.568   3.051  10.955  0.2154 -0.0012 -0.0883
29605W        W45866   8.372   1.501   0.237 -0.0571  0.0810  0.2279
29606W        W45867   9.539  11.597  11.529 -0.3911 -0.0617  0.0431
29607W        W45868   3.352  11.949  14.242 -0.1150  0.1184 -0.0460
29608W        W45869  13.238  11.392   2.056 -0.2406  0.0252 -0.0816
29609W        W45870   8.527  18.739  14.757  0.0231 -0.1288  0.1983
29610W        W45871  14.228   7.509   3.812  0.0566  0.0415 -0.0608
29611W        W45872   2.126  12.262  13.361  0.1867  0.1324 -0.0449
29612W        W45873  14.132   4.975   4.242 -0.4577 -0.1124  0.1865
29613W        W45874   4.862   0.919  10.285 -0.0603 -0.0639  0.0938
29614W        W45875   8.875   4.763  15.222  0.0699  0.4579  0.1403
29615W        W45876  14.631   7.059   3.804 -0.2208 -0.1180  0.0494
29616W        W45877   3.550   0.545   4.387  0.0542 -0.1106 -0.1390
29617W        W45878   6.442   8.963   0.992  0.0887  0.1766  0.1229
29618W        W45879   1.920  14.314   9.461  0.1002  0.1025  0.3174
29619W        W45880  18.826  10.764  11.901 -0.3140  0.0793 -0.1074
29620W        W45881  15.095  11.221  11.312 -0.0340 -0.2998 -0.0838
29621W        W45882  15.971   9.204   2.409 -0.2061 -0.1118 -0.2400
29622W        W45883   5.563   7.148  14.548 -0.0648 -0.2182  0.3827
29623W        W45884  13.340  10.010  11.646 -0.0356  0.1597  0.2617
29624W        W45885   5.638   4.146  15.332  0.1491 -0.0350  0.1084
29625W        W45886   3.273   5.546  11.289 -0.0085 -0.0552  0.0151
29626W        W45887  10.195   0.686   4.928 -0.0119  0.3963  0.0924
29627W        W45888   5.847  15.725   4.858 -0.3406  0.2100 -0.1879
29628W        W45889   6.278   4.321   0.772 -0.4934  0.0222  0.1065
29629W        W45890   7.143   5.140  14.016 -0.3785 -0.0651 -0.1552
29630W        W45891  10.586  17.456  14.799 -0.3270 -0.4256 -0.3084
29631W        W45892   9.459  11.063  12.405 -0.1668  0.3496 -0.2696
29632W        W45893   8.956   5.558   1.892  0.1374  0.1560  0.2694
29633W        W45894  10.063   0.826   1.792  0.1547 -0.1351  0.2890
29634W        W45895   6.821  11.589   5.185 -0.2249 -0.0062  0.0533
29635W        W45896   6.393  17.262  13.057  0.0215  0.0246  0.4485
29636W        W45897   5.971   0.719   1.988  0.1010 -0.1733  0.2115
29637W        W45898   4.068   0.684  14.488  0.2733  0.3219 -0.2611
29638W        W45899   0.106  10.057  12.705  0.0254  0.3436 -0.0369
29639W        W45900   7.493   9.851  13.290  0.0621  0.0337  0.1276
29640W        W45901  13.423  13.246  12.030  0.2363  0.5456 -0.1547
29641W        W45902  13.107  12.119  14.863 -0.1359  0.1777 -0.1155
29642W        W45903   3.309   7.562  14.633  0.0207 -0.2949 -0.0237
29643W        W45904  15.772  17.779  12.108  0.2982 -0.0684 -0.2635
29644W        W45905   9.661   9.123   5.027  0.1314 -0.3363 -0.0703
29645W        W45906  15.648  17.444  15.281 -0.2641 -0.1629  0.1711
29646W        W45907  15.062  11.072   0.137 -0.0032  0.2223  0.0118
29647W        W45908   0.971  11.743  15.458 -0.1680  0.0054 -0.1789
29648W        W45909   9.223   5.135   5.322  0.0828  0.0604  0.0484
29649W        W45910  15.058   4.349  11.351  0.0064 -0.0412 -0.5783
29650W        W45911  17.613  14.424   5.626  0.3705 -0.1181  0.2503
29651W        W45912  10.148  11.177   3.602 -0.0137 -0.0778 -0.0071
29652W        W45913  14.120  16.433   2.808 -0.3880  0.2706 -0.1284
29653W        W45914  14.375   2.315   4.223 -0.0991  0.0141  0.0650
29654W        W45915   2.322   0.871  13.743 -0.0809  0.1349 -0.3607
29655W        W45916   9.368  18.542  14.657 -0.0218  0.5197  0.3901
29656W        W45917   1.427   9.710  14.653 -0.1204  0.0029  0.2493
29657W        W45918   4.320   4.353   2.903  0.0962  0.1930 -0.3668
29658W        W45919   3.271  12.665   4.974  0.2670 -0.3820 -0.0027
29659W        W45920   6.797   4.342   3.931  0.0396  0.1979 -0.3786
29660W        W45921   2.343  13.527   0.022 -0.0495  0.1964  0.2880
29661W        W45922   0.999  15.981  12.001  0.2373 -0.3141  0.2425
29662W        W45923   1.851  15.045  11.194  0.0533  0.3832 -0.1217
29663W        W45924   5.892  11.877   3.770 -0.0660  0.1514  0.1020
29664W        W45925  18.051   5.225   4.801  0.0414 -0.3662 -0.0136
29665W        W45926   7.992   2.943   5.319  0.1312 -0.1624  0.3704
29666W        W45927  12.179   3.713   4.464 -0.1475  0.1974 -0.0032
29667W        W45928   3.871   6.066  13.255  0.0205  0.0028  0.5308
29668W        W45929   6.985   1.811   3.044 -0.1962 -0.1310 -0.1295
29669W        W45930  10.979   3.061   1.793 -0.3518 -0.1233 -0.0956
29670W        W45931   2.706   0.577  13.422 -0.3064  0.0356  0.1188
29671W        W45932  16.555  10.589  11.234  0.0817 -0.0237  0.0142
29672W        W45933  15.531   7.030   1.313  0.1769  0.1439  0.0174
29673W        W45934  11.232  13.448   0.242  0.1274  0.3402  0.0286
29674W        W45935  13.472  18.288   1.146 -0.0136  0.2417  0.0660
29675W        W45936  17.761  18.022   0.594 -0.2068 -0.0458  0.0545
29676W        W45937  17.786   4.882  15.212  0.0798  0.1203 -0.2097
29677W        W45938   1.219   2.556  14.055  0.0252 -0.1391 -0.0819
29678W        W45939  18.187  13.179   1.306  0.0213 -0.2187  0.3737
29679W        W45940   2.138   5.953  15.037  0.1932 -0.0778  0.0582
29680W        W45941   8.614  10.671   5.559  0.4527 -0.3419 -0.3323
29681W        W45942   0.463  15.011   0.034 -0.1975 -0.0793 -0.2324
29682W        W45943  15.827  10.669   4.303 -0.0180  0.0048 -0.2705
29683W        W45944  12.777   1.442  14.776 -0.1620  0.0641 -0.0849
29684W        W45945   8.007   5.870  14.893 -0.0466 -0.0914  0.0435
29685W        W45946  13.822  11.379  11.304  0.4588  0.3227 -0.1147
29686W        W45947   1.289   4.807   1.583 -0.1889  0.2315 -0.1830
29687W        W45948  17.893  18.068  12.874 -0.3416  0.1791 -0.2233
29688W        W45949   9.274   6.657  15.603  0.2382  0.0805 -0.1400
29689W        W45950  11.099  15.577  12.125 -0.0349  0.3962  0.1756
29690W        W45951  16.776   9.020   3.397 -0.0999  0.0750  0.2678
29691W        W45952   2.406   1.154   2.140 -0.0945  0.1097 -0.2261
29692W        W45953   9.540  14.623   5.613  0.0319 -0.1199 -0.1372
29693W        W45954   4.172   0.424   0.903  0.3857  0.0467  0.0214
29694W        W45955  18.088  12.237  10.541 -0.1896  0.0499  0.0480
29695W        W45956  17.851   8.023  11.715 -0.0527 -0.1101  0.0123
29696W        W45957   9.691   0.294  12.972  0.0898 -0.2295  0.1618
29697W        W45958  14.571  12.351  10.773 -0.0681  0.3606  0.5094
29698W        W45959  10.663  10.736   2.028 -0.2068 -0.3376 -0.0257
29699W        W45960   7.674  10.390   1.425 -0.6182  0.2808  0.0491
29700W        W45961   0.223   3.297  11.676  0.1434 -0.0278 -0.1871
29701W        W45962  16.571  16.033  13.353 -0.2967 -0.0503 -0.2318
29702W        W45963  14.269  13.797  15.410 -0.0540  0.2071  0.0565
29703W        W45964  17.766   1.715  12.204  0.2830  0.2329  0.0768
29704W        W45965   7.287  15.774   2.149 -0.1188 -0.2000  0.1502
29705W        W45966  15.146   7.461  11.515 -0.2268  0.0873 -0.1867
29706W        W45967   1.118   6.748   4.945 -0.0555  0.2147 -0.0008
29707W        W45968   8.977  16.126  12.715  0.0239 -0.3467 -0.0747
29708W        W45969   3.531  10.520  14.770  0.1616  0.2994 -0.1400
29709W        W45970  13.102   9.141  14.546  0.3851 -0.1276  0.0363
29710W        W45971   3.925  11.039   5.390 -0.0610  0.1726 -0.0374
29711W        W45972  15.260   8.764   5.259  0.0986  0.0411  0.3874
29712W        W45973  13.854   9.282   0.790  0.0366  0.3334 -0.0242
29713W        W45974   4.952  11.275  13.664 -0.1633 -0.2445  0.0425
29714W        W45975  11.781  14.266   3.754  0.5131 -0.1077  0.1687
29715W        W45976  11.914  13.212  14.506  0.3525 -0.2435 -0.2307
29716W        W45977  17.902  10.811   3.047 -0.1479  0.0402 -0.3321
29717W        W45978  17.899   6.101  10.632  0.2741  0.0013 -0.0206
29718W        W45979   5.082   8.136  15.250  0.0245 -0.0592  0.3214
29719W        W45980   1.233  11.903  14.191 -0.2841 -0.3575 -0.0066
29720W        W45981   9.892   1.227   4.695 -0.1559 -0.2035  0.1207
29721W        W45982   5.886   8.048   1.175 -0.0711  0.0797 -0.0322
29722W        W45983   6.439  11.360  14.887  0.1057  0.3170  0.0113
29723W        W45984  18.324  14.666   1.003 -0.1205  0.0297 -0.3605
29724W        W45985   3.770  17.557  13.958  0.0629 -0.2687 -0.1813
29725W        W45986   9.345  18.294  12.650  0.4089  0.1383 -0.1766
29726W        W45987  13.632   0.479   3.091 -0.2036 -0.0200  0.1019
29727W        W45988   9.449  10.364   2.406 -0.2652 -0.0523 -0.2214
29728W        W45989  16.539   4.005  12.625  0.0175  0.1394 -0.0399
29729W        W45990  10.429   2.500  13.526  0.1146 -0.0752  0.0940
29730W        W45991  13.703  11.358  10.771 -0.1346 -0.1392  0.2865
29731W        W45992  10.367  16.562   5.939 -0.3424  0.0393 -0.1143
29732W        W45993   1.526   5.316   4.622  0.0342 -0.0931 -0.2489
29733W        W45994  14.855  16.407  11.095  0.5255 -0.0098  0.1715
29734W        W45995   2.053  10.187  11.297  0.3556 -0.1012  0.1508
29735W        W45996   8.229  10.923  12.969  0.1169 -0.1935  0.0322
29736W        W45997  13.568  16.701   4.308 -0.1110  0.0536 -0.2116
29737W        W45998  18.284  17.636   0.208 -0.3610  0.2217  0.0435
29738W        W45999   6.759  14.454   1.435  0.2730 -0.0807  0.0660
29739W        W46000   0.010   2.736  14.217 -0.1955 -0.1271  0.1679
29740W        W46001   7.137   9.843   5.180  0.1925 -0.0201  0.2875
29741W        W46002   7.601   1.044   4.224 -0.0240 -0.0966 -0.1547
29742W        W46003   1.145  10.384   3.628  0.4170 -0.1014  0.1853
29743W        W46004  18.185  11.631  12.859  0.1640  0.3499  0.1363
29744W        W46005  13.946   7.066  15.364 -0.3367  0.0547 -0.2950
29745W        W46006  14.489   9.777   4.907 -0.3056  0.1306  0.1568
29746W        W46007  13.074  13.128  15.453  0.0546  0.2219 -0.2374
29747W        W46008  10.324   4.214   0.898  0.0986 -0.1448 -0.0095
29748W        W46009  10.650   0.031   5.681 -0.1616  0.0015 -0.1043
29749W        W46010   2.548   9.637   1.879  0.3871  0.1783 -0.2417
29750W        W46011   2.565  17.679  11.509 -0.1149 -0.3721 -0.1180
29751W        W46012   1.792   3.233   2.038  0.0978 -0.0386  0.1517
29752W        W46013   4.239   2.907   2.777  0.2927  0.1660 -0.0838
29753W        W46014  13.505   8.501  11.075 -0.1533 -0.2574  0.1701
29754W        W46015  12.555   0.205  12.467  0.1056  0.1343 -0.1435
29755W        W46016   5.754  10.020   3.491 -0.0659 -0.0707 -0.5958
29756W        W46017   9.003  13.734   4.240  0.1004  0.1728 -0.2960
29757W        W46018  17.338   1.846   2.972  0.1156  0.0156  0.4272
29758W        W46019  15.285  11.815  13.350  0.2295  0.0345 -0.2297
29759W        W46020   5.066   1.946  12.409  0.0783 -0.0554  0.3721
29760W        W46021   4.470   9.179  12.784  0.0780  0.0858 -0.1297
29761W        W46022  14.981   5.461   2.820  0.1785 -0.0871  0.0912
29762W        W46023   4.722  18.786   4.509  0.1944  0.0160  0.1453
29763W        W46024   6.842  16.579   0.169 -0.0588  0.1161  0.2867
29764W        W46025   1.203   9.297  12.696  0.1016  0.0679 -0.2285
29765W        W46026  12.484  18.133   1.352  0.1664  0.0838 -0.0823
29766W        W46027   6.842  13.613  15.623 -0.4487 -0.2072  0.1970
29767W        W46028   3.637  10.476   1.331 -0.0425  0.2967  0.1812
29768W        W46029   4.362  16.814  12.314  0.0038  0.0458  0.2195
29769W        W46030   1.736  13.189  13.082 -0.0594 -0.2264 -0.0435
29770W        W46031   1.994  12.355   0.428  0.0801  0.3772 -0.0545
29771W        W46032   8.843   5.702  11.893  0.2330 -0.4185  0.1023
29772W        W46033   1.457   6.656  12.132  0.2507 -0.2042 -0.1296
29773W        W46034  11.601   5.430   4.398 -0.2403 -0.0459  0.0170
29774W        W46035  16.540   6.796  13.135 -0.3259 -0.2059  0.0895
29775W        W46036  10.130  11.766   3.368 -0.2851  0.3521  0.1724
29776W        W46037   3.327   8.056  12.138 -0.0337 -0.0763 -0.1559
29777W        W46038  12.432   1.597   1.901 -0.0972 -0.3877  0.0061
29778W        W46039   8.559  14.320  11.038  0.1589  0.2514  0.3147
29779W        W46040  13.107  10.687  11.161 -0.0765  0.1048  0.2339
29780W        W46041  13.328  13.248   3.403 -0.4445 -0.0661  0.0600
29781W        W46042   6.499  11.274  12.977  0.1048  0.0401  0.3246
29782W        W46043   3.867  11.962   2.685  0.0030 -0.0237 -0.0601
29783W        W46044  14.298  13.464  14.160  0.1203  0.4665  0.0890
29784W        W46045  10.849   5.445  13.140 -0.0509 -0.0474  0.0194
29785W        W46046  13.976  14.892   1.050 -0.3241 -0.0918  0.0626
29786W        W46047   7.271  16.900   1.673 -0.0301 -0.2049  0.0511
29787W        W46048   8.488  15.808  14.880 -0.0946  0.1608  0.0912
29788W        W46049   5.733   3.095  11.002  0.2157  0.0450 -0.0417
29789W        W46050   6.971   3.033  11.889  0.0606 -0.2511  0.0843
29790W        W46051   3.535  17.649  13.060 -0.0052  0.2263  0.1044
29791W        W46052   1.027   0.646   0.359  0.2012  0.0408 -0.0645
29792W        W46053   1.939   8.576  13.833 -0.1417  0.0974 -0.3405
29793W        W46054  18.023  14.460   5.380  0.0755  0.0431  0.3190
29794W        W46055  12.896   6.532  11.932  0.1863 -0.1534 -0.0266
29795W        W46056  12.739  10.765   9.628  0.2557  0.4046  0.1986
29796W        W46057  14.333   9.841  13.373 -0.3657  0.1477  0.3634
29797W        W46058   9.170   7.744   4.163 -0.1534 -0.0500  0.0608
29798W        W46059  13.514   5.275   0.561  0.1496  0.1746 -0.3306
29799W        W46060   6.904   1.521   3.504  0.0226  0.1672  0.2765
29800W        W46061  12.706   2.484  13.909  0.0722  0.1995  0.1466
29801W        W46062   8.961  13.510  13.203  0.1131 -0.4106 -0.1191
29802W        W46063   6.056  10.476  14.200  0.4739 -0.2263 -0.0708
29803W        W46064   5.766  11.106   1.209 -0.0450 -0.0226  0.1080
29804W        W46065  11.848   6.543   1.574  0.0381  0.1300 -0.3526
29805W        W46066   9.364   9.624  13.671  0.2541  0.0059  0.0710
29806W        W46067   2.921  14.282   3.752 -0.0121 -0.0377 -0.0244
29807W        W46068   5.715   6.521  13.855 -0.0884 -0.2642  0.1796
29808W        W46069   6.140   4.428   1.614 -0.0470  0.1004  0.1780
29809W        W46070   2.647   2.039   1.835  0.0443 -0.2002  0.0066
29810W        W46071   9.658   9.129   5.894 -0.2605 -0.1413  0.3795
29811W        W46072  10.937  14.357  13.691  0.0996  0.3722 -0.1096
29812W        W46073   3.361  18.243   4.316 -0.0622 -0.0264  0.1861
29813W        W46074  15.316   3.025   0.639  0.0706 -0.0567  0.1509
29814W        W46075  18.334  16.312  12.458 -0.0859  0.0112 -0.2705
29815W        W46076   8.299  15.949  12.970 -0.2856  0.3550  0.4663
29816W        W46077   9.137   7.465  11.437  0.0033  0.0613  0.1093
29817W        W46078   2.896  16.689  14.890  0.1504 -0.0117  0.0882
29818W        W46079  12.239  15.901  12.894 -0.2332  0.1573 -0.0414
29819W        W46080   4.760  15.624  14.095  0.4001 -0.0175 -0.0814
29820W        W46081   2.579   3.407   0.855  0.2392  0.0047 -0.0675
29821W        W46082  12.377  13.777   5.362 -0.0643  0.1504 -0.1122
29822W        W46083   6.406   8.368  14.721 -0.2670 -0.3057 -0.0356
29823W        W46084  15.282   2.073  15.343  0.2394 -0.1504  0.3686
29824W        W46085   9.059  12.532  15.349 -0.0457  0.4171  0.1347
29825W        W46086   3.007  14.682  13.449  0.0794  0.0239  0.1261
29826W        W46087   0.400  11.367  14.554 -0.1501  0.1627  0.1147
29827W        W46088   4.387   3.510   3.110  0.1598  0.4195 -0.0925
29828W        W46089   5.332   7.328  11.755 -0.0893  0.1056 -0.0480
29829W        W46090   3.694  10.933  11.978 -0.3595 -0.2490 -0.2552
29830W        W46091  17.589  15.552   4.329  0.0470  0.1426  0.5092
29831W        W46092  14.846  18.383  11.825  0.0052  0.2728 -0.3055
29832W        W46093  18.706   0.358   5.841  0.1804  0.1192  0.1499
29833W        W46094  16.634  17.167  11.073 -0.1209 -0.0872  0.0677
29834W        W46095   4.352   8.516  15.418 -0.0477  0.1009 -0.4940
29835W        W46096   3.220   3.686  15.274 -0.0196  0.2257  0.3029
29836W        W46097   0.677   1.522   2.578 -0.0501 -0.2109  0.0216
29837W        W46098   7.011   3.485   2.270 -0.0641  0.2875  0.0298
29838W        W46099  10.489   1.793   0.682  0.1564  0.0582 -0.0648
29839W        W46100  10.918   5.997   4.982  0.1573 -0.1237 -0.4155
29840W        W46101   6.618   2.217   2.978 -0.2284 -0.0689  0.1019
29841W        W46102   3.639  16.751   0.189 -0.0291 -0.2710 -0.0073
29842W        W46103   3.309   6.789  13.486  0.2407  0.1699  0.1437
29843W        W46104   5.513  11.053   3.657 -0.3259  0.2557 -0.2514
29844W        W46105   4.820   7.001  15.404 -0.2154  0.1331  0.2373
29845W        W46106   7.205  18.731   2.935 -0.2112 -0.1257  0.0577
29846W        W46107  11.607  12.407   2.211 -0.0165 -0.1229 -0.1109
29847W        W46108  14.789  14.027  15.348 -0.0103  0.0548  0.1327
29848W        W46109  16.308   6.447  14.965 -0.1128 -0.0721  0.0065
29849W        W46110  11.181  17.856  10.919 -0.0730  0.0172  0.3629
29850W        W46111  14.571   0.160  11.524 -0.1125 -0.1583  0.0642
29851W        W46112  16.351   1.251  13.459  0.3068 -0.1578  0.0273
29852W        W46113  10.993   8.438  12.112  0.1705  0.3082 -0.1024
29853W        W46114   7.178   2.381  14.187  0.0825  0.2180  0.3112
29854W        W46115  15.325  11.376  13.676  0.1729 -0.1114  0.2185
29855W        W46116  12.392  14.048  10.826 -0.0995  0.0671 -0.0939
29856W        W46117  13.951   8.491   3.096 -0.2588 -0.0430  0.2862
29857W        W46118   0.226  11.206  12.172 -0.0876  0.1950 -0.0717
29858W        W46119  17.220  16.383   4.088  0.2491 -0.1796  0.1596
29859W        W46120   3.479  10.775   0.115 -0.0126  0.1114 -0.0823
29860W        W46121   7.466  16.204  15.592  0.1707 -0.0508 -0.1480
29861W        W46122  11.441  12.640   1.760  0.0271  0.2026  0.2053
29862W        W46123  13.408   9.800   4.096  0.0308  0.2273  0.0617
29863W        W46124   0.682   4.700  14.091 -0.1777 -0.0081  0.1969
29864W        W46125  14.571   9.445  11.213 -0.2358  0.0138  0.0181
29865W        W46126   7.794   6.750  14.554  0.0303 -0.1321 -0.2131
29866W        W46127   1.421  18.592   2.452 -0.0184  0.1814 -0.2239
29867W        W46128   0.789   7.309   3.387 -0.3579  0.0964 -0.2713
29868W        W46129   4.215   5.557   4.254 -0.2778 -0.2343 -0.1045
29869W        W46130   0.030   2.926   0.368  0.0569 -0.0685  0.0473
29870W        W46131  17.495   7.550  10.777  0.0529  0.1457 -0.1618
29871W        W46132   9.577   5.626  12.753  0.1019 -0.0768 -0.3108
29872W        W46133   1.070   0.773   2.823 -0.2090 -0.0159  0.0225
29873W        W46134  16.904   6.204  10.612 -0.0753  0.2042 -0.2249
29874W        W46135  18.359  10.932  10.512  0.3656  0.0492  0.2052
29875W        W46136   5.941  16.213  13.852  0.0596 -0.1323  0.1789
29876W        W46137  14.092   6.868   0.904  0.0142 -0.1623 -0.1592
29877W        W46138   5.865  13.587  13.971  0.1169  0.1629  0.0718
29878W        W46139   3.903  11.057   0.252  0.0551  0.0381 -0.4327
29879W        W46140  17.179   8.560   4.201  0.0263 -0.3175  0.0795
29880W        W46141   7.006  13.015   3.342  0.0147 -0.0820  0.0108
29881W        W46142  15.851   8.268  10.395 -0.1354  0.1893  0.1619
29882W        W46143  12.182  15.574   1.934 -0.1371 -0.1401  0.1610
29883W        W46144   3.780   6.038  14.940 -0.1357 -0.5699  0.0853
29884W        W46145  15.370  12.260   5.094 -0.2119 -0.1169  0.1093
29885W        W46146   9.971   6.343   3.242  0.1704 -0.0150  0.1740
29886W        W46147   7.479   8.768   6.209 -0.4654 -0.2526 -0.2926
29887W        W46148   7.386   5.603  14.099  0.0928 -0.0502 -0.1321
29888W        W46149  15.239   5.612   2.089 -0.2933  0.0263 -0.2150
29889W        W46150   6.570  16.244  14.870 -0.0246 -0.1278  0.1160
29890W        W46151  17.313  10.513  13.942  0.0552 -0.0352 -0.0716
29891W        W46152  12.707   1.498  11.484  0.0884 -0.1346 -0.1398
29892W        W46153  17.699   2.673   0.149  0.2011 -0.0912  0.1902
29893W        W46154  13.838  12.598   4.431  0.2194 -0.1445 -0.0786
29894W        W46155  10.537   4.257   1.551  0.2190 -0.0453 -0.1571
29895W        W46156   1.803  11.096   4.033  0.1812  0.1333  0.1378
29896W        W46157   0.137   1.861  12.113  0.2194  0.2423  0.0226
29897W        W46158  14.609  16.599   3.552  0.0924  0.1956 -0.0254
29898W        W46159   2.735  18.616  12.756 -0.3962 -0.1656  0.0254
29899W        W46160  13.017   6.918   0.657 -0.1121 -0.0214  0.1945
29900W        W46161  11.793   0.193  11.713  0.0797  0.2436  0.0131
29901W        W46162  15.180   7.890   1.317 -0.2055  0.1748  0.0418
29902W        W46163   6.037  17.869   3.241  0.0702 -0.2910 -0.4402
29903W        W46164   2.596  14.296   5.114  0.0920  0.0965  0.3583
29904W        W46165   3.805  11.613  14.654 -0.0729 -0.2581  0.0907
29905W        W46166  14.494   3.508  11.856 -0.2029 -0.2861  0.0153
29906W        W46167  17.158   3.740   4.011  0.0479 -0.3293  0.0965
29907W        W46168   2.469   3.899   3.801  0.0675  0.0784  0.1251
29908W        W46169  15.204   9.289  13.300  0.0324 -0.3620  0.1151
29909W        W46170  17.865  15.154  13.825  0.0034 -0.1682 -0.0802
29910W        W46171  16.547  11.885   1.704 -0.2264 -0.2011 -0.1526
29911W        W46172   1.991   2.685  12.102 -0.1134  0.0523 -0.0449
29912W        W46173   7.439  10.863   1.751 -0.0977 -0.2773 -0.0528
29913W        W46174   9.533  13.975   0.552  0.0843  0.1686 -0.0717
29914W        W46175  16.722  16.263   4.045  0.2320 -0.0906  0.3945
29915W        W46176   3.331   0.292  14.618 -0.0334  0.0305  0.0574
29916W        W46177  18.405  11.021   4.355 -0.3268 -0.1583 -0.0297
29917W        W46178   8.064   7.989   6.039  0.0714 -0.1097 -0.1331
29918W        W46179  13.870  17.376   1.917 -0.0690 -0.1199 -0.1950
29919W        W46180   6.524  15.990   5.138  0.2757  0.2745  0.0201
29920W        W46181   6.200  10.594  13.681  0.0219  0.3934 -0.1364
29921W        W46182   9.820  17.203   5.089 -0.3497  0.0627  0.0044
29922W        W46183   5.720   6.623  15.497 -0.0401  0.0238 -0.1186
29923W        W46184  10.430   7.618   1.191  0.1100 -0.1355  0.3623
29924W        W46185   7.885   7.447   5.334 -0.3025  0.1196  0.1908
29925W        W46186   2.095   9.028   3.573 -0.2328  0.0633 -0.3341
29926W        W46187   4.300   0.038   0.061 -0.1226  0.1624  0.0449
29927W        W46188  16.932  15.558  10.970  0.1182 -0.2679 -0.3077
29928W        W46189   2.615   6.695   3.115 -0.2452  0.0446  0.0946
29929W        W46190   6.532  10.237   4.941  0.0497  0.3616  0.1845
29930W        W46191  17.949   3.825  12.974 -0.2078 -0.0754  0.0201
29931W        W46192  14.199   8.947   2.888 -0.3279  0.0441  0.0002
29932W        W46193   4.651   4.564  14.087 -0.0623  0.1889  0.0492
29933W        W46194   8.212   4.686   0.682  0.1438 -0.0622  0.2846
29934W        W46195   4.794   6.767   4.692  0.0717  0.2194  0.1514
29935W        W46196   1.210  16.673   0.771  0.1007 -0.0197  0.3233
29936W        W46197  13.212  18.667   3.204  0.0697  0.2017  0.2681
29937W        W46198   5.898  14.293  13.326  0.0509  0.1877 -0.0368
29938W        W46199   8.412   3.430   2.003 -0.2633  0.0847  0.0579
29939W        W46200   3.646  14.720  12.223 -0.0737 -0.1711 -0.3046
29940W        W46201  11.259   9.410   2.535  0.1003 -0.1332 -0.1441
29941W        W46202   8.996  15.663   4.231 -0.3518 -0.1423  0.0559
29942W        W46203  15.734  10.990   0.983 -0.1545 -0.1717 -0.0849
29943W        W46204  13.455   2.462  12.501 -0.0592  0.0829  0.1546
29944W        W46205   9.549  15.831  14.594 -0.1793  0.0988  0.1917
29945W        W46206  13.743   4.626  11.733 -0.0497  0.0354 -0.0570
29946W        W46207   7.347  10.721   3.991 -0.0788  0.2196 -0.0460
29947W        W46208   6.371  10.396  12.790  0.1442 -0.1837 -0.2219
29948W        W46209  12.872  14.925   3.596 -0.1718  0.1564 -0.4281
29949W        W46210  17.235   5.654   2.772  0.0742 -0.1754 -0.1117
29950W        W46211   3.071   4.906   4.775 -0.3864  0.3973 -0.1682
29951W        W46212   3.117  14.900  14.123 -0.0686  0.1894  0.0225
29952W        W46213  14.451   1.250   1.215  0.0656 -0.0232  0.1046
29953W        W46214   7.612   9.421   1.524 -0.0656  0.1375  0.1152
29954W        W46215   3.687   8.891   2.515 -0.2655 -0.1480  0.2570
29955W        W46216  16.982  13.390  13.554  0.3176  0.0731  0.1017
29956W        W46217   6.492   9.893  14.271  0.1131 -0.1797  0.2360
29957W        W46218   5.384  10.204   1.397 -0.1545 -0.2246  0.2027
29958W        W46219  14.835  18.076  15.152 -0.1540  0.0343  0.1098
29959W        W46220   4.140  10.657   4.005  0.1286 -0.1476  0.1753
29960W        W46221   0.040  14.875   4.567  0.0387  0.2045  0.0037
29961W        W46222  12.820   4.683   1.812  0.0196 -0.2876 -0.0041
29962W        W46223   0.982  10.574  14.185 -0.1825  0.0955 -0.0456
29963W        W46224   5.020   0.289   2.325  0.0369 -0.0720 -0.0030
29964W        W46225  10.058  10.305  13.566  0.1894  0.2432 -0.0433
29965W        W46226   9.740   8.853   4.174 -0.1055  0.0328 -0.0701
29966W        W46227  12.514   2.855  13.058  0.2993  0.2385 -0.1112
29967W        W46228  12.607   6.023   0.476  0.3374  0.0301  0.0148
29968W        W46229  12.328  12.856   1.993 -0.0968  0.1958  0.1373
29969W        W46230   6.550  12.353   5.955 -0.2692  0.0445 -0.0201
29970W        W46231  18.788   3.834   2.069  0.0130 -0.3278  0.0459
29971W        W46232  14.570   1.339   0.325  0.0601  0.1001  0.0757
29972W        W46233   0.730   8.540   5.035  0.1021  0.0694  0.1958
29973W        W46234  12.497  18.475  13.929 -0.1248 -0.1132 -0.1603
29974W        W46235   5.068   7.246   0.075 -0.1651  0.0146  0.2259
29975W        W46236   0.617  17.885  14.836 -0.1869 -0.0571  0.0227
29976W        W46237  14.523   0.558  13.167 -0.2549 -0.0376  0.1991
29977W        W46238   5.870   3.330   4.544 -0.0750  0.2019  0.0539
29978W        W46239   7.297   3.358   5.647 -0.0619 -0.2048 -0.0215
29979W        W46240  12.361   3.318  14.743  0.0866  0.1241 -0.2248
29980W        W46241   7.381   4.593  11.753  0.1040 -0.1218  0.0670
29981W        W46242   3.727  17.169   2.613  0.1528  0.0374 -0.0967
29982W        W46243  11.673  12.695  13.545 -0.0752 -0.3499  0.2078
29983W        W46244  15.575  18.141  12.380 -0.1956 -0.0081  0.1131
29984W        W46245   1.030   1.951   2.157 -0.1816  0.0727  0.4497
29985W        W46246   1.552   8.098   4.713  0.0466  0.1045  0.1949
29986W        W46247   1.253   5.301  11.393 -0.1114  0.1032  0.3071
29987W        W46248  13.041  12.558   5.173  0.1815 -0.2144 -0.1478
29988W        W46249  15.136  13.414   4.314  0.4677  0.2748 -0.2175
29989W        W46250   8.119   9.197  13.713  0.1222  0.2313  0.2299
29990W        W46251   7.141   5.692   4.334  0.1105 -0.0532  0.3746
29991W        W46252   0.720   2.469   2.055  0.0831 -0.2778 -0.1236
29992W        W46253  17.918   4.011  10.743 -0.2631  0.1439 -0.1456
29993W        W46254   8.350   5.097   0.340 -0.0359 -0.2088 -0.1348
29994W        W46255   9.874   1.412  14.895 -0.0851 -0.1814  0.2420
29995W        W46256   0.179  10.788   0.229 -0.2123 -0.2148  0.0114
29996W        W46257   0.339   5.812  11.371 -0.0491 -0.0856 -0.0654
29997W        W46258   8.641   5.579   1.240  0.1853  0.1558  0.0939
29998W        W46259   2.135  12.133   4.057  0.1720 -0.1989  0.1186
29999W        W46260   9.468   7.197   1.494 -0.0538  0.0505  0.1355
30000W        W46261  13.235  16.866  14.184  0.1121  0.1135 -0.2311
30001W        W46262  14.278   5.739  12.432  0.0947  0.3232 -0.0127
30002W        W46263  14.553  13.531  11.051 -0.0731 -0.2857  0.0159
30003W        W46264   7.800  13.456   0.610 -0.3065 -0.0358 -0.3135
30004W        W46265   1.812  14.771   2.939 -0.4053  0.2750 -0.0442
30005W        W46266   8.244   9.240   3.323  0.0729 -0.1539  0.3338
30006W        W46267   7.490  10.144  12.005 -0.3972 -0.2707 -0.1597
30007W        W46268   7.201   9.043  14.870  0.1413 -0.1155  0.1334
30008W        W46269  13.841   9.652  13.364 -0.0906 -0.0806  0.2058
30009W        W46270   4.426  14.201   1.546  0.4282  0.4889 -0.0142
30010W        W46271  16.737   4.447   3.619  0.1529  0.0438  0.1806
30011W        W46272   3.599   4.847  11.007  0.0362 -0.1606  0.2237
30012W        W46273  17.215  14.673   5.378  0.2009  0.0518  0.1615
30013W        W46274   3.311   7.231   4.658 -0.2010 -0.1367  0.2298
30014W        W46275  14.919  11.663  14.966  0.0895 -0.1243 -0.0120
30015W        W46276   3.449   2.277   3.824 -0.0600 -0.1157 -0.1596
30016W        W46277  13.529  13.200   2.862  0.2420  0.1472 -0.0041
30017W        W46278   0.680   8.785  13.876 -0.0483  0.3586  0.0245
30018W        W46279  10.158  15.457   4.377  0.1115 -0.1018  0.1527
30019W        W46280  10.232   9.422  12.454 -0.2376 -0.2341  0.0910
30020W        W46281   9.456  16.275  15.435 -0.0943  0.0728  0.0725
30021W        W46282   6.696   7.642  12.265 -0.0777 -0.1875  0.4579
30022W        W46283   5.013   9.822  14.599 -0.0796  0.2026 -0.2669
30023W        W46284  16.953  15.273  13.740 -0.2564 -0.4129  0.0648
30024W        W46285   2.673   3.899   0.798 -0.0156  0.0755 -0.1378
30025W        W46286   9.519   1.456  14.521  0.1204  0.2041 -0.1523
30026W        W46287   7.618   1.916   0.865 -0.2964  0.0725  0.1859
30027W        W46288  16.852   0.567   1.333  0.1975  0.1448 -0.0764
30028W        W46289   9.099  17.652   4.543 -0.3091  0.3171  0.0107
30029W        W46290  14.341   6.163  10.648 -0.1189  0.0870  0.0764
30030W        W46291  11.909   8.553  13.016 -0.0893 -0.2774  0.2165
30031W        W46292  13.552   2.812  13.345  0.3165  0.1045 -0.0064
30032W        W46293  12.658  16.604   0.612  0.1588 -0.1145 -0.2664
30033W        W46294  17.632   9.789  15.146  0.2974 -0.2323 -0.1656
30034W        W46295  10.309   3.902   1.325  0.1845  0.0186 -0.1426
30035W        W46296   7.592   1.608  12.020 -0.0647 -0.1373 -0.0127
30036W        W46297  14.190  12.992  12.956 -0.0113 -0.2318 -0.1664
30037W        W46298  16.253   8.047   0.791 -0.1424  0.3266 -0.0855
30038W        W46299  18.675   5.944   2.004  0.0687  0.1395 -0.3368
30039W        W46300   8.520  16.993   4.474  0.1221  0.1263  0.0373
30040W        W46301   4.647   2.653  11.744  0.1958 -0.1521 -0.1797
30041W        W46302  14.012   1.411   0.336  0.3859  0.0884  0.2045
30042W        W46303  14.683  18.044  11.082  0.0934  0.0895 -0.1306
30043W        W46304  12.542   0.824  10.891 -0.0135  0.2650  0.0167
30044W        W46305  16.708   3.430  12.736  0.0512 -0.1096 -0.3624
30045W        W46306  10.219  13.565   0.458 -0.2108 -0.0148 -0.1843
30046W        W46307   7.663  12.526   5.248  0.0822 -0.0123  0.1545
30047W        W46308  17.809   0.461   3.941  0.0051 -0.0135 -0.1026
30048W        W46309   3.449   0.531  14.184  0.2151  0.0748  0.1802
30049W        W46310  18.507  15.693   3.389  0.0121  0.4143  0.0341
30050W        W46311   1.337  14.900   2.941 -0.3107  0.0998 -0.0932
30051W        W46312  16.425   5.989   0.640 -0.2256  0.0831 -0.1405
30052W        W46313  12.559  16.152  10.509  0.1452  0.0365  0.2011
30053W        W46314   4.614  16.047   4.289  0.1331  0.1091 -0.1905
30054W        W46315  15.611   1.260   1.220  0.1432  0.0361 -0.1399
30055W        W46316   4.053  12.437   1.295  0.4366  0.0974  0.2132
30056W        W46317  16.763   5.657   2.182 -0.0643 -0.0341 -0.1785
30057W        W46318  10.166   8.342   1.717 -0.2019  0.2769  0.0590
30058W        W46319  17.208   6.519   5.367 -0.0338 -0.0790 -0.2649
30059W        W46320  10.805  12.410  11.539  0.1886 -0.0192 -0.0861
30060W        W46321   3.831  15.877  13.384 -0.1910 -0.1761  0.1157
30061W        W46322   7.463  12.949  12.848 -0.0215 -0.2554 -0.2065
30062W        W46323  10.651  11.272   0.521  0.1216 -0.1562  0.0938
30063W        W46324  12.137   6.525   2.564 -0.0053  0.0533 -0.1369
30064W        W46325   7.637   2.103  14.849  0.0699  0.1533 -0.2602
30065W        W46326   8.456   7.662  15.479  0.3925 -0.2512  0.0507
30066W        W46327  12.592  10.889  11.057 -0.0105  0.0498  0.2634
30067W        W46328   2.010  18.187   5.258  0.0182 -0.1987 -0.2179
30068W        W46329  17.055  16.427  14.624 -0.3352  0.0101  0.1477
30069W        W46330   6.383  16.791   5.565  0.1784  0.1778  0.0231
30070W        W46331   3.333   9.279   4.779 -0.4430  0.0796 -0.0230
30071W        W46332  15.799  17.459  11.502  0.2860  0.0265  0.0953
30072W        W46333   3.247  15.375  14.115  0.2531 -0.1633  0.4185
30073W        W46334   8.930  18.328   1.697  0.0659  0.0008 -0.3214
30074W        W46335   0.669  14.224   3.466 -0.0609 -0.0377 -0.0932
30075W        W46336  15.396  13.194   1.575 -0.0073  0.1654 -0.0789
30076W        W46337   2.007  10.265  14.979  0.0247  0.1487  0.1848
30077W        W46338  16.416   8.924   2.235  0.1607 -0.1455 -0.2677
30078W        W46339  17.314  17.631  15.502 -0.1316  0.2362 -0.2429
30079W        W46340  10.998   0.770  11.681  0.0165  0.0666  0.0437
30080W        W46341  13.702   3.629   1.079  0.1925  0.0117  0.0997
30081W        W46342  11.715  12.550  14.985  0.1017 -0.0965  0.3980
30082W        W46343   6.370  10.959  15.171  0.0242 -0.1266  0.1255
30083W        W46344   4.120  14.556   2.269  0.3080  0.1745 -0.0541
30084W        W46345   2.565  14.336   2.458 -0.0161  0.2821  0.0077
30085W        W46346   0.971   2.730   1.016  0.2805  0.4611 -0.0741
30086W        W46347  11.036  11.273  11.510 -0.2905 -0.1930  0.1333
30087W        W46348  14.251   3.344  10.975  0.1070 -0.2100  0.0610
30088W        W46349  10.550  11.593  10.778  0.0137  0.0204  0.2320
30089W        W46350   5.480  14.838   5.153 -0.1864  0.0785 -0.3150
30090W        W46351  14.455   9.545   2.766 -0.1533  0.0626 -0.0081
30091W        W46352   8.034   3.100  14.889 -0.0717 -0.1779  0.1148
30092W        W46353  14.035  16.273   4.919 -0.1189  0.1083 -0.0319
30093W        W46354   3.424   3.725   1.815 -0.2132 -0.0461 -0.0643
30094W        W46355  16.038   1.960   2.440 -0.0313  0.0704  0.0403
30095W        W46356  16.236  13.875   4.468 -0.1411 -0.0914  0.1489
30096W        W46357   2.161  11.031  13.058  0.0900  0.2270 -0.7660
30097W        W46358   0.941   2.027   3.324  0.3988 -0.1389  0.0767
30098W        W46359   5.147  16.243   2.682  0.0663  0.3010  0.0525
30099W        W46360   2.548   2.842   4.704 -0.1506  0.0972  0.0209
30100W        W46361   7.870   2.955  13.856  0.0370 -0.2040  0.1473
30101W        W46362   7.650   2.055   5.185 -0.1188 -0.1743  0.0784
30102W        W46363  15.586  12.665   0.418  0.2381  0.0245  0.0853
30103W        W46364   6.465   3.685  12.274 -0.0905  0.2218 -0.1806
30104W        W46365  14.234  14.653   0.342  0.0095 -0.0394  0.0007
30105W        W46366   9.724   6.338   1.337  0.2874 -0.0218  0.0260
30106W        W46367   6.906  11.772  11.629  0.0017 -0.0370  0.2375
30107W        W46368   2.295   3.878   0.460 -0.1477  0.1409 -0.0461
30108W        W46369  12.326   9.142  14.854 -0.2515  0.1550  0.0119
30109W        W46370   4.726   7.649  11.103  0.0129  0.0222 -0.0146
30110W        W46371  15.931   8.492   1.567  0.1126 -0.0675 -0.2621
30111W        W46372  12.137   5.315   3.429  0.0474 -0.0858  0.4226
30112W        W46373  10.769  10.678  14.983 -0.3164  0.0505 -0.2532
30113W        W46374   1.126   7.732  13.944 -0.1630 -0.1758 -0.6944
30114W        W46375   2.239  13.879  13.499 -0.0749  0.2268 -0.0337
30115W        W46376   4.988  13.557  14.956 -0.0989 -0.1719 -0.0042
30116W        W46377  16.093   0.497  10.624  0.1263  0.2154  0.2569
30117W        W46378   4.759  10.324  13.756  0.1444 -0.4548  0.0924
30118W        W46379   3.826   6.853   0.185  0.0346  0.2948  0.1138
30119W        W46380  12.372   9.185  15.377 -0.0682 -0.0692  0.2151
30120W        W46381  17.412  14.789   0.469  0.0669  0.1906 -0.0672
30121W        W46382   2.547   9.331   4.414  0.1298  0.1620 -0.4630
30122W        W46383   6.138   2.615   3.673  0.3031  0.1162 -0.0861
30123W        W46384   5.903   0.189  11.511 -0.0473  0.3229 -0.0561
30124W        W46385  18.412  17.559  14.995  0.0274 -0.0710  0.1209
30125W        W46386  14.573   0.461   2.315  0.0790  0.2293  0.1469
30126W        W46387   3.812  16.868   1.672 -0.0079  0.3045 -0.0421
30127W        W46388   1.547  10.837   3.656 -0.1222  0.1283 -0.1650
30128W        W46389   1.583   1.578  13.847 -0.1031  0.1191  0.2621
30129W        W46390   2.601  10.746  13.153  0.0977  0.0248 -0.0982
30130W        W46391  16.231   8.503   4.420 -0.0582 -0.1075  0.1907
30131W        W46392  12.467  11.986  13.171 -0.0281  0.2970  0.1919
30132W        W46393   6.370   0.101  12.220  0.0143 -0.1887  0.2014
30133W        W46394  18.280  18.709  14.996  0.0074 -0.0110  0.1988
30134W        W46395   7.227  13.706   1.912  0.0280 -0.0082 -0.2296
30135W        W46396   7.908   2.691   3.468 -0.0583  0.1778  0.2719
30136W        W46397  17.583  18.359   3.387 -0.0304  0.0594 -0.1272
30137W        W46398   7.579  14.107   0.266  0.2150 -0.4334  0.0016
30138W        W46399  14.085   1.173   3.168 -0.2553 -0.1702 -0.0119
30139W        W46400   3.804   7.471  13.873 -0.0871  0.0798  0.2034
30140W        W46401   3.650   7.312   0.557  0.1542  0.0503  0.2101
30141W        W46402  14.852  17.432  13.316 -0.0935 -0.4581 -0.2731
30142W        W46403   5.836   8.846  15.032 -0.0961 -0.0085  0.1281
30143W        W46404   9.849  13.973  13.364 -0.1810 -0.0003 -0.2535
30144W        W46405  10.211  14.330  11.212 -0.0261  0.0706  0.4305
30145W        W46406   8.673  15.249  11.801 -0.0893 -0.0986  0.3850
30146W        W46407   2.309  18.469   0.788  0.3883 -0.3243 -0.1720
30147W        W46408  16.665  17.912   2.513  0.0407  0.1804 -0.0868
30148W        W46409  13.142  15.795   1.007 -0.1597  0.3141 -0.0660
30149W        W46410   1.373  15.374  12.782  0.0844  0.1504 -0.1001
30150W        W46411  12.203   5.390   2.226  0.2649 -0.2338  0.4321
30151W        W46412   6.260   7.504  13.858  0.0250  0.0649  0.0737
30152W        W46413   1.566   9.234   2.836 -0.2437 -0.2809  0.3026
30153W        W46414  17.755   2.821   4.590  0.2677  0.3174  0.2691
30154W        W46415   4.003  11.674   4.065 -0.1393  0.3530  0.1784
30155W        W46416  18.738  14.052   1.606 -0.2655 -0.1661  0.1288
30156W        W46417   4.258   5.815   2.393  0.0075 -0.0449 -0.0766
30157W        W46418  11.129   4.638  12.032  0.2277  0.2187  0.1623
30158W        W46419  11.918   3.104   2.907  0.3721 -0.0082  0.1747
30159W        W46420   3.892   1.676   0.246  0.1496 -0.1239 -0.0942
30160W        W46421  15.213  17.891  12.146  0.0407  0.1966  0.0998
30161W        W46422   9.143  14.755   1.199  0.0396  0.0146  0.0260
30162W        W46423   9.875  11.073  14.730 -0.2428  0.1566 -0.3197
30163W        W46424  16.443   2.899   1.391 -0.0801 -0.0535 -0.1284
30164W        W46425  15.064   3.856  13.843  0.0340 -0.0296  0.1946
30165W        W46426  16.435   8.535   4.887  0.2541 -0.0355  0.2181
30166W        W46427   5.265  14.053  14.019 -0.0003  0.1938 -0.3621
30167W        W46428   7.877   0.680  10.371  0.1772 -0.0255  0.0188
30168W        W46429  18.780  16.961   2.504 -0.0236 -0.2428 -0.1603
30169W        W46430   4.565  10.856  10.996 -0.4251 -0.1637 -0.1002
30170W        W46431   1.518  10.687   0.734  0.3600 -0.0422  0.3628
30171W        W46432  13.453   7.928   0.345  0.0889 -0.0112  0.4621
30172W        W46433   6.591   7.258  13.561  0.2318 -0.4638  0.2303
30173W        W46434  12.356  10.802   3.421 -0.1180  0.5687 -0.0253
30174W        W46435  16.603   1.752  14.645 -0.0940 -0.0036 -0.2807
30175W        W46436  14.063  16.640  10.887  0.0767  0.1407 -0.2555
30176W        W46437  10.568   5.712   4.144 -0.0396 -0.1078  0.0457
30177W        W46438   6.355   9.348  15.373 -0.0290  0.0550 -0.0225
30178W        W46439   3.575   9.716  15.188 -0.0146 -0.0405  0.0254
30179W        W46440  18.086   6.651  12.044  0.3397 -0.0078  0.0020
30180W        W46441   8.688  17.380  11.912  0.0978 -0.1712  0.0324
30181W        W46442   8.529   0.192  14.238 -0.2997  0.1809  0.1773
30182W        W46443  15.608  18.619   1.581  0.0678 -0.1455 -0.0431
30183W        W46444  16.586   6.160   2.223 -0.1516 -0.2824  0.0287
30184W        W46445   7.214  14.303  12.570 -0.1062  0.2549 -0.0789
30185W        W46446   9.588   5.916   4.010  0.0711 -0.0545 -0.2175
30186W        W46447   2.933  15.902   4.328  0.3465  0.2548 -0.1980
30187W        W46448   3.872  18.084   9.452  0.2304 -0.1024  0.0932
30188W        W46449   3.600  14.640   4.376  0.0967 -0.3433  0.2805
30189W        W46450  17.930   9.668  12.061  0.2626 -0.2790 -0.1347
30190W        W46451   5.448   9.951   0.567 -0.3219 -0.0060 -0.0853
30191W        W46452   4.581   5.419   2.330  0.0658  0.3326  0.0759
30192W        W46453  18.622   0.665  11.997 -0.3600 -0.0895 -0.0624
30193W        W46454   6.337  13.489   4.862  0.0786 -0.0433  0.0308
30194W        W46455   0.702  10.086  15.286  0.3747  0.0581  0.3945
30195W        W46456   8.217  12.817  11.719  0.2572  0.4547  0.0304
30196W        W46457  18.235  16.292   0.299 -0.0717  0.1301  0.0488
30197W        W46458  13.392  17.818  10.642 -0.0561  0.1570  0.0342
30198W        W46459   7.482  11.747   1.527 -0.4239 -0.2170 -0.0224
30199W        W46460   1.982  11.419   2.481 -0.3829 -0.0511  0.2211
30200W        W46461  13.704   2.441   2.459  0.2737 -0.2149 -0.2562
30201W        W46462  10.542   0.902   0.357 -0.2728 -0.2409 -0.1938
30202W        W46463  10.811   0.693   4.242  0.1332 -0.1783 -0.0813
30203W        W46464  14.674   0.210   4.445 -0.0437 -0.3338 -0.0244
30204W        W46465   5.328  13.628  12.501  0.0194  0.0796 -0.0521
30205W        W46466  16.740   4.903   3.367 -0.1578  0.0345 -0.1021
30206W        W46467   2.436  14.831   0.958 -0.0020  0.0572 -0.1343
30207W        W46468  11.323   4.095   4.429 -0.2522 -0.0844 -0.1976
30208W        W46469   3.883   9.589  14.049  0.2141  0.1162 -0.0435
30209W        W46470  14.149  12.577   1.410  0.2335  0.1425  0.0619
30210W        W46471  17.798  14.862   1.360  0.0675  0.1085  0.0945
30211W        W46472  18.584  15.912  10.731  0.1295 -0.1165 -0.0680
30212W        W46473  13.261   4.878   4.139 -0.1902  0.3155 -0.0536
30213W        W46474   3.802   3.191   5.437 -0.1040 -0.0459 -0.1681
30214W        W46475   4.932   1.484   1.643  0.1215  0.2969  0.1668
30215W        W46476  14.365   1.003  13.551  0.1003  0.1475 -0.0746
30216W        W46477  11.493  11.828  10.959 -0.1653  0.1180 -0.0979
30217W        W46478   9.350  17.801   3.147  0.2827 -0.2692  0.2671
30218W        W46479   1.998  16.591   1.882 -0.0021  0.0241 -0.0794
30219W        W46480  15.369   3.001  13.922  0.1980  0.0785  0.0031
30220W        W46481  13.987   2.576  13.346  0.1136  0.0281  0.0024
30221W        W46482   4.450  12.320   2.523 -0.0998 -0.2782 -0.0986
30222W        W46483   6.214  11.088  13.336 -0.3661 -0.0486  0.1698
30223W        W46484  11.665   0.320   3.890  0.1541  0.3755  0.0729
30224W        W46485   1.056  17.762   0.941  0.0734  0.1823 -0.4632
30225W        W46486   5.024   3.157  14.498 -0.2237  0.0963 -0.2867
30226W        W46487  16.740  14.787   5.101 -0.0564 -0.0585 -0.1040
30227W        W46488   3.048   6.989   2.967  0.1011  0.0983  0.0418
30228W        W46489  12.652  13.920   3.623  0.1426 -0.1694 -0.1188
30229W        W46490  16.066  10.026   1.264 -0.1475 -0.0874  0.1240
30230W        W46491   6.194   7.060   1.832 -0.1094 -0.2968  0.1332
30231W        W46492  15.255   6.462   5.654 -0.0571 -0.1376 -0.0401
30232W        W46493   6.179   9.935  15.064 -0.0780  0.2683  0.1109
30233W        W46494  12.883   8.239   9.899 -0.2938  0.1470  0.1763
30234W        W46495  12.714  11.603  11.437 -0.1657 -0.3736  0.4610
30235W        W46496   9.552   3.686   3.146  0.0916  0.0294  0.1897
30236W        W46497  15.229  12.607   2.217  0.1101  0.1470 -0.2639
30237W        W46498  17.771  10.956   1.109  0.2850 -0.0472 -0.0631
30238W        W46499   9.636   4.654   3.973  0.0287 -0.1392 -0.0950
30239W        W46500  13.078   4.169   1.773 -0.2392  0.0314 -0.1421
30240W        W46501  17.436  10.022  12.754  0.1117  0.2421  0.1311
30241W        W46502  14.566   0.710  14.432 -0.0697 -0.1468  0.0241
30242W        W46503  17.488   4.824   0.662  0.2086  0.0864 -0.1046
30243W        W46504   0.420   5.591   2.617  0.0972 -0.0394  0.2659
30244W        W46505   7.147   2.823  14.412  0.1104 -0.0963  0.1534
30245W        W46506   0.174  15.064   2.266  0.1832  0.1953  0.0063
30246W        W46507  18.078   2.637  10.636 -0.1169  0.0553  0.2252
30247W        W46508   2.361   9.918   0.035 -0.1871  0.3682 -0.2151
30248W        W46509  18.311  12.557   5.577  0.0967  0.0752 -0.2958
30249W        W46510   3.408  17.183   3.128  0.0415  0.0983  0.0762
30250W        W46511  18.752   2.285  13.115  0.1372  0.0339 -0.1110
30251W        W46512  16.527  13.681  11.544 -0.0989 -0.2425 -0.0387
30252W        W46513   3.338  16.686  12.297 -0.0003  0.3543  0.3736
30253W        W46514   4.503   5.743   1.384  0.1405 -0.0194  0.0526
30254W        W46515   3.856  12.559  13.842 -0.0899  0.0949  0.0497
30255W        W46516  16.635   6.745   0.963 -0.1586 -0.1830  0.1079
30256W        W46517   1.602   9.302  14.896 -0.2268  0.2711  0.0942
30257W        W46518   9.720   4.608  15.600 -0.2605 -0.1758  0.3368
30258W        W46519  18.735   3.369   1.973 -0.0830 -0.2151  0.2835
30259W        W46520  12.160   5.127  12.945 -0.2565 -0.0532 -0.1132
30260W        W46521   4.670   8.218  13.032  0.2677 -0.3006 -0.1447
30261W        W46522   1.172  15.711   5.726  0.1218 -0.1964 -0.2198
30262W        W46523   1.531   4.899  11.482 -0.0714 -0.2741 -0.1657
30263W        W46524  10.516   5.559   0.003 -0.2073  0.1104  0.0468
30264W        W46525   1.605  12.969   5.168 -0.2950 -0.0223 -0.1391
30265W        W46526  16.255   5.658  14.543 -0.0130  0.2007  0.0168
30266W        W46527   6.538  13.032  10.493  0.3546 -0.2739 -0.0535
30267W        W46528   7.872   0.185   4.549 -0.2085 -0.1323 -0.2362
30268W        W46529   1.519   0.522  11.010  0.1659 -0.0113 -0.0589
30269W        W46530   1.945   7.597  10.846  0.1947  0.0009 -0.2070
30270W        W46531   8.131  17.791   4.463 -0.0146  0.0066  0.0899
30271W        W46532   0.315  13.802  13.280 -0.0225  0.2526 -0.1024
30272W        W46533  16.690   9.481  11.038 -0.0466  0.0786 -0.1758
30273W        W46534  16.009   2.578   1.340  0.1936 -0.1904  0.0519
30274W        W46535  10.865  13.858   1.066 -0.1251 -0.1080 -0.1905
30275W        W46536   3.361   1.588   0.447  0.1071 -0.0366  0.1732
30276W        W46537   2.843   4.165   1.686  0.0066  0.4567 -0.0086
30277W        W46538   4.292  10.340   0.713 -0.2673 -0.1491 -0.1843
30278W        W46539  11.596  12.173  13.382 -0.0823  0.2496 -0.1917
30279W        W46540   8.912  12.106  14.508 -0.0039 -0.0300  0.0528
30280W        W46541  11.864  12.428   3.228 -0.4523 -0.1152 -0.2186
30281W        W46542  17.868   3.008   2.587  0.1145  0.0064  0.1032
30282W        W46543  12.846  14.005   1.134 -0.0125  0.3117  0.0877
30283W        W46544   1.553   9.121   3.660  0.0851  0.0903  0.0569
30284W        W46545  18.800   2.012   4.696 -0.0783  0.2068 -0.0380
30285W        W46546   4.031   3.252   4.598  0.3911 -0.1761  0.0006
30286W        W46547  11.058  18.595   0.853  0.1782  0.1388  0.1144
30287W        W46548   4.231  17.749  11.344  0.0832  0.3536  0.3397
30288W        W46549  15.178  16.518   2.789 -0.1001 -0.0844  0.0571
30289W        W46550   6.796  12.528  12.317  0.2421 -0.0342 -0.0371
30290W        W46551   5.572   0.872  14.034 -0.1536 -0.1070  0.2334
30291W        W46552   1.180   3.594  11.840 -0.0440 -0.1627 -0.2038
30292W        W46553   1.639   5.394  11.722 -0.1562  0.1540 -0.1554
30293W        W46554   3.677   9.585   1.774 -0.0255 -0.0115  0.0248
30294W        W46555   2.632   2.986  12.844 -0.0553 -0.2390 -0.1248
30295W        W46556  10.514   0.230  10.159 -0.1407 -0.1731  0.0795
30296W        W46557  17.048   4.182   2.079  0.0658 -0.2047 -0.2583
30297W        W46558  12.327   1.528  13.194 -0.0923 -0.5098 -0.0537
30298W        W46559   9.594  15.323  12.972 -0.0369  0.2609 -0.1384
30299W        W46560  11.272  12.357  13.726 -0.0609  0.2173  0.2766
30300W        W46561  10.633  11.527  15.417  0.1975  0.0333 -0.1329
30301W        W46562   3.767  14.050  12.528  0.0870  0.0065 -0.4445
30302W        W46563  12.858  18.742   2.756 -0.0173  0.3161  0.1537
30303W        W46564   5.112   7.719   1.004 -0.0299  0.1288  0.1480
30304W        W46565  14.434  16.655   1.422  0.2649 -0.0129 -0.2017
30305W        W46566   7.847   9.240  14.104 -0.0649  0.0338 -0.0242
30306W        W46567  15.620   0.181  15.578 -0.2266  0.1493 -0.0817
30307W        W46568  12.784   5.515  12.387  0.0018 -0.0816 -0.0513
30308W        W46569  10.244  10.913   4.033  0.2370  0.0795 -0.0163
30309W        W46570   8.698   9.610   1.610 -0.1304 -0.1152  0.1783
30310W        W46571   2.362  11.147   1.870 -0.1021 -0.2141 -0.0369
30311W        W46572  11.930   2.658   5.528 -0.0178  0.0967  0.0013
30312W        W46573  11.140   9.029   4.651  0.0673  0.0085 -0.1751
30313W        W46574  14.787  14.887  15.068  0.1430 -0.0344  0.0142
30314W        W46575   6.863   3.283  14.108  0.0364 -0.1836  0.2934
30315W        W46576   5.600   7.539   1.199 -0.1934 -0.0166  0.0194
30316W        W46577   5.799  18.053  10.113  0.2948 -0.4389 -0.0381
30317W        W46578   7.505   1.981  12.335 -0.2577  0.0496 -0.1656
30318W        W46579  11.830   4.229  15.578  0.0960 -0.1540 -0.0125
30319W        W46580  16.039   1.873   2.907  0.1720 -0.1292 -0.0037
30320W        W46581   3.107  14.431   2.546  0.3528  0.2263 -0.0317
30321W        W46582   3.684  11.458   4.906 -0.0280 -0.2125  0.1854
30322W        W46583  13.109   5.937   5.644  0.0304  0.1054  0.2797
30323W        W46584  12.601   6.089  15.061 -0.0177  0.0830  0.1236
30324W        W46585  14.633   9.491   1.185  0.0411 -0.0001  0.1427
30325W        W46586   6.995   7.582   1.402 -0.0888 -0.0738  0.1212
30326W        W46587   6.250   8.057  11.677 -0.0460  0.2559  0.0091
30327W        W46588   0.273  18.105  14.235 -0.0428  0.0807 -0.0687
30328W        W46589  15.291   8.571   3.080 -0.2082  0.3312  0.0202
30329W        W46590  10.353   2.377  14.081 -0.2732 -0.1695 -0.5214
30330W        W46591  12.781   2.651  11.540 -0.1692 -0.1133  0.0359
30331W        W46592   8.581   7.833   4.864  0.1313  0.0321 -0.0164
30332W        W46593   7.179   4.071  15.219 -0.1490 -0.4532 -0.1390
30333W        W46594   9.643   6.440  15.300 -0.0999  0.0405  0.1041
30334W        W46595  15.694  14.421   1.832  0.3118  0.0227  0.0977
30335W        W46596   3.453  11.970  13.331  0.0098  0.2993 -0.1037
30336W        W46597  13.396  10.840   1.954 -0.1457 -0.2705 -0.0820
30337W        W46598   4.120   8.930   1.063 -0.0477 -0.2570 -0.0281
30338W        W46599   4.289   9.909  13.361  0.0805  0.0199 -0.0949
30339W        W46600   9.181  10.206   0.330  0.3913  0.1893  0.1253
30340W        W46601   3.146  15.045  15.418  0.3423 -0.3387 -0.1378
30341W        W46602  15.864  16.784   3.544 -0.1724  0.0721 -0.2446
30342W        W46603   2.138   1.164  11.284  0.1195 -0.0848 -0.0166
30343W        W46604  16.116   3.949   1.932 -0.3497  0.3047  0.3412
30344W        W46605   0.288   7.589  14.499 -0.0637  0.0313  0.0332
30345W        W46606  11.243   4.774  11.480  0.3647 -0.0907  0.3744
30346W        W46607   7.528  17.749  13.429 -0.0761  0.1193  0.2565
30347W        W46608  12.457   6.895   0.755  0.1773  0.1410  0.2943
30348W        W46609   6.339  11.124  11.445  0.0996  0.2975 -0.1271
30349W        W46610  18.078   6.641   3.115 -0.0694  0.2476 -0.1011
30350W        W46611  14.344  12.943  14.350  0.2262 -0.1224 -0.1078
30351W        W46612   1.634   7.894   1.113  0.1840  0.0238 -0.0056
30352W        W46613   8.443   1.948   2.591 -0.0103 -0.1376 -0.0469
30353W        W46614   4.396   0.517   5.215 -0.1477 -0.0246  0.1803
30354W        W46615  11.219   4.167  13.841 -0.0635  0.3253  0.2018
30355W        W46616   6.060   4.051   3.459 -0.0271 -0.1918 -0.1927
30356W        W46617   1.672  13.794  14.995  0.2260  0.0361  0.1218
30357W        W46618   0.166   7.832   3.618 -0.3802  0.1585 -0.4834
30358W        W46619  17.401   2.797   2.672 -0.3551  0.2383 -0.0478
30359W        W46620  11.007   8.736   3.718 -0.1313 -0.2503  0.2629
30360W        W46621   6.371   9.720   2.742 -0.1821  0.0945  0.1504
30361W        W46622  15.407   2.276   1.383  0.1650  0.0926 -0.1614
30362W        W46623   9.332   8.128  14.164 -0.2037  0.1955 -0.3285
30363W        W46624   5.094  13.692  14.375  0.1959 -0.0171 -0.2333
30364W        W46625   5.051   4.427  14.404  0.0663 -0.1868  0.0916
30365W        W46626  14.046   3.452   5.582  0.1222  0.0263  0.4700
30366W        W46627  13.286  11.519  11.280 -0.1818  0.1136  0.0123
30367W        W46628   3.064  18.027  12.216  0.1969  0.2096 -0.0039
30368W        W46629   3.130   4.591   5.251  0.3850 -0.0976  0.1044
30369W        W46630   9.979  16.034  13.568  0.0454  0.0995  0.0679
30370W        W46631   3.271   1.151   0.599  0.1431  0.2846  0.1265
30371W        W46632   4.171   1.087  14.928  0.0591  0.4485 -0.1289
30372W        W46633   4.451  16.860   2.489  0.1167 -0.2855  0.2086
30373W        W46634   4.311   0.830   1.926 -0.0030  0.1102  0.4567
30374W        W46635   6.258   6.438  12.231 -0.4444 -0.0624  0.0660
30375W        W46636  18.362  10.697  14.342 -0.0198  0.2778 -0.1298
30376W        W46637   0.095   5.412  12.157 -0.0604 -0.0808 -0.2084
30377W        W46638  11.741   5.893   0.807  0.2565  0.1645 -0.1372
30378W        W46639  16.418   1.667   2.117  0.2360 -0.2708 -0.0667
30379W        W46640  13.293  16.202  11.072  0.0670  0.2229 -0.0442
30380W        W46641   9.857  14.138   4.759  0.4032 -0.1465 -0.1589
30381W        W46642   2.942   7.567  12.884 -0.2169 -0.0452  0.0550
30382W        W46643  11.434   6.988  14.221 -0.0062  0.0497 -0.0683
30383W        W46644   4.033   9.079  14.803  0.0188  0.2863 -0.3616
30384W        W46645   7.645   4.479   0.091  0.1448  0.2634  0.1168
30385W        W46646   8.201  15.677   2.632  0.2278  0.0193  0.2160
30386W        W46647  17.558  12.199  12.169  0.0331  0.0605  0.0865
30387W        W46648   5.000  16.755   2.269 -0.0828  0.1959  0.1340
30388W        W46649  16.020  16.241   2.444 -0.0007 -0.0111 -0.3322
30389W        W46650  13.975  10.170  15.318  0.2070 -0.1486  0.0733
30390W        W46651   8.978  11.714  11.675  0.0490 -0.1525 -0.3897
30391W        W46652   4.893   5.843  13.279 -0.2973 -0.2095  0.2559
30392W        W46653  16.186   5.920  15.067 -0.2876 -0.1825 -0.2303
30393W        W46654   0.183  10.506   0.707  0.0370  0.1165  0.1586
30394W        W46655  18.346  15.683  11.538  0.1624 -0.0102  0.1260
30395W        W46656  16.107   2.631  15.443  0.0760 -0.0758  0.2142
30396W        W46657  17.513   8.763   2.694 -0.4023  0.0163  0.2826
30397W        W46658  14.074   7.347   1.932  0.1277  0.0128 -0.0864
30398W        W46659  18.734   0.925   5.655 -0.1034  0.1861 -0.1266
30399W        W46660   1.056  12.526   2.031  0.0370  0.3242 -0.0279
30400W        W46661   1.259   2.921   5.885  0.0214 -0.0068  0.1805
30401W        W46662  15.000  11.018   5.258  0.0845  0.1108  0.2203
30402W        W46663   4.717  11.995  13.984  0.0658  0.3506  0.0926
30403W        W46664  11.511  11.894   5.012 -0.1362  0.2804 -0.4085
30404W        W46665  17.703  11.597   2.561  0.0871 -0.0527  0.1975
30405W        W46666   1.192  18.009   5.223 -0.0649  0.0757  0.0888
30406W        W46667  10.477  12.739   3.719 -0.2757  0.2039  0.0951
30407W        W46668   5.176   1.542  12.701 -0.1480  0.2115  0.1701
30408W        W46669   1.971   5.461   1.914 -0.1079  0.0719  0.1655
30409W        W46670  17.416  14.894  12.828 -0.1691 -0.4420  0.3476
30410W        W46671   9.070  12.034  12.215  0.2243  0.0051 -0.1824
30411W        W46672  12.850   7.504  13.892  0.3073  0.1071  0.1407
30412W        W46673  12.435   1.748  14.618 -0.0280 -0.1180 -0.2821
30413W        W46674   0.110  18.490  10.302 -0.0439  0.1635 -0.0350
30414W        W46675  18.571   7.673   2.335  0.1840  0.1919  0.1408
30415W        W46676   7.344  14.699   3.772  0.0049  0.1822 -0.0274
30416W        W46677   5.579  16.636  14.847  0.0269  0.1947 -0.1316
30417W        W46678   9.940  13.166  14.315  0.1147 -0.2074 -0.1659
30418W        W46679   4.908   7.446   1.967 -0.0123 -0.5004  0.2262
30419W        W46680  12.530   7.570   1.290  0.1306 -0.1476 -0.0156
30420W        W46681  17.878  10.954   5.225  0.1040  0.1052  0.1139
30421W        W46682  13.063   8.276  13.207 -0.1634 -0.2155  0.3201
30422W        W46683   4.232  13.191  14.368  0.1729 -0.0488  0.1456
30423W        W46684   2.294   2.034   2.215  0.0476  0.1116  0.0367
30424W        W46685   2.611  16.331   5.092 -0.1086 -0.2522 -0.0292
30425W        W46686  17.080   3.270   4.642  0.0895  0.0805 -0.0295
30426W        W46687   9.420  13.419  14.290 -0.0504  0.1618 -0.0423
30427W        W46688  17.337   1.577   0.687 -0.0916 -0.1243 -0.1010
30428W        W46689  12.782   7.824  13.010 -0.1046  0.2873 -0.2175
30429W        W46690   1.720  17.633   3.875 -0.0337  0.1537  0.2027
30430W        W46691   5.799  16.848   4.894  0.0864  0.1356 -0.0403
30431W        W46692   2.508  13.905   4.697 -0.0220 -0.0484 -0.1920
30432W        W46693   1.739   3.024   3.961 -0.1063 -0.1065 -0.1304
30433W        W46694  12.467   8.320   2.481 -0.0397  0.0614  0.2264
30434W        W46695   1.866   7.360   4.629 -0.4370 -0.2399 -0.0705
30435W        W46696  15.638  15.678  13.569  0.2167  0.2556 -0.2180
30436W        W46697   4.321   7.209  15.115  0.1354 -0.1974 -0.1024
30437W        W46698  13.536   3.038   0.031 -0.1714 -0.0912 -0.0123
30438W        W46699   8.491  12.499  15.345  0.1637  0.0272 -0.3058
30439W        W46700   1.510   9.018   2.110  0.1834 -0.0159 -0.0661
30440W        W46701  16.448  14.215  10.365 -0.1060 -0.2026  0.1416
30441W        W46702   3.952   7.137   3.676 -0.1234 -0.1364 -0.1062
30442W        W46703  10.930   3.217  13.663 -0.1085  0.0141 -0.0681
30443W        W46704   0.560  17.520   1.259 -0.0658 -0.0609  0.0089
30444W        W46705   8.169   9.251  12.118  0.0194  0.2936 -0.1997
30445W        W46706  14.781  10.346  13.758  0.0929  0.3237 -0.0283
30446W        W46707  16.339  16.630   1.785 -0.2280  0.1111 -0.1027
30447W        W46708   0.535  10.755   5.251 -0.1878 -0.1876  0.2034
30448W        W46709  12.684  16.232  13.758  0.0167  0.2151 -0.0116
30449W        W46710  11.001  14.243  11.008  0.0339  0.2778 -0.1266
30450W        W46711  10.239   6.321  12.887 -0.2479  0.1061 -0.0618
30451W        W46712   7.138   5.616   0.980 -0.1648 -0.0956 -0.3028
30452W        W46713   2.689   2.423  11.360 -0.1356 -0.1249 -0.0636
30453W        W46714  11.308   6.167  10.808 -0.0641 -0.1443 -0.2494
30454W        W46715  12.830  17.137  10.855 -0.4186 -0.2543 -0.1474
30455W        W46716   7.099   9.671   0.833 -0.1404  0.1300 -0.1483
30456W        W46717   1.945   9.127   2.463 -0.1959 -0.0700 -0.2372
30457W        W46718  17.806   8.784  15.643  0.2053  0.2197 -0.0624
30458W        W46719   8.345  18.275  11.718  0.0716  0.0429 -0.2734
30459W        W46720   9.280  15.613  15.420  0.0990 -0.0825  0.3600
30460W        W46721   4.823   2.544  13.057 -0.1527 -0.1461 -0.1850
30461W        W46722  14.033  11.780  15.294  0.1953  0.2084 -0.1041
30462W        W46723  13.909  17.384  15.078 -0.0428  0.0680 -0.0722
30463W        W46724   8.504  14.636   3.597 -0.1981 -0.0718  0.1494
30464W        W46725  15.312   3.190   2.452  0.0278  0.0865 -0.0522
30465W        W46726   7.498   7.701   1.622  0.1176  0.1837 -0.1189
30466W        W46727  11.838  11.958  11.344 -0.1472 -0.0818  0.0544
30467W        W46728   9.348   2.719   6.132  0.2361 -0.1620 -0.0834
30468W        W46729  13.598  13.067  13.885 -0.0511  0.0766  0.1735
30469W        W46730   4.509  14.038  15.027 -0.3087  0.1936 -0.0301
30470W        W46731   9.738  16.995  11.265  0.0763 -0.0372  0.3214
30471W        W46732  13.560  15.454   1.432 -0.2000  0.1055 -0.2287
30472W        W46733   7.890  17.961  13.877 -0.0091 -0.0050 -0.3041
30473W        W46734  10.737   2.489   2.458  0.1278 -0.0394 -0.0382
30474W        W46735   0.791   5.986   1.170  0.0139  0.0313 -0.1036
30475W        W46736   1.936   5.101   4.378 -0.3541 -0.0298 -0.0168
30476W        W46737   1.477   2.251  14.387  0.0211 -0.2127 -0.2849
30477W        W46738  15.193  17.968  12.717  0.1153  0.0487  0.2500
30478W        W46739  18.694   7.287   0.262 -0.0065 -0.1864 -0.0092
30479W        W46740   4.128   9.961  12.854 -0.0300 -0.1293  0.2164
30480W        W46741  17.890   9.510   0.698 -0.1460 -0.1229 -0.0727
30481W        W46742  13.724  14.844  11.608 -0.2749 -0.0395 -0.0168
30482W        W46743  11.959   0.355  11.204  0.0548  0.0030  0.0176
30483W        W46744   2.406   6.932  13.004  0.1873  0.2502  0.2279
30484W        W46745  17.968   1.345   9.208  0.2521 -0.2291  0.2969
30485W        W46746   9.287   6.675   2.083  0.0632 -0.2168 -0.0190
30486W        W46747   3.371  17.817   1.154 -0.0014  0.0410  0.3532
30487W        W46748   4.328  10.928  14.332  0.0060 -0.1377  0.2835
30488W        W46749   3.340   9.898  15.603  0.1710  0.1038 -0.3367
30489W        W46750   9.970  14.498   0.896 -0.0085 -0.3053 -0.2005
30490W        W46751   7.137   0.091   0.751 -0.1921  0.1929  0.4221
30491W        W46752   3.883   0.108  10.763 -0.0457 -0.1089 -0.3385
30492W        W46753   3.467   2.960   4.987 -0.1214 -0.4283 -0.3141
30493W        W46754  17.170  17.024   1.633 -0.1481  0.0823  0.0265
30494W        W46755   9.756   3.414  12.720 -0.0726 -0.0259  0.1715
30495W        W46756  18.268  10.316  10.396 -0.1720  0.4047 -0.1298
30496W        W46757   3.423   6.347   0.096  0.4810  0.1720  0.3295
30497W        W46758  15.598  16.079   2.675  0.1898  0.3425  0.0086
30498W        W46759   0.147  10.050  13.550 -0.1034 -0.1388 -0.1462
30499W        W46760   9.983  12.135  10.861  0.1518  0.1543 -0.1541
30500W        W46761   8.246  11.899   0.295  0.0261  0.1721  0.1143
30501W        W46762  10.734   5.339   0.425 -0.2150  0.2140  0.0660
30502W        W46763   9.989  12.803  14.922 -0.1942  0.0485  0.1637
30503W        W46764  16.726   7.725  12.935  0.1406 -0.0859  0.1561
30504W        W46765  11.930   6.403   4.348 -0.1047  0.1010 -0.0848
30505W        W46766  15.035  17.335   4.664 -0.2215  0.2408  0.2023
30506W        W46767  15.048   4.455   5.141 -0.0964  0.3658 -0.0579
30507W        W46768  10.099   0.310  13.268  0.2680 -0.1193 -0.2855
30508W        W46769   7.839  15.692   2.228  0.2241 -0.0399 -0.1149
30509W        W46770   0.995  13.665   0.412 -0.3788 -0.0961  0.1688
30510W        W46771   6.267  14.483  12.810 -0.0148  0.1375  0.0169
30511W        W46772   0.802  17.106   3.730 -0.0517  0.1692  0.1338
30512W        W46773   2.134  13.661   2.211  0.0902  0.4725  0.1562
30513W        W46774   0.661  15.674  11.816 -0.1377  0.0461 -0.0400
30514W        W46775  13.551   4.863  14.277 -0.0878  0.1992 -0.0718
30515W        W46776   0.747   1.160   0.184 -0.1490  0.1631  0.0383
30516W        W46777   8.794   9.897   1.108 -0.1322  0.2330  0.1006
30517W        W46778  10.798   2.426   1.089 -0.3841  0.0431  0.1160
30518W        W46779   8.817  15.125  14.585 -0.1276  0.2331 -0.0296
30519W        W46780   6.717  18.664   3.010  0.2393  0.1015  0.0763
30520W        W46781   2.699   5.388  14.207 -0.0281  0.2789  0.3147
30521W        W46782  17.471   8.820   1.354  0.3375 -0.1529  0.3092
30522W        W46783  12.780  15.472  15.310  0.2064 -0.1072  0.0098
30523W        W46784   3.211  12.317   3.121  0.0502 -0.1915 -0.0336
30524W        W46785   5.962   5.902   1.788 -0.0060 -0.0395 -0.1678
30525W        W46786   1.731  15.814  11.430  0.0340 -0.0012 -0.1352
30526W        W46787   4.541   7.804  12.162  0.2968  0.4117  0.4965
30527W        W46788   9.710   0.068  10.772 -0.1026 -0.0373 -0.0656
30528W        W46789   1.289  18.267  12.297  0.2722  0.1411 -0.3146
30529W        W46790   6.482   1.899   4.517 -0.2067 -0.0637  0.1945
30530W        W46791   8.951   6.369   4.155 -0.0260 -0.0619  0.4033
30531W        W46792   7.191  16.831  14.975  0.1521 -0.6885  0.0998
30532W        W46793  12.744  11.661  12.289  0.0593 -0.0167  0.2515
30533W        W46794   4.397  16.927   1.439  0.1536 -0.0243  0.2177
30534W        W46795  13.344   6.107   1.250 -0.2545  0.1713  0.2397
30535W        W46796   9.654   4.548  11.590 -0.0411  0.1386 -0.2227
30536W        W46797  13.950  13.442   4.479  0.2039  0.2845  0.0324
30537W        W46798   0.653   1.246  14.786 -0.1643  0.0903 -0.2066
30538W        W46799  11.170  18.616  14.620  0.0984  0.0794  0.1722
30539W        W46800  11.735   3.962   4.770 -0.0946 -0.1818 -0.3131
30540W        W46801   7.013   9.784  11.326 -0.0311 -0.1014 -0.1127
30541W        W46802   4.174   7.066   0.467  0.0530 -0.4272 -0.3056
30542W        W46803  15.543  18.810   1.021  0.0184 -0.1343 -0.0563
30543W        W46804   8.976   1.624  14.642 -0.2382 -0.0754  0.1059
30544W        W46805   7.481  12.177   4.954  0.1628 -0.0042  0.0492
30545W        W46806  16.190  15.730  13.518 -0.3855  0.2070 -0.1960
30546W        W46807  11.423  12.127  11.627  0.2290  0.0127 -0.0390
30547W        W46808  14.656   7.586   9.655 -0.1820  0.1132  0.0115
30548W        W46809  11.654   7.538  12.217  0.1104 -0.1094 -0.2746
30549W        W46810  17.002  18.075   5.093  0.3711  0.0676 -0.0116
30550W        W46811   3.155   0.972  14.028  0.0457  0.3185 -0.0180
30551W        W46812   7.294   3.314   3.995  0.0637 -0.0514 -0.0215
30552W        W46813  16.817  13.727   4.582 -0.4494 -0.1097  0.3326
30553W        W46814   4.736   2.211   1.368  0.0238 -0.3928  0.4343
30554W        W46815  13.560  12.535   5.245  0.0295 -0.1727 -0.0810
30555W        W46816  16.496   8.619   3.620  0.0126 -0.0120  0.0105
30556W        W46817  18.776   3.144   5.468 -0.3235  0.3974  0.0825
30557W        W46818  12.167  10.526  14.560  0.0014  0.2192 -0.1901
30558W        W46819  17.894   6.363   0.789  0.1240  0.2022  0.1689
30559W        W46820  12.304  16.552  14.466 -0.1827 -0.2126 -0.1877
30560W        W46821  11.989  10.830   3.136 -0.0676  0.0793  0.1832
30561W        W46822   5.975  14.675  15.043 -0.2108 -0.1576  0.2427
30562W        W46823   1.403  18.267  11.398 -0.0001  0.0919  0.0279
30563W        W46824  10.308  17.393  12.904  0.3585  0.1494  0.0644
30564W        W46825  15.928  18.500  11.091 -0.0654  0.3104 -0.0926
30565W        W46826   2.813  18.208   2.920  0.2406 -0.2076 -0.1310
30566W        W46827  18.183   0.638   4.890  0.0385  0.1856 -0.1145
30567W        W46828  18.245  10.125  14.685 -0.0501  0.0439  0.1479
30568W        W46829  10.987   3.150  14.184 -0.0760 -0.1658  0.0624
30569W        W46830   2.397  15.106  12.681  0.0013  0.2168  0.1207
30570W        W46831   6.277   1.581  11.586  0.2398  0.0856 -0.1255
30571W        W46832  11.078   9.763   2.837  0.0625 -0.1838  0.3555
30572W        W46833   2.301  13.960   3.860  0.1008 -0.0954 -0.0205
30573W        W46834   1.385  15.820  11.075  0.0425 -0.3124  0.0268
30574W        W46835   2.695  10.804   2.055 -0.0889  0.1138 -0.0665
30575W        W46836  11.501   0.610  11.669  0.3798 -0.2393  0.0328
30576W        W46837   2.004   8.587  14.313  0.0192 -0.0801 -0.0305
30577W        W46838   2.566  15.526   4.091 -0.0910  0.3630 -0.0423
30578W        W46839   1.197  11.594   3.048 -0.0845 -0.2077 -0.0399
30579W        W46840  12.383   7.156  13.447 -0.0370  0.0048 -0.1266
30580W        W46841   8.277   0.562   3.317 -0.0173 -0.1105 -0.1269
30581W        W46842   2.211  16.701   3.529 -0.1367 -0.1618 -0.1164
30582W        W46843  11.148   0.372   0.920 -0.0045  0.0687 -0.0438
30583W        W46844   0.633  12.805   1.537  0.2479  0.1687 -0.2543
30584W        W46845  11.641  14.311   5.505 -0.1906  0.0225  0.3136
30585W        W46846  13.519  11.221  13.740 -0.1698 -0.1043  0.2507
30586W        W46847   0.238  16.366  14.895  0.1511 -0.2219  0.1339
30587W        W46848  16.290   5.705  12.608 -0.2917 -0.0642  0.1425
30588W        W46849   9.793  10.561   3.801  0.2085  0.3446  0.3707
30589W        W46850  15.948  15.284  13.736  0.1441  0.3471 -0.3055
30590W        W46851  17.852   0.175   5.774 -0.1738 -0.4411  0.1087
30591W        W46852  10.946   5.822  12.755  0.0688 -0.2511 -0.2759
30592W        W46853   9.464   9.392  11.677 -0.0214  0.3068  0.0696
30593W        W46854   3.825   4.320   5.013  0.1106  0.0909  0.2086
30594W        W46855   8.015   2.832   1.298 -0.0982  0.0805  0.3361
30595W        W46856   0.343  12.338  13.389  0.0172 -0.4039 -0.0549
30596W        W46857  11.485   7.062   2.204 -0.1645  0.2138 -0.0700
30597W        W46858   9.368   3.841  14.651 -0.0718  0.0075 -0.1237
30598W        W46859  10.512   8.326  14.336 -0.0624  0.1173 -0.0021
30599W        W46860  12.698   8.474   0.295  0.0200 -0.0396 -0.0136
30600W        W46861  10.586   1.038   4.591  0.2825  0.4208  0.3530
30601W        W46862   9.300  18.382   0.368  0.2672 -0.1240 -0.0692
30602W        W46863   4.213   8.805   3.359 -0.0309  0.1132 -0.3219
30603W        W46864  14.166   9.147  12.751 -0.1200  0.3373 -0.2059
30604W        W46865  16.667  10.275   4.941 -0.0541 -0.2669 -0.1661
30605W        W46866  18.323   4.170   1.861  0.0461  0.0830 -0.1231
30606W        W46867  13.339   8.964   4.593 -0.0045 -0.4367  0.0658
30607W        W46868   3.701   7.926  13.447 -0.3206  0.1282 -0.1934
30608W        W46869   8.189   7.803  12.935 -0.0990 -0.3131  0.2697
30609W        W46870  17.693  14.033  15.298  0.1714 -0.0278  0.1317
30610W        W46871   0.296  15.625  10.180 -0.2785  0.1188 -0.1319
30611W        W46872  18.187   4.692  13.190 -0.1651 -0.0183  0.1833
30612W        W46873   0.852   9.470  11.519  0.1308 -0.0856  0.0298
30613W        W46874  13.464  18.593   0.728 -0.1525  0.0345  0.3698
30614W        W46875  18.185  16.514   4.169 -0.3048 -0.2163 -0.0556
30615W        W46876   2.490   7.605  15.606  0.1226  0.2031 -0.0698
30616W        W46877   5.521  15.337  12.698 -0.0371 -0.1011 -0.1782
30617W        W46878   6.063  17.974   1.045 -0.2669  0.2096 -0.2266
30618W        W46879   8.768  18.284  13.158 -0.1251  0.2007  0.0449
30619W        W46880  15.256  13.987  15.126 -0.0615 -0.3032 -0.0235
30620W        W46881  17.305   5.215   2.012  0.0991 -0.0583 -0.1488
30621W        W46882   7.068   3.137  14.803  0.0806  0.1659 -0.2947
30622W        W46883  11.359  10.727  14.107  0.1749  0.0009  0.0779
30623W        W46884   5.560   5.338   0.367  0.1035  0.1386 -0.1039
30624W        W46885   8.671   2.865   4.951  0.1356  0.0541  0.2225
30625W        W46886  16.695   2.478   1.523 -0.1600 -0.2090 -0.2999
30626W        W46887   8.612   6.260   2.092 -0.0974 -0.2103  0.1040
30627W        W46888  11.009  16.229   2.440  0.0814 -0.3172  0.1422
30628W        W46889   3.471  11.521   4.005  0.2356  0.1769 -0.0316
30629W        W46890  11.800   3.782   1.195 -0.0791  0.0837 -0.1241
30630W        W46891  11.341  10.951   3.463 -0.0031  0.0848  0.3044
30631W        W46892   0.704  10.704  12.596  0.0486 -0.0067 -0.1055
30632W        W46893   6.457   8.335   6.132 -0.4159 -0.1759 -0.0664
30633W        W46894  18.440   9.870   1.488 -0.0308 -0.1019 -0.1660
30634W        W46895   4.253   3.330  11.691 -0.6007 -0.1843 -0.0528
30635W        W46896   0.101  13.234  15.523  0.1331 -0.3027  0.0766
30636W        W46897  17.020   1.070  11.313 -0.3164  0.0776  0.2444
30637W        W46898   5.264   2.545   2.600 -0.0388 -0.0912 -0.0523
30638W        W46899  18.158  16.648   2.224 -0.2643  0.2364 -0.0943
30639W        W46900  10.436   6.402  15.026 -0.1191  0.2494 -0.2518
30640W        W46901  12.343  13.521   3.497 -0.1760 -0.1206 -0.0010
30641W        W46902  16.506   3.319   4.433 -0.0393  0.0631  0.0219
30642W        W46903   7.131  10.600  10.100  0.0700 -0.0439  0.0226
30643W        W46904   7.439   3.798  13.504 -0.0735  0.3254 -0.1421
30644W        W46905   7.514  13.224   3.600  0.2617 -0.1221  0.1187
30645W        W46906   8.799  10.503   1.807 -0.1551 -0.4609 -0.2888
30646W        W46907   8.260  12.422  12.298 -0.1602  0.1276  0.0459
30647W        W46908   3.750  16.380   1.778 -0.1723 -0.1487  0.0141
30648W        W46909   4.079  10.030  14.328 -0.0685  0.2948 -0.2607
30649W        W46910  10.104  14.410   5.577  0.1122  0.0309 -0.2885
30650W        W46911   0.515  17.925   2.498 -0.0158  0.3591 -0.0329
30651W        W46912   9.501   4.177   3.988 -0.0038  0.3476  0.1398
30652W        W46913  18.707   8.687  13.420 -0.0746  0.0032 -0.0906
30653W        W46914  13.792  10.055  10.751  0.1101 -0.0978 -0.1388
30654W        W46915   1.821   4.657   4.030  0.2753  0.0236 -0.1421
30655W        W46916   6.697   5.471  15.531 -0.2343  0.3828 -0.2416
30656W        W46917   7.328   3.571  13.968 -0.1580  0.2283  0.3359
30657W        W46918   6.709   6.113   5.090 -0.2924 -0.0452  0.0704
30658W        W46919  18.075   3.590   3.424 -0.0532  0.1618  0.0899
30659W        W46920  18.018  13.769   5.009  0.2083  0.3307 -0.1430
30660W        W46921   6.927  12.744   3.795 -0.1261 -0.0293  0.0794
30661W        W46922  17.610   2.685   5.005 -0.2152  0.2042 -0.4184
30662W        W46923   1.281  11.552  15.088 -0.0174 -0.0039 -0.0937
30663W        W46924   6.421   0.510   2.224 -0.0129 -0.0230 -0.3165
30664W        W46925   8.392   2.388   0.061  0.4815 -0.0501  0.0709
30665W        W46926  10.301  18.154  15.102 -0.0605 -0.0140 -0.0480
30666W        W46927   4.816  14.281  11.749  0.2832 -0.2678 -0.1628
30667W        W46928  14.643  15.537  13.958 -0.0847  0.0322 -0.4322
30668W        W46929  18.327   2.508   3.754  0.1276 -0.0376 -0.2718
30669W        W46930   1.798   0.187   4.017  0.2023  0.1917  0.2966
30670W        W46931   8.270  16.066  14.555 -0.1595  0.0642 -0.0684
30671W        W46932  12.393   8.896   2.386  0.0970  0.0209 -0.0701
30672W        W46933   0.891  11.904  14.619  0.2245  0.0628  0.0869
30673W        W46934   4.944  10.524   4.770  0.1609  0.0908  0.3723
30674W        W46935  12.683  11.945  11.844  0.0998  0.1876 -0.2074
30675W        W46936  14.453  10.800   3.889  0.1890 -0.0059 -0.0326
30676W        W46937   4.584   8.861   0.852  0.3796  0.3478 -0.3037
30677W        W46938  14.404   3.731  10.579  0.4744  0.1709 -0.1716
30678W        W46939  13.183  12.133  12.856 -0.1400 -0.2339  0.0452
30679W        W46940   8.050   1.319  12.354  0.0826 -0.0436  0.3201
30680W        W46941  17.545   2.442   1.169 -0.0361  0.0848  0.0464
30681W        W46942  13.862  10.909  10.926  0.2490 -0.0048 -0.1032
30682W        W46943  10.869  18.767   3.293 -0.0043  0.1228 -0.0538
30683W        W46944  15.168  12.085  12.212  0.1026 -0.2703  0.0425
30684W        W46945   5.109   4.446  13.332 -0.3578 -0.2486 -0.3232
30685W        W46946  16.787  13.015   0.372 -0.2218  0.0782 -0.0061
30686W        W46947   5.771   6.058  13.753  0.1238  0.0283  0.2442
30687W        W46948   4.355   9.626   2.926  0.0538  0.2652 -0.1059
30688W        W46949   6.940  13.263   2.129  0.5901  0.0819  0.1866
30689W        W46950   1.721   0.160  14.181  0.1638  0.3481  0.0077
30690W        W46951   6.605   1.555  10.357  0.2087  0.1123 -0.1144
30691W        W46952  18.279  17.065  14.822 -0.0749  0.2992  0.3051
30692W        W46953   2.342   8.781  11.019  0.0118 -0.1401 -0.1295
30693W        W46954  17.700  14.344  11.385  0.0252 -0.0398 -0.0095
30694W        W46955  11.770  12.713   4.855 -0.0311  0.0725  0.2878
30695W        W46956  14.982  13.066  13.630  0.0431  0.2507  0.1178
30696W        W46957   3.844   7.485   3.355 -0.0407 -0.0297  0.0107
30697W        W46958   5.787  10.825   1.948 -0.0101  0.2213  0.0583
30698W        W46959  15.779   6.242  14.196 -0.0614  0.0134 -0.0100
30699W        W46960   5.045   9.178   0.822  0.1667 -0.0517 -0.0093
30700W        W46961  18.152   0.269  11.338  0.1605  0.2139  0.1185
30701W        W46962   3.819  17.248   3.516 -0.1272 -0.1973  0.3384
30702W        W46963   1.539   7.582  12.120  0.1269 -0.1014 -0.0663
30703W        W46964   8.332   5.357  13.969 -0.1935  0.2916 -0.1576
30704W        W46965   2.756   7.261   3.276  0.1934 -0.4356 -0.0878
30705W        W46966  17.337   6.344   2.650  0.0356 -0.0108 -0.1928
30706W        W46967   2.238   0.357  10.728  0.0469  0.3635  0.2181
30707W        W46968  10.341   3.710   5.632  0.1419 -0.1364 -0.2634
30708W        W46969   9.726   2.066   4.526  0.0518 -0.0649 -0.3678
30709W        W46970  15.385   1.559   4.632  0.2226  0.0799  0.2525
30710W        W46971   3.704   9.514  13.060 -0.0893 -0.3032 -0.3284
30711W        W46972   1.911  16.053   4.281 -0.2206  0.1291 -0.3277
30712W        W46973   4.714   5.402  13.388  0.1750  0.1482 -0.0750
30713W        W46974   1.006   5.716   4.909 -0.1749 -0.2398 -0.0094
30714W        W46975  10.438   6.857  12.234  0.0055  0.0458 -0.1983
30715W        W46976  17.999  17.938  15.263 -0.3598  0.3171 -0.1513
30716W        W46977   0.736   7.363   0.512  0.1409 -0.0834  0.0175
30717W        W46978  18.746   7.768  15.382  0.1042 -0.0943 -0.0144
30718W        W46979  13.081   5.030  14.393 -0.2808 -0.1132 -0.1788
30719W        W46980  15.245   0.013   0.199 -0.0811  0.0109 -0.0629
30720W        W46981  18.054   2.060   4.283  0.1134  0.0072  0.0623
30721W        W46982   0.295  16.527   2.599  0.3636 -0.0402  0.0015
30722W        W46983   3.889   9.620   4.727 -0.2467  0.1396 -0.3474
30723W        W46984   9.608  18.040  13.048 -0.0015 -0.1996 -0.3337
30724W        W46985   2.983   0.655  11.287 -0.1600  0.1715 -0.0369
30725W        W46986  10.496   0.513  14.870  0.1054 -0.0932  0.0987
30726W        W46987  17.526  14.973  15.027  0.2389  0.0127 -0.1663
30727W        W46988   7.304   5.952  12.780  0.3237  0.0630 -0.1573
30728W        W46989   9.775   0.728  12.109 -0.0386 -0.2259  0.2102
30729W        W46990   8.518   3.918   2.080 -0.3687 -0.3158  0.1021
30730W        W46991   9.989   5.796   3.638  0.0530 -0.2057 -0.0895
30731W        W46992  16.161  15.124  14.702  0.0990 -0.1176  0.0956
30732W        W46993   5.086   7.571   0.446  0.0553  0.1524 -0.1223
30733W        W46994   5.461   8.088   2.537  0.0778  0.0630 -0.0264
30734W        W46995  16.427  12.989  15.472 -0.1780 -0.1641  0.0490
30735W        W46996   3.856  18.627   0.909  0.0906 -0.0671  0.0700
30736W        W46997  14.030  16.992  15.424 -0.1069  0.0549  0.0324
30737W        W46998   2.955   6.723   1.302 -0.4171 -0.0069 -0.0897
30738W        W46999   0.966  16.331   3.515  0.2064  0.1133 -0.0649
30739W        W47000   5.839   4.699   4.417  0.1462 -0.0241 -0.0061
30740W        W47001  16.063   4.924   2.888  0.3612  0.0856 -0.0324
30741W        W47002  11.894  11.609   1.430  0.4387  0.4453 -0.0404
30742W        W47003  13.086   0.860  13.052 -0.1912 -0.1335  0.1433
30743W        W47004   8.460   9.675   5.087  0.0192 -0.2832 -0.1483
30744W        W47005  18.824   2.390  11.349 -0.2510  0.0864 -0.1808
30745W        W47006  16.794  16.496  15.092  0.1058  0.0287 -0.1070
30746W        W47007   4.854   7.495   2.969  0.0534 -0.0642 -0.0870
30747W        W47008  12.705   7.705   2.097  0.0066 -0.2912  0.1378
30748W        W47009  18.221   3.660   1.471  0.0334 -0.1381  0.3306
30749W        W47010   2.190   6.680   0.957  0.1265 -0.3314 -0.3204
30750W        W47011   6.349  18.489  11.932  0.0537 -0.1159  0.0179
30751W        W47012  13.730  11.404   0.067  0.2104  0.3296 -0.3013
30752W        W47013   0.097  15.290  14.295  0.1956  0.0322 -0.1064
30753W        W47014   6.295  18.271  14.831 -0.2688 -0.0514 -0.1344
30754W        W47015  12.980   9.603   0.927  0.1330 -0.2241  0.3575
30755W        W47016   7.696  11.788   2.924 -0.0097 -0.1086  0.0973
30756W        W47017  14.935  10.798   1.305  0.0442 -0.0829  0.1119
30757W        W47018   3.243  18.542   3.096 -0.3942  0.0082  0.0118
30758W        W47019  10.138   8.859   1.981  0.1795  0.0891 -0.3329
30759W        W47020   2.241   4.405  13.373 -0.2502 -0.2262  0.2584
30760W        W47021  10.716   6.823  15.094  0.0214  0.0938 -0.4044
30761W        W47022   1.417   4.720   3.075 -0.1052 -0.1509  0.0159
30762W        W47023  16.915   5.733  14.352  0.3593  0.2115  0.0935
30763W        W47024  13.961  14.353   0.666  0.1333  0.2015  0.0528
30764W        W47025   7.601  10.564   9.742 -0.1203  0.0773 -0.1586
30765W        W47026  12.625  14.543   0.098 -0.0609  0.2389 -0.1884
30766W        W47027   1.859  17.202   1.096  0.0074 -0.2038 -0.1398
30767W        W47028   7.109  16.449   1.469 -0.0482  0.1970 -0.0021
30768W        W47029  10.101   1.189   1.398 -0.2251 -0.2138 -0.1012
30769W        W47030  18.815  18.483  12.492 -0.0794 -0.0560 -0.1092
30770W        W47031  13.459  11.621  14.188 -0.0223  0.1568 -0.1084
30771W        W47032  10.026   9.373  14.011  0.0904  0.1878 -0.0800
30772W        W47033   5.506  17.424   4.043  0.2762  0.4372  0.0553
30773W        W47034  15.780   9.688   1.437 -0.0299  0.0852  0.1634
30774W        W47035  10.770   3.340   0.547 -0.2072 -0.1022 -0.0064
30775W        W47036   0.452   2.899   1.250  0.3225  0.1029  0.0628
30776W        W47037  16.106  15.883   4.538  0.0203  0.0056 -0.0486
30777W        W47038   6.941  10.185  15.155  0.0504  0.0799 -0.1509
30778W        W47039  17.402  15.773  15.373  0.1458 -0.1380  0.0607
30779W        W47040  12.014   5.533   2.704 -0.0993  0.2540  0.0794
30780W        W47041   8.419  10.836   1.340 -0.0217  0.1150 -0.0388
30781W        W47042   2.192  18.492  15.465 -0.2464 -0.1361  0.1239
30782W        W47043  17.769   0.576  11.202  0.2537 -0.3683 -0.4068
30783W        W47044  11.528  14.645   4.027 -0.1643 -0.0352  0.1734
30784W        W47045   6.659   8.439   0.228  0.0136  0.3084  0.2910
30785W        W47046  14.706  12.453  14.335 -0.0951 -0.1689  0.1393
30786W        W47047   9.693   1.548   3.722  0.3651  0.1527  0.0301
30787W        W47048  16.043   2.234   3.819 -0.2847  0.0057  0.4520
30788W        W47049   5.324  12.210   1.195 -0.2233  0.0112  0.0778
30789W        W47050   1.985   5.591   2.664  0.2782  0.2103  0.3206
30790W        W47051  13.646   0.331  12.741  0.0342 -0.2101  0.1188
30791W        W47052  10.292  12.534  12.491 -0.1005 -0.2170  0.1665
30792W        W47053   3.058  11.726  15.523  0.0535 -0.0048  0.0628
30793W        W47054  17.811  12.973   2.875  0.1104 -0.1179 -0.0157
30794W        W47055  12.453  15.557   0.075  0.4535  0.2685 -0.1176
30795W        W47056  17.705   8.940   2.187  0.0098 -0.1036 -0.0957
30796W        W47057  12.945   0.625   4.853 -0.0073  0.1339  0.0313
30797W        W47058   3.371  12.208  11.952 -0.0282  0.4478  0.3557
30798W        W47059  15.592  18.411  12.831 -0.2452  0.0481  0.2018
30799W        W47060   5.987  15.712   5.678 -0.1095  0.1797 -0.0857
30800W        W47061   6.872  12.666   1.448  0.2274 -0.0340 -0.1817
30801W        W47062   9.410  12.971   3.082  0.0032 -0.1117 -0.2978
30802W        W47063  18.286   4.308   1.322  0.0170 -0.3587 -0.1376
30803W        W47064  11.770   9.879   0.197 -0.2139 -0.1396  0.0932
30804W        W47065   2.531  14.869  13.124 -0.3168  0.2160 -0.4388
30805W        W47066  11.813  11.514  14.970 -0.2532 -0.0231 -0.0159
30806W        W47067  11.619  16.235  14.048 -0.1742  0.0233 -0.2386
30807W        W47068   8.027   8.862   6.206  0.0853 -0.0078  0.2707
30808W        W47069   5.350  16.011  14.577 -0.1336  0.0446  0.0708
30809W        W47070  14.117   9.899   5.303 -0.1011  0.2087 -0.2037
30810W        W47071   7.170  12.932  12.047  0.2747  0.2875  0.2884
30811W        W47072  18.505   2.500   1.032 -0.0877  0.0644 -0.3515
30812W        W47073  12.993   1.700  15.523 -0.1607  0.2815 -0.1364
30813W        W47074  13.495  10.539   4.798  0.1478  0.0985  0.1022
30814W        W47075  14.082  16.542  14.176  0.0579  0.3113  0.0617
30815W        W47076   2.104   0.149  15.427 -0.1532 -0.0892  0.0437
30816W        W47077  13.367  14.100   4.813  0.1252 -0.4949  0.0492
30817W        W47078   6.026   2.240  15.284  0.2773  0.1055 -0.0185
30818W        W47079   7.597  10.254   4.048 -0.1438  0.0023  0.1849
30819W        W47080   0.465   0.528   9.400  0.1183 -0.1414 -0.0437
30820W        W47081  13.692   7.582  11.757  0.0179 -0.1399  0.3462
30821W        W47082   0.080  18.105  13.249 -0.0335  0.4701 -0.2517
30822W        W47083   0.286  15.982  11.442  0.0148  0.3794  0.0282
30823W        W47084  18.460   6.839   4.658  0.1567 -0.3139 -0.2166
30824W        W47085  12.319  13.024  14.822  0.2716 -0.0525 -0.0107
30825W        W47086   9.271  15.794  12.844  0.0753  0.0356 -0.2145
30826W        W47087  14.086   0.638   1.329  0.1525  0.0324  0.1798
30827W        W47088  15.067   1.402  11.328 -0.2438 -0.0922 -0.2787
30828W        W47089  17.125   4.710   4.252  0.3198  0.1945 -0.0658
30829W        W47090   4.313   8.476   0.487  0.1437 -0.0046 -0.0912
30830W        W47091   3.332   7.255  12.784 -0.0012  0.1144  0.2767
30831W        W47092  17.645   2.664  13.677  0.3746  0.0602  0.4487
30832W        W47093   5.518  15.269  14.824 -0.1064  0.2142 -0.3185
30833W        W47094   9.266  15.628   0.310 -0.0435  0.0104 -0.1561
30834W        W47095   0.242   0.046   2.863 -0.1056  0.3516 -0.0223
30835W        W47096   3.735  15.918   0.345  0.2153 -0.2799  0.0693
30836W        W47097   7.878  16.180  15.316 -0.1066 -0.0624 -0.2422
30837W        W47098   0.375   2.671  13.783 -0.2812  0.3501 -0.1282
30838W        W47099   1.088  16.155  14.651  0.0820 -0.0680 -0.0205
30839W        W47100  18.206   9.542  12.550  0.1758  0.0712  0.3619
30840W        W47101  13.686  16.750   3.845  0.3222 -0.1837 -0.0278
30841W        W47102   1.132  16.813  14.806  0.1525  0.0556  0.0904
30842W        W47103   5.783   3.094  15.628 -0.1895  0.1750  0.2590
30843W        W47104   5.863  12.064  14.616 -0.1267 -0.1842  0.1815
30844W        W47105   0.772  14.547   0.031  0.0755 -0.4759 -0.0830
30845W        W47106  18.416   9.329   2.700  0.1422 -0.0644 -0.0772
30846W        W47107   3.775  12.522  11.974  0.1555  0.2485  0.2553
30847W        W47108  10.389   0.414  12.809  0.1723  0.3159  0.3137
30848W        W47109  18.829   5.643   1.661  0.0388  0.2076 -0.1764
30849W        W47110   3.960  11.088   2.807  0.5032  0.0131  0.0811
30850W        W47111  16.313   9.873   4.929 -0.2077  0.2171  0.3181
30851W        W47112   3.547   4.553  13.274  0.1481 -0.2124 -0.1383
30852W        W47113  10.229  16.514  13.560  0.2993 -0.3378 -0.0177
30853W        W47114  14.235   8.433   4.333  0.2257  0.0535 -0.0628
30854W        W47115   2.327  17.478   4.616 -0.0857 -0.0741 -0.0025
30855W        W47116  12.719  10.261   2.462 -0.1367  0.1268 -0.1517
30856W        W47117   0.071   6.227  14.959 -0.1830 -0.1920 -0.0931
30857W        W47118   3.024   3.311  14.233  0.3192 -0.3091  0.0255
30858W        W47119  12.645   5.228   1.965  0.1489  0.1237 -0.0504
30859W        W47120   2.057  16.243  14.711  0.0566 -0.3313  0.2439
30860W        W47121  13.317  15.816   3.798 -0.0866 -0.2689  0.1107
30861W        W47122  17.513   9.462   3.804 -0.3010  0.4039 -0.1871
30862W        W47123  17.538  14.471   4.193  0.0094  0.2038 -0.0416
30863W        W47124   8.743   2.807   0.302 -0.3166  0.1937 -0.1715
30864W        W47125   8.825  12.345   4.467 -0.3813 -0.1575  0.3146
30865W        W47126   6.716   3.337  13.113  0.0745  0.0056 -0.1300
30866W        W47127   8.798  18.627   5.380  0.2517  0.0451  0.1557
30867W        W47128   6.531  13.366   3.724  0.2316  0.1403 -0.1988
30868W        W47129   5.080   4.304   2.193 -0.3494  0.1357 -0.2838
30869W        W47130   4.383  15.413   1.738 -0.0555 -0.1698  0.1780
30870W        W47131   4.235   5.396   1.581  0.2773 -0.0288 -0.0050
30871W        W47132   0.463   0.268   2.045  0.0981  0.2701  0.2120
30872W        W47133  10.204   3.176   2.105  0.4026 -0.1150  0.0427
30873W        W47134  11.620   3.953   1.705  0.1175  0.1859 -0.0725
30874W        W47135  18.516   3.738  13.239 -0.1723  0.1466 -0.0360
30875W        W47136  11.769   2.299   1.773  0.0347 -0.1895  0.1641
30876W        W47137   3.583  18.468   3.491 -0.0653 -0.0412  0.0280
30877W        W47138  10.160   1.408  13.289 -0.0468 -0.1923  0.2474
30878W        W47139   2.910   4.380  15.567  0.5149 -0.0351  0.0788
30879W        W47140   2.913  17.476   4.503  0.0214  0.1137 -0.1685
30880W        W47141  13.759   0.126  15.501 -0.2883  0.1721 -0.0603
30881W        W47142  14.630   3.805  14.122  0.0995  0.2539 -0.1132
30882W        W47143  15.210   1.819  11.194 -0.1570 -0.3779 -0.3548
30883W        W47144   9.768   9.894   3.397  0.2534 -0.0599  0.1764
30884W        W47145  16.626   7.140  12.130  0.2152 -0.1618  0.0754
30885W        W47146   7.790   3.751   1.056  0.1480  0.1200 -0.1182
30886W        W47147   1.680  15.159   1.151  0.1704 -0.1155 -0.1683
30887W        W47148  17.879   3.450   1.793  0.2160  0.1140 -0.0781
30888W        W47149   3.232   4.517  14.825  0.0070  0.0679  0.0629
30889W        W47150  15.683  17.800  13.306  0.0881 -0.1471 -0.0400
30890W        W47151   8.960   5.443   2.426 -0.1541 -0.1910 -0.0688
30891W        W47152   7.800   9.479   4.349 -0.1588 -0.0040 -0.1067
30892W        W47153   1.209  13.641   2.319  0.1252 -0.0087 -0.0757
30893W        W47154  15.628   1.961  14.961  0.1398 -0.2271 -0.0185
30894W        W47155   6.835   2.251  13.809  0.1230  0.0066 -0.1301
30895W        W47156   2.741  18.689  11.907  0.1604 -0.1131  0.4442
30896W        W47157  16.173   7.155  14.865  0.1444  0.0402  0.0521
30897W        W47158   0.842  11.800   0.362  0.1264  0.2191 -0.1857
30898W        W47159   2.752   6.070   5.201 -0.1097  0.0257 -0.1353
30899W        W47160  16.891   3.055   1.485 -0.1909 -0.0717 -0.1426
30900W        W47161   1.227   9.624  14.195  0.0706  0.3766 -0.0203
30901W        W47162   4.364  14.514  11.000  0.1409  0.3435 -0.1040
30902W        W47163   6.501  17.349  12.038 -0.2486  0.0235 -0.3997
30903W        W47164   4.762   9.354   2.131  0.1225  0.0268 -0.3413
30904W        W47165  14.185  11.635  10.857 -0.0045  0.1200 -0.0188
30905W        W47166  14.136   9.122   1.763 -0.0728 -0.0001  0.4061
30906W        W47167   0.985  15.266  15.199 -0.0506 -0.3226 -0.1925
30907W        W47168   8.324   1.690  12.590 -0.1482 -0.1416 -0.4990
30908W        W47169  17.208  11.966   0.669 -0.0997 -0.3623 -0.0678
30909W        W47170  15.848  16.649  14.428 -0.1343  0.2120 -0.3091
30910W        W47171  12.554   7.616  14.297  0.0413 -0.3166 -0.4148
30911W        W47172  11.766   6.458  12.450  0.2323 -0.0627  0.3348
30912W        W47173   3.097  18.003   5.256  0.0298  0.2018 -0.0303
30913W        W47174   3.897  16.093   0.823 -0.4178 -0.2071 -0.1581
30914W        W47175  11.944  12.540  12.429  0.0523 -0.0642  0.2835
30915W        W47176  15.274   8.789  14.879 -0.2451 -0.1909  0.4813
30916W        W47177  16.893   9.678  11.525 -0.0020  0.0458 -0.0293
30917W        W47178   3.959  16.547  14.049  0.1197  0.1821  0.1451
30918W        W47179   7.121   9.321  11.379  0.3889 -0.0674  0.3748
30919W        W47180  11.820  17.019  12.569 -0.0104 -0.0038  0.0107
30920W        W47181   1.680  15.209  14.130  0.0435 -0.0338 -0.0692
30921W        W47182   5.130  17.262  13.345  0.0784 -0.2359 -0.2328
30922W        W47183  17.069  15.617   3.063  0.2031  0.1408  0.0732
30923W        W47184   8.730  11.683  12.163 -0.0853 -0.0545  0.1916
30924W        W47185   3.893  17.231   4.855  0.1400 -0.2669 -0.2186
30925W        W47186   8.201   2.616  11.489  0.0831 -0.0304  0.1727
30926W        W47187   2.273  11.872  13.656  0.2638 -0.3123 -0.3610
30927W        W47188   7.027   0.571   0.653 -0.0500  0.1773  0.0805
30928W        W47189   6.837  15.004  11.127  0.1970  0.1081 -0.1233
30929W        W47190  10.494   5.612   3.640 -0.1946 -0.0958  0.0729
30930W        W47191  12.216  18.729  14.325  0.1008  0.2099 -0.2846
30931W        W47192  13.590   1.564   1.225  0.0129 -0.0212  0.0453
30932W        W47193  16.750   6.374  14.416  0.0300  0.3929  0.1638
30933W        W47194  14.054  14.206   2.163 -0.0834  0.2845  0.3659
30934W        W47195   8.481   7.815  11.962 -0.1085  0.0286  0.0819
30935W        W47196   0.496  13.668  14.339 -0.1511 -0.1568  0.1146
30936W        W47197  18.806  10.924  13.537  0.2047  0.1946  0.1171
30937W        W47198  17.892   7.279   1.031  0.2273 -0.0070 -0.0223
30938W        W47199  14.783   1.133  10.589  0.0930 -0.0120  0.2306
30939W        W47200  14.733  16.029  14.077  0.2144 -0.3479  0.0244
30940W        W47201   8.191   4.909   3.999 -0.2260  0.1972  0.0191
30941W        W47202   8.961   1.514   4.508  0.0604  0.0691 -0.2662
30942W        W47203  17.512  16.750  13.827  0.3139 -0.0825 -0.0505
30943W        W47204   5.826  15.397   3.174 -0.0789  0.2232 -0.0705
30944W        W47205  12.863  18.796  12.763  0.0776  0.1696  0.0983
30945W        W47206   2.670  10.333   9.868  0.4551 -0.0713 -0.0489
30946W        W47207   3.411   1.969   4.683 -0.1998 -0.0541 -0.3154
30947W        W47208   8.380   9.606   1.210  0.1360  0.2171  0.2245
30948W        W47209   0.123   8.469  11.704 -0.0537 -0.2127  0.1844
30949W        W47210   6.101  12.921  11.680  0.1912  0.3608 -0.1516
30950W        W47211  15.805  11.189   4.495  0.1044 -0.1362 -0.1426
30951W        W47212  16.447  12.951  12.823 -0.4491 -0.1939  0.1141
30952W        W47213  18.229  17.548   3.951  0.0919 -0.3135 -0.1149
30953W        W47214  12.777  16.925  15.328 -0.3516  0.1897 -0.3385
30954W        W47215   3.293   2.888   0.282 -0.0312 -0.0282 -0.2132
30955W        W47216  18.569  17.339   1.285 -0.0509 -0.0579  0.1996
30956W        W47217  14.313  18.335   1.523 -0.1122  0.0249 -0.1374
30957W        W47218  11.432  16.964  13.699 -0.0435  0.0108 -0.2891
30958W        W47219   9.053  11.463   2.681 -0.0674  0.3063  0.1368
30959W        W47220  17.406  12.550   4.646  0.0958  0.0607 -0.0875
30960W        W47221  15.000   0.772  15.128  0.0652 -0.2441  0.0471
30961W        W47222  15.952   1.142   2.986 -0.2056 -0.1053  0.0887
30962W        W47223  12.239   7.278   0.387 -0.1422 -0.2428 -0.3280
30963W        W47224   9.162  16.759  10.244  0.1780  0.2042 -0.1334
30964W        W47225  14.855   3.811  14.834 -0.1869  0.0888  0.0238
30965W        W47226   7.859  18.587   1.689  0.3416 -0.3492 -0.0643
30966W        W47227   3.626  16.285  12.304 -0.1800  0.0317 -0.0405
30967W        W47228   2.018  14.853   4.043  0.0955 -0.5044  0.1276
30968W        W47229  17.014  17.126  14.713  0.1130 -0.0177 -0.0284
30969W        W47230  16.278   6.910   1.864  0.0360  0.2329  0.1360
30970W        W47231   9.535   0.467   5.848 -0.1462  0.1413 -0.0720
30971W        W47232  15.077  17.220  12.870 -0.3069  0.1039  0.0776
30972W        W47233  10.904  18.247  10.637 -0.1831 -0.3270 -0.0472
30973W        W47234  10.137   1.106  15.501  0.1806  0.3386  0.2713
30974W        W47235  17.099  12.372   1.500 -0.2921 -0.1293  0.0952
30975W        W47236   9.214  10.089  13.542  0.1895 -0.0684  0.0121
30976W        W47237   3.956   6.543   3.717 -0.2931  0.0631 -0.0596
30977W        W47238  15.426   1.878   2.363 -0.0797  0.4013  0.2620
30978W        W47239  10.421   4.753  13.730  0.1208 -0.2084  0.0116
30979W        W47240   1.672   3.258   5.002  0.0576  0.2418 -0.0892
30980W        W47241   0.574   6.854  12.329  0.2127  0.0990 -0.0938
30981W        W47242  12.215   2.019   2.092  0.3434 -0.2038  0.0522
30982W        W47243  10.978   6.668  14.178 -0.0206  0.0784  0.0365
30983W        W47244   5.582  12.946  15.083 -0.2139 -0.0462 -0.1396
30984W        W47245   2.090  12.277   3.128 -0.2477  0.0802  0.0906
30985W        W47246   2.522   8.458   2.766 -0.0425  0.4396  0.0969
30986W        W47247  12.080  10.233   4.447 -0.0069 -0.1136 -0.2108
30987W        W47248  13.717   9.245   4.515 -0.2113 -0.1106  0.5501
30988W        W47249   4.968   8.040  11.341 -0.0207  0.2970 -0.1555
30989W        W47250  14.110  18.689   4.233 -0.0820  0.1716 -0.2236
30990W        W47251  15.226  18.260  13.274  0.0707  0.1402 -0.0586
30991W        W47252   1.456   2.957   4.629 -0.1314 -0.0446  0.2290
30992W        W47253   7.694   4.696  14.576  0.1322  0.0847  0.1980
30993W        W47254   0.958  11.804   2.610  0.1682 -0.1079 -0.3384
30994W        W47255   8.016   4.932   4.580 -0.2297  0.2790  0.0694
30995W        W47256  15.935  12.839  12.605  0.2521  0.0604  0.1016
30996W        W47257  15.169   7.951  13.037 -0.3050  0.0403 -0.2251
30997W        W47258  17.733   0.541   1.159  0.2881  0.1950 -0.1770
30998W        W47259   4.906  15.727  15.196  0.0917 -0.1067 -0.1618
30999W        W47260  13.869  14.000  11.443  0.0827  0.0482 -0.3026
31000W        W47261  18.298   7.359   3.333 -0.0652 -0.0517 -0.1497
31001W        W47262   7.801   3.782   1.654 -0.1299  0.0310  0.1314
31002W        W47263   7.417   9.484   5.413  0.1039  0.0476  0.0743
31003W        W47264  16.509   8.160  11.705  0.3533  0.0022  0.2567
31004W        W47265   3.763   0.138  14.321 -0.3258  0.1575 -0.1912
31005W        W47266   7.665  10.296   0.950  0.1644 -0.4546  0.2892
31006W        W47267   6.272  16.781  13.749 -0.2051  0.0113  0.2890
31007W        W47268   5.471  17.070  12.217  0.3266 -0.1773 -0.2105
31008W        W47269  12.749  13.351  12.742 -0.1238  0.1531  0.0198
31009W        W47270   1.006  16.344  15.066 -0.1081  0.2342  0.2231
31010W        W47271   1.796   1.986  14.064  0.1624  0.4206 -0.1160
31011W        W47272  11.480   8.281  10.090  0.1535 -0.3032  0.2712
31012W        W47273   9.329   2.690   0.913 -0.2410  0.1790  0.1882
31013W        W47274   5.298   1.591   4.919  0.0805  0.0896  0.0972
31014W        W47275   0.251   4.282  11.661 -0.0600 -0.2431 -0.2047
31015W        W47276  10.003  14.008   0.752 -0.0780  0.1909 -0.1409
31016W        W47277  12.380  10.369  12.326  0.0104  0.3028 -0.1178
31017W        W47278   8.071  11.669  15.002 -0.0157 -0.1076 -0.0869
31018W        W47279  14.567   8.880  15.390  0.1430  0.0560 -0.3358
31019W        W47280  12.766   4.884   0.907 -0.0791  0.2477 -0.0017
31020W        W47281   7.866   1.285  14.198  0.0873  0.0297 -0.2212
31021W        W47282   6.100  12.729  13.198 -0.0334  0.2273  0.2083
31022W        W47283   3.243   2.565  14.541  0.0140  0.2223  0.1255
31023W        W47284  11.874   7.996  12.691  0.0641  0.1770 -0.0443
31024W        W47285   9.855  10.078  10.805  0.0769  0.1648  0.0659
31025W        W47286  12.149  12.416  13.311  0.2790  0.5658  0.4379
31026W        W47287  16.519  12.886   3.647 -0.0635  0.0277  0.0674
31027W        W47288  17.578   6.919  15.494 -0.2954 -0.1356  0.1795
31028W        W47289   9.393   9.626   3.054 -0.4730  0.4793 -0.1423
31029W        W47290  17.962   4.610  11.557  0.0365  0.0858  0.0043
31030W        W47291   4.474   5.697   5.730 -0.0066  0.1731  0.1618
31031W        W47292   8.365   9.193   4.938 -0.3776  0.1925 -0.0710
31032W        W47293   9.458   6.862  13.249 -0.0273  0.0530  0.0705
31033W        W47294   4.387   4.695   0.208 -0.2528 -0.1233  0.0087
31034W        W47295   0.605   5.235   0.427 -0.0600  0.3479 -0.3004
31035W        W47296   3.678   1.893   1.799 -0.1137 -0.0971 -0.0292
31036W        W47297   6.526  18.403   0.413 -0.2982 -0.1720 -0.1637
31037W        W47298  17.290  10.344  12.114  0.0079 -0.1472 -0.3860
31038W        W47299  18.480   1.415   9.260 -0.1606  0.3623  0.0327
31039W        W47300   7.286  13.802  14.893 -0.0354  0.0374  0.0437
31040W        W47301  15.788  14.434  14.135  0.2620 -0.2599  0.2341
31041W        W47302   5.499   4.558  11.336 -0.1439 -0.2825  0.0047
31042W        W47303  14.094   3.283   1.556 -0.2992  0.2325  0.1343
31043W        W47304   3.372   5.668  12.597  0.2169  0.1508 -0.0388
31044W        W47305  12.854   6.425  12.406  0.0895  0.1684  0.0298
31045W        W47306   1.667   1.982  15.331 -0.0850 -0.0898 -0.1891
31046W        W47307  12.650   2.856   4.720  0.0293  0.0553 -0.0957
31047W        W47308   8.406   0.477  12.069  0.2164 -0.1914  0.0165
31048W        W47309   8.372   7.158   1.118  0.0200 -0.0383 -0.0947
31049W        W47310  11.753   3.473   4.910 -0.1802 -0.0091 -0.0818
31050W        W47311  16.182  18.565   3.353 -0.0754 -0.3323 -0.0106
31051W        W47312   9.724  11.775  11.108 -0.3513  0.1525 -0.1697
31052W        W47313   0.541  13.618   0.076 -0.2461 -0.1501 -0.2816
31053W        W47314  14.522   4.469  12.211 -0.0400 -0.0971  0.3399
31054W        W47315  15.163  15.858   3.970 -0.0027  0.0613  0.3204
31055W        W47316   2.460  15.221   1.779 -0.0376  0.3549 -0.1362
31056W        W47317  12.497  11.780   2.183  0.0916 -0.3289  0.2880
31057W        W47318  14.110   7.746   5.558 -0.2233  0.0444 -0.0284
31058W        W47319  13.292   2.950  12.911 -0.0026 -0.2346  0.0036
31059W        W47320   0.892   4.030   4.425 -0.0392 -0.1319 -0.1969
31060W        W47321   9.685   3.004   3.742 -0.0896  0.1611  0.0801
31061W        W47322   0.799   5.034  13.194  0.0318 -0.0078  0.2014
31062W        W47323   5.162  16.404   1.331  0.1600  0.4427 -0.1911
31063W        W47324   1.267   6.628  13.917  0.1267 -0.3053  0.2478
31064W        W47325  15.417  17.400   0.680 -0.1527  0.1769 -0.2412
31065W        W47326  17.679   3.498  12.287  0.2422  0.1233 -0.2818
31066W        W47327   2.763  14.349   4.647 -0.0726 -0.0656  0.0012
31067W        W47328   6.984   3.439  12.206 -0.4540 -0.2397  0.0930
31068W        W47329   3.852   1.863   3.139  0.2011 -0.1041  0.0893
31069W        W47330   9.866   5.052  15.404  0.0075  0.2265 -0.0274
31070W        W47331   9.635   9.974   1.799  0.0792 -0.1268 -0.0863
31071W        W47332  14.912   9.205  12.525  0.2497 -0.0705  0.0487
31072W        W47333   9.801   0.639   2.205  0.4438  0.1301  0.2943
31073W        W47334   9.526  13.686  13.800 -0.0909 -0.1668 -0.2548
31074W        W47335   0.896   9.311   1.664  0.1664 -0.1680  0.1503
31075W        W47336   5.826   4.846  11.587 -0.1503 -0.4851  0.0312
31076W        W47337  11.684   5.674   0.356  0.1524  0.1658  0.0036
31077W        W47338  13.472   6.631   4.583 -0.1739 -0.3193  0.0482
31078W        W47339  11.067   8.573  12.781 -0.0629  0.2050 -0.0217
31079W        W47340  16.890  10.338  13.066 -0.3877  0.0954  0.0496
31080W        W47341  10.907   6.296  15.156  0.0451 -0.1961  0.2253
31081W        W47342  12.900  14.396  14.114 -0.0082  0.0702  0.0701
31082W        W47343  17.545  12.548  11.791 -0.1395  0.0078 -0.3392
31083W        W47344   5.498   9.741  12.120  0.0821 -0.3279 -0.0839
31084W        W47345   9.424  18.772  12.574  0.4918  0.0008  0.1346
31085W        W47346  10.571   1.281   0.689  0.1844 -0.0061 -0.0145
31086W        W47347   2.365   8.766   2.305  0.0211  0.2706 -0.2084
31087W        W47348   8.763   6.235  12.718  0.1960  0.1438 -0.1952
31088W        W47349  12.762   2.058  14.861 -0.2014  0.0975  0.1593
31089W        W47350   6.663   5.056   2.612  0.4372  0.0379  0.3952
31090W        W47351   4.911  11.013   1.769 -0.1379 -0.0031 -0.0378
31091W        W47352  15.106   8.095   3.727 -0.0643 -0.1884  0.1380
31092W        W47353   9.827  17.366  14.053  0.1807  0.0552  0.2771
31093W        W47354   0.433  17.525  13.950  0.1849 -0.2685  0.1825
31094W        W47355  13.899   5.701   4.511  0.0830 -0.3589  0.3059
31095W        W47356   7.884   8.459   3.271 -0.0330  0.0224  0.0770
31096W        W47357   3.673   4.002   3.457 -0.2204  0.0090 -0.1729
31097W        W47358   9.501  13.417   4.239  0.3715 -0.0156 -0.0549
31098W        W47359  14.673   1.500   3.933  0.2931  0.2458 -0.0194
31099W        W47360  16.686   3.082  12.394  0.3977  0.0032 -0.1212
31100W        W47361   4.251   0.287   1.807 -0.2834  0.1343 -0.2491
31101W        W47362   1.269  14.031  11.112 -0.3805  0.0278  0.3737
31102W        W47363  13.160   5.771   3.993 -0.3760 -0.0457 -0.0880
31103W        W47364  16.322  18.310  14.826 -0.2426  0.3422 -0.0336
31104W        W47365  12.848   6.856   4.213 -0.1246 -0.2602  0.0391
31105W        W47366  11.736   0.027   1.593 -0.0178  0.0143 -0.2842
31106W        W47367  13.318   6.221   4.807  0.1467 -0.1487  0.1240
31107W        W47368   4.507   2.675  13.982  0.0411 -0.2666 -0.1322
31108W        W47369  11.762   4.759  13.964  0.3107  0.2566 -0.1851
31109W        W47370   5.601  10.590   3.868 -0.1841  0.1792 -0.1546
31110W        W47371   1.927  15.522   3.392 -0.0079  0.0337  0.3659
31111W        W47372  16.552   8.690  14.311  0.1782 -0.0475 -0.1960
31112W        W47373   3.872   2.461   2.944  0.0181  0.1377  0.2829
31113W        W47374  18.822  17.378   0.292 -0.0394 -0.2692  0.0403
31114W        W47375  15.802   0.646  11.686 -0.1505 -0.0968 -0.1416
31115W        W47376   2.411  12.219  11.520 -0.1467  0.1284 -0.0516
31116W        W47377   1.438   7.189   4.238  0.0554 -0.0380  0.1044
31117W        W47378  18.112  14.207  12.681 -0.2335 -0.1561 -0.1804
31118W        W47379  12.354   8.842   5.282  0.2257 -0.0712 -0.1774
31119W        W47380  12.829  13.384   3.461 -0.2259 -0.2075 -0.0380
31120W        W47381  11.952  13.509  12.475  0.0175 -0.3541 -0.0698
31121W        W47382  12.156   3.504   2.919  0.0105  0.1507  0.0829
31122W        W47383  13.832  17.383   4.577  0.0160 -0.0458 -0.1085
31123W        W47384   1.018  17.730  15.607 -0.0401  0.2903  0.0945
31124W        W47385  18.613  10.605   0.417  0.0689 -0.2177  0.0437
31125W        W47386   3.426  12.764   2.997  0.0094 -0.1106  0.0389
31126W        W47387   0.934   2.198  12.341  0.0955 -0.0056 -0.1992
31127W        W47388  16.699  15.136   0.577  0.2410  0.0773  0.0527
31128W        W47389   2.281   1.581   4.917  0.1734  0.0060 -0.0312
31129W        W47390  17.053  10.414  13.521 -0.1705  0.4169  0.1702
31130W        W47391  17.424  13.745  13.612  0.1009 -0.3165  0.2981
31131W        W47392   0.299   1.941   0.373  0.0308 -0.1497 -0.3223
31132W        W47393  10.897   4.256  12.767  0.0032  0.2448 -0.1804
31133W        W47394   9.902  16.681   5.239 -0.4327  0.1926  0.4127
31134W        W47395  12.830   8.704  12.418 -0.0143  0.3778 -0.1116
31135W        W47396   6.797   4.771   5.023 -0.2495 -0.1504  0.0308
31136W        W47397  11.540   8.366   4.257 -0.1502 -0.3661 -0.0488
31137W        W47398  12.588  16.509  11.440  0.2137  0.1675 -0.1268
31138W        W47399   9.882   1.215  12.831 -0.2534  0.0839 -0.2618
31139W        W47400  15.001  13.128   2.879  0.0088  0.2519 -0.1999
31140W        W47401   2.763  18.132   4.487 -0.0070 -0.2830 -0.0693
31141W        W47402  16.009  12.608   0.644 -0.1231  0.3226  0.1291
31142W        W47403   6.518   7.939  15.552  0.2617  0.0452  0.1168
31143W        W47404   7.616  10.280   4.635  0.2765  0.0883  0.1310
31144W        W47405  17.804  13.467  13.249 -0.0484  0.0067 -0.0740
31145W        W47406  15.555   7.952  12.271 -0.0151 -0.2549 -0.1915
31146W        W47407  14.548  11.442   2.036  0.1048  0.1501  0.0751
31147W        W47408   7.244  16.568  11.201 -0.2484 -0.0274 -0.1681
31148W        W47409   5.017  17.931   0.561 -0.0748 -0.1189 -0.1504
31149W        W47410   1.951   5.231   4.907 -0.2697 -0.3171 -0.0619
31150W        W47411  15.564   2.535   4.349  0.4269  0.2941 -0.0634
31151W        W47412   8.438   2.997   0.644  0.0938  0.0378 -0.0039
31152W        W47413  15.083  12.161  11.018 -0.1215  0.0197 -0.0350
31153W        W47414   1.244  18.193   3.707  0.1117 -0.1509 -0.2737
31154W        W47415  14.451   7.686  10.552 -0.1915  0.1480 -0.1122
31155W        W47416  14.746  11.902   3.206  0.0616  0.0463 -0.0710
31156W        W47417  15.052  10.212   4.412 -0.3665 -0.0475 -0.1671
31157W        W47418   1.437   8.728  14.113  0.2222  0.0161  0.4484
31158W        W47419  12.561  15.731   5.101 -0.2157  0.0436 -0.0496
31159W        W47420  15.135  12.037  12.818  0.3998 -0.1501 -0.1287
31160W        W47421   2.783  14.032   0.058 -0.2475 -0.2447 -0.1130
31161W        W47422   2.333   7.645  13.093 -0.1803  0.0999 -0.0501
31162W        W47423   2.305   8.077  12.163 -0.0023 -0.0976  0.0332
31163W        W47424  13.481  17.530   5.048  0.1427  0.0305 -0.0823
31164W        W47425   7.714  14.487  11.685 -0.0928 -0.1799 -0.0261
31165W        W47426  17.684  17.016   0.491  0.0752  0.2240 -0.2988
31166W        W47427  12.503  11.866   0.343  0.0380  0.3925 -0.0163
31167W        W47428   9.840   5.032   0.763 -0.0482 -0.1607 -0.0087
31168W        W47429  13.168  17.460   3.206 -0.5537  0.1515  0.0445
31169W        W47430   9.362  18.337  13.913 -0.1152  0.4238 -0.0093
31170W        W47431   2.404   6.589  11.756 -0.1511  0.0357  0.1082
31171W        W47432   8.483  13.944  11.978 -0.2448 -0.2573  0.2826
31172W        W47433   6.112   4.087  14.429 -0.3640 -0.0857 -0.1329
31173W        W47434  12.632  14.120  11.634  0.2106 -0.0590 -0.2168
31174W        W47435  10.895  15.846  13.737 -0.2074  0.1400  0.0385
31175W        W47436   8.634  15.676  13.879  0.1307 -0.0060  0.0812
31176W        W47437   8.424   3.200  15.330  0.1386  0.0889  0.4441
31177W        W47438   4.960   8.773   2.292 -0.1110 -0.1368 -0.0580
31178W        W47439   3.066   8.740   4.030 -0.2242  0.0007  0.1800
31179W        W47440   3.205  16.637  10.914 -0.1156 -0.2418 -0.0180
31180W        W47441  15.631  18.492  13.399  0.0915  0.0473 -0.3410
31181W        W47442  11.044  15.259  11.340  0.0381 -0.2840  0.0328
31182W        W47443  15.072  13.594   3.788 -0.0930  0.2342  0.1959
31183W        W47444  18.542  18.265  11.786 -0.2142 -0.1246 -0.2304
31184W        W47445  10.204   5.014   2.146 -0.0767  0.0944 -0.1817
31185W        W47446  12.148  18.182  11.930  0.1565  0.2751 -0.1836
31186W        W47447   9.027   3.468   5.701 -0.1559  0.3562 -0.1341
31187W        W47448  11.542  16.626   3.167  0.1335 -0.1155  0.1793
31188W        W47449  10.301   0.093  14.621 -0.1405  0.0116  0.2166
31189W        W47450   6.680  12.003   4.132  0.1273 -0.2884 -0.1625
31190W        W47451  17.461  11.109   4.069 -0.0328 -0.2743  0.0522
31191W        W47452  15.947  16.190   3.046 -0.1556 -0.0828 -0.3451
31192W        W47453  17.031   3.641   2.902 -0.3360  0.0466  0.0216
31193W        W47454   6.470   5.495   1.920  0.2336  0.1197  0.0950
31194W        W47455  17.926  17.461   0.635 -0.1120  0.2291  0.0358
31195W        W47456   7.372  16.058   1.729 -0.0609  0.0245 -0.1629
31196W        W47457   8.288  11.974   2.825  0.4304  0.0359  0.3061
31197W        W47458  16.153  11.935  11.915 -0.0619  0.0657  0.3908
31198W        W47459   2.257  18.215   1.699  0.2782 -0.1937 -0.2444
31199W        W47460   0.267   5.802   0.959 -0.3206 -0.1005  0.3135
31200W        W47461  14.105   7.705   2.812  0.3940  0.1849  0.3951
31201W        W47462   2.464  11.303   5.356  0.0360 -0.3037 -0.0159
31202W        W47463  12.340   3.876  12.732 -0.3733 -0.0870 -0.3655
31203W        W47464  13.300  17.683   4.044  0.2316 -0.2447 -0.4395
31204W        W47465  13.236   1.578   3.633 -0.0259  0.0792  0.1045
31205W        W47466  16.113   4.109   4.725 -0.0776  0.3017 -0.0871
31206W        W47467  15.479  16.243   3.689  0.1300 -0.3345  0.0975
31207W        W47468   4.749   8.758   6.234 -0.1081 -0.0058  0.2570
31208W        W47469  17.296   2.878   4.227  0.0424 -0.1051 -0.6568
31209W        W47470   6.702   4.060   5.485  0.0719 -0.1659 -0.0443
31210W        W47471   6.733   8.880   5.351 -0.0628 -0.1943  0.1135
31211W        W47472   4.402   6.637   3.019  0.1188 -0.2421  0.1342
31212W        W47473  17.067  15.143  11.155 -0.0162  0.1961 -0.1339
31213W        W47474   3.226   1.572   0.936 -0.0252 -0.4152 -0.0357
31214W        W47475   2.105   5.993  12.835 -0.1335 -0.0258 -0.0380
31215W        W47476  10.481   1.000  15.158 -0.2223  0.2894  0.3473
31216W        W47477   6.021  14.472   0.335  0.2562  0.0956 -0.2612
31217W        W47478   0.105   8.088  13.660  0.0260  0.3175 -0.1268
31218W        W47479   8.345  10.782   3.275 -0.0642  0.1144 -0.0318
31219W        W47480  15.985  10.228  11.779  0.4068  0.2282 -0.4154
31220W        W47481  17.258  12.161   0.211  0.0792  0.0602  0.1273
31221W        W47482  16.629  10.940   4.218  0.0060  0.2493  0.0275
31222W        W47483  15.835  16.666  10.660  0.3182 -0.0785  0.1289
31223W        W47484   4.360   8.338  11.837 -0.0433  0.0241 -0.0463
31224W        W47485   1.992  10.656  10.692 -0.2116  0.1766  0.0823
31225W        W47486   9.393  12.034  11.700  0.0922 -0.0133  0.1574
31226W        W47487  16.166   8.514   1.001  0.1432  0.0095 -0.0629
31227W        W47488  10.959   6.307  11.137  0.2903  0.1527  0.1020
31228W        W47489   1.397  11.373  11.077  0.0997 -0.0567  0.0289
31229W        W47490   3.149   0.340   4.630 -0.2241  0.1462  0.1509
31230W        W47491  18.069  14.571   3.371  0.1009 -0.1210  0.5215
31231W        W47492  11.346  15.663   1.645  0.1237  0.0887  0.2389
31232W        W47493  13.854   7.997   3.178  0.2015 -0.0805  0.0432
31233W        W47494   2.801  12.971   0.663 -0.1542  0.0354 -0.2362
31234W        W47495   7.809   0.860  13.993  0.1016 -0.0152 -0.1296
31235W        W47496  13.511   5.775  11.996  0.0145  0.0431 -0.1026
31236W        W47497  11.785  14.246   0.472 -0.3494 -0.0492  0.0936
31237W        W47498   5.364   8.472   3.701  0.2943 -0.1530  0.1683
31238W        W47499  15.518  10.437  11.871 -0.0968  0.0893  0.2035
31239W        W47500  12.598   8.894  14.053  0.0749 -0.2528  0.0913
31240W        W47501   7.408   3.276   2.428 -0.0120  0.0166 -0.2977
31241W        W47502   5.275   9.914  15.388  0.2175 -0.1761  0.1349
31242W        W47503   5.392  18.745  12.023 -0.1475  0.1837 -0.2436
31243W        W47504  17.118   3.995  12.026 -0.0847 -0.0861 -0.1331
31244W        W47505   5.559   1.743  12.419 -0.3534  0.3809 -0.3669
31245W        W47506   8.515  11.513   2.336  0.0338 -0.0025 -0.2761
31246W        W47507   4.968  10.602  15.191 -0.3398  0.1765 -0.0637
31247W        W47508  12.715  11.061  14.251  0.0767  0.0525 -0.1779
31248W        W47509   8.246   4.060   1.638 -0.0932  0.2623 -0.2024
31249W        W47510   7.981   0.787   3.924 -0.2492 -0.3827  0.2261
31250W        W47511  10.830  12.528  15.100 -0.2874 -0.0977 -0.0780
31251W        W47512   1.850   4.400   2.838  0.0002  0.0252 -0.0629
31252W        W47513  13.239  13.456   2.107  0.3107  0.0024 -0.1113
31253W        W47514  11.603   4.922  11.130 -0.1272 -0.3974 -0.0208
31254W        W47515   9.662   3.254  14.918 -0.0414 -0.1405 -0.0384
31255W        W47516  16.886  12.561   5.629 -0.1442 -0.1042  0.1173
31256W        W47517   8.232  16.542  12.447  0.3580  0.3576  0.0896
31257W        W47518   2.030   6.753  11.356 -0.1504 -0.0760  0.1108
31258W        W47519   3.526  14.369  11.526  0.2527 -0.1263  0.0023
31259W        W47520   4.506  16.590  13.115 -0.1065  0.0024  0.2324
31260W        W47521   5.127   4.431   5.570  0.0004 -0.2567  0.0359
31261W        W47522  17.614   6.838  11.977  0.0659  0.1166  0.3602
31262W        W47523  17.991  17.697   3.221 -0.0107 -0.1355 -0.0877
31263W        W47524   4.279  15.307  13.233  0.0163  0.1357  0.0718
31264W        W47525   8.772   7.477   4.010 -0.4844 -0.1835  0.1331
31265W        W47526  12.041   1.615  12.592 -0.1450  0.1062 -0.1293
31266W        W47527  11.440   2.831  14.313  0.2549 -0.1159 -0.2696
31267W        W47528  16.748  16.078  13.951 -0.1018 -0.1497 -0.0605
31268W        W47529  12.429   6.981   3.595  0.6120 -0.1817 -0.0113
31269W        W47530   1.313   2.435   1.239 -0.0633  0.2640 -0.1004
31270W        W47531   9.165  13.512  12.660  0.3847  0.2404  0.1205
31271W        W47532   3.393   8.252   4.545  0.1838  0.0140 -0.1966
31272W        W47533  12.557  16.444   2.514 -0.0414  0.2380  0.1497
31273W        W47534   7.595   1.152   0.012  0.0909  0.1494  0.2009
31274W        W47535   5.095  12.402   2.452 -0.1628  0.0856  0.0669
31275W        W47536   1.291   4.250   4.710 -0.2182  0.3387 -0.2131
31276W        W47537   5.369   1.351   2.962  0.1919  0.2694 -0.0123
31277W        W47538   4.076   8.148  15.207  0.0199  0.1430 -0.1546
31278W        W47539  16.960   2.918  10.961  0.0137  0.5069 -0.0497
31279W        W47540  10.145  12.775   1.393  0.5233  0.0068  0.0433
31280W        W47541   0.065  11.706   1.531  0.4867 -0.3620 -0.2068
31281W        W47542   7.120  18.216  14.394 -0.2855 -0.2186 -0.2873
31282W        W47543   1.431   6.353  14.419  0.1698  0.2221  0.1388
31283W        W47544  11.108   7.807  14.351 -0.2584 -0.0628 -0.0890
31284W        W47545   6.041   2.249   4.241 -0.1577  0.2030  0.1828
31285W        W47546   0.668  14.156  12.023  0.2789 -0.0075 -0.0580
31286W        W47547  12.331  17.484   3.032  0.1533 -0.1649  0.0958
31287W        W47548   4.480   0.294  14.161  0.0174  0.1532 -0.3308
31288W        W47549  17.987   8.693   5.296  0.4592 -0.0737  0.3476
31289W        W47550  16.482  15.568  13.982  0.1074  0.0732 -0.0454
31290W        W47551   7.493   1.704   0.394  0.0784 -0.2276  0.2089
31291W        W47552  18.364  18.699  12.371  0.1695  0.1196  0.1502
31292W        W47553   0.095   4.558  11.080 -0.0890  0.1615  0.1909
31293W        W47554  17.928   3.418  12.706 -0.1260  0.0803 -0.5139
31294W        W47555  17.754  10.585  13.618 -0.0781 -0.2463  0.1893
31295W        W47556  11.052  13.916   3.342  0.2148 -0.3086 -0.0219
31296W        W47557  18.387   4.850   0.132  0.0944  0.0794 -0.1939
31297W        W47558   2.540  13.125  11.520 -0.0405 -0.2368  0.2627
31298W        W47559  13.763  15.110  13.020 -0.3753 -0.0358 -0.2977
31299W        W47560   6.131   0.203   1.901  0.0033  0.1891  0.3181
31300W        W47561   2.659   1.466  11.317 -0.1948  0.5862 -0.0190
31301W        W47562  13.864   6.603   3.455  0.0861  0.0413  0.1438
31302W        W47563  13.413   7.891   5.040  0.0793 -0.1098 -0.0019
31303W        W47564   4.249   0.155  12.466 -0.0898 -0.0318 -0.0038
31304W        W47565   2.791   9.753   1.258  0.0169  0.0082  0.4212
31305W        W47566   3.548  15.218  14.664  0.2246 -0.1120 -0.0488
31306W        W47567   7.268   4.616  14.850 -0.0169  0.1250 -0.0901
31307W        W47568  18.577   2.515   2.410  0.0381  0.0779 -0.3388
31308W        W47569   7.695  11.476   1.090 -0.4359 -0.0551 -0.0156
31309W        W47570  18.527  17.711   3.105  0.0236  0.1039 -0.2772
31310W        W47571  15.420  11.711  14.642 -0.1687 -0.2030  0.3752
31311W        W47572   3.923  11.945  13.038 -0.0882  0.0766  0.1448
31312W        W47573   7.481  10.112  15.138  0.1326  0.0137  0.2765
31313W        W47574  13.902  11.588  12.217  0.0564 -0.1070  0.0946
31314W        W47575  17.015  12.575   0.405  0.3704  0.1152 -0.0555
31315W        W47576   5.813   9.349  14.041 -0.0482  0.0026 -0.1408
31316W        W47577  14.963   9.820   4.717 -0.0485 -0.0667  0.0264
31317W        W47578   9.796  11.010   4.223 -0.5473 -0.1031  0.3466
31318W        W47579   6.713   4.213  15.479  0.1697  0.0500  0.3796
31319W        W47580  11.814   0.195   2.943  0.0406  0.3075 -0.1324
31320W        W47581   3.371  11.084  13.371 -0.4421 -0.1200  0.0598
31321W        W47582   9.291  14.514  11.461  0.1949 -0.0278 -0.2518
31322W        W47583   8.869   4.862   3.440  0.1678  0.0139 -0.2141
31323W        W47584   4.655   3.707   3.565 -0.0124  0.2693  0.0142
31324W        W47585   4.724  18.297   2.396  0.1697  0.0953  0.1455
31325W        W47586   2.438  11.465  11.047  0.1385  0.0084  0.3076
31326W        W47587  16.645   8.581  15.243 -0.1549  0.2784  0.0356
31327W        W47588   2.203   6.191   3.048  0.1571 -0.2631 -0.1734
31328W        W47589  13.865  13.695   0.897 -0.1897  0.1396  0.1315
31329W        W47590  11.145   3.629   4.481 -0.0561 -0.0574 -0.1971
31330W        W47591  10.368   5.994   4.493  0.2657  0.0079  0.4299
31331W        W47592   4.922   2.140  15.088  0.0673 -0.1272  0.3883
31332W        W47593  14.900  11.178  12.337  0.2031 -0.3561 -0.0512
31333W        W47594  15.772  14.036  15.312 -0.2363 -0.1159  0.0074
31334W        W47595   1.548   0.009  10.330  0.0116  0.2661 -0.1075
31335W        W47596  14.353  17.628  11.819 -0.2152  0.1524 -0.2449
31336W        W47597  13.215   8.087   4.488 -0.0171 -0.2646 -0.0189
31337W        W47598  13.957   4.410  10.926 -0.2452 -0.2254 -0.2243
31338W        W47599   3.232   7.123  11.855 -0.2550 -0.0783  0.3597
31339W        W47600   6.551  11.658   3.021  0.0253 -0.0296 -0.0640
31340W        W47601   7.837  18.689   6.572 -0.3259  0.2386 -0.0207
31341W        W47602   8.887  14.102  10.330 -0.1026  0.2953 -0.0635
31342W        W47603  11.359  11.447  14.647  0.1429 -0.2072  0.3538
31343W        W47604   4.588  13.951  10.946  0.2874  0.1544  0.0668
31344W        W47605  15.204   1.846  13.107 -0.2798  0.1995  0.0390
31345W        W47606  16.054   6.613  10.684 -0.1601  0.1450 -0.4749
31346W        W47607   1.150  15.348   2.978 -0.1477 -0.2591  0.1412
31347W        W47608   3.170  17.561  12.746  0.2562 -0.1471  0.0261
31348W        W47609   7.161  15.670   0.647 -0.0517  0.0525 -0.1288
31349W        W47610   0.492  11.056  15.585 -0.1027 -0.0560 -0.2742
31350W        W47611   5.652  16.932   1.795 -0.1015 -0.0150 -0.0952
31351W        W47612   0.843   3.165   1.441 -0.0038 -0.0417 -0.1993
31352W        W47613  16.247   4.095  11.598 -0.1900 -0.3956  0.2266
31353W        W47614   6.695   6.677   1.561  0.0547  0.0385  0.3081
31354W        W47615   1.718   0.737  11.589 -0.0574 -0.2552  0.1742
31355W        W47616   3.269  17.054  14.980  0.2276  0.1694  0.2603
31356W        W47617  16.701  14.989  11.484  0.0755  0.1034  0.3587
31357W        W47618  15.615   4.096   1.904  0.0416 -0.0372  0.3835
31358W        W47619   7.549  13.995   5.009 -0.0974  0.1079 -0.3414
31359W        W47620  17.174   8.359   5.178  0.3888  0.0804  0.1537
31360W        W47621  12.326   8.504   4.796 -0.0892 -0.0114 -0.0250
31361W        W47622  18.275   2.883   3.214 -0.2534 -0.0478  0.2003
31362W        W47623   7.409  14.734   2.834  0.1727  0.0411 -0.0826
31363W        W47624  17.673   5.975  14.246  0.2675  0.1875  0.1975
31364W        W47625   3.242  12.420   1.249 -0.1731  0.2027  0.2412
31365W        W47626   4.970   4.959  14.126 -0.0233 -0.1652  0.2986
31366W        W47627  11.782  10.762  12.902  0.0197  0.1551 -0.2798
31367W        W47628   5.144   5.127   0.699  0.1800  0.2105  0.2813
31368W        W47629  14.812  11.294  10.894 -0.0479  0.1080  0.1524
31369W        W47630  14.113  14.988  12.214 -0.2780  0.0508 -0.1517
31370W        W47631   2.334   3.047   4.302  0.0244 -0.2078 -0.0110
31371W        W47632   4.045   6.903   3.277 -0.0410 -0.2022 -0.0501
31372W        W47633   2.624   5.972  12.954 -0.0009 -0.0207 -0.2203
31373W        W47634  17.725   1.647  14.631  0.0960  0.0135 -0.1603
31374W        W47635  11.200  17.040   1.807 -0.1590  0.0488 -0.0727
31375W        W47636   0.801   8.084   3.497 -0.1123 -0.0604 -0.2087
31376W        W47637   6.081  12.073  15.512  0.2962 -0.3181  0.1604
31377W        W47638  16.800   4.500  10.483  0.0770  0.2230 -0.0457
31378W        W47639  10.931   9.420   5.531  0.2565 -0.1229 -0.1178
31379W        W47640  17.286   2.464  11.750  0.3819 -0.0325  0.1341
31380W        W47641   2.614   8.338   5.377 -0.0760  0.1947  0.3779
31381W        W47642   7.043  16.025   1.024  0.1875  0.2630  0.2137
31382W        W47643   3.272  14.488  11.947 -0.3936  0.0741  0.0717
31383W        W47644  10.252  17.573  12.315 -0.2276 -0.1619 -0.2746
31384W        W47645   6.580   3.487   0.520  0.2484 -0.0956 -0.1626
31385W        W47646   9.552   4.737   0.401  0.2393  0.0401 -0.5162
31386W        W47647   1.746   2.339   2.585  0.0370  0.0262 -0.0405
31387W        W47648   2.292   9.794  11.030  0.2205 -0.2432 -0.1681
31388W        W47649  13.121   1.256   0.050  0.0785 -0.0882  0.1312
31389W        W47650  16.798   9.055   0.309  0.0503  0.2178 -0.2854
31390W        W47651  14.858  10.592  10.716 -0.1154  0.0657  0.2510
31391W        W47652   6.150   3.707   2.113  0.1551  0.1179 -0.2124
31392W        W47653   2.488   9.398   5.001  0.2779  0.0135  0.3022
31393W        W47654  11.690   1.173   0.800  0.2516 -0.0418  0.0300
31394W        W47655  16.265   9.437   4.623  0.1148 -0.0189 -0.1603
31395W        W47656  16.314   0.183   9.384  0.4059 -0.3184  0.0966
31396W        W47657  12.175   4.865   5.447  0.1827  0.0555 -0.2216
31397W        W47658  10.410  11.384   0.999  0.0443 -0.1346  0.0144
31398W        W47659   0.250   4.338   0.192 -0.1669  0.2289  0.1365
31399W        W47660   1.359  11.516   0.683 -0.2255  0.1732 -0.2063
31400W        W47661   6.057  15.104  14.853 -0.0393  0.0628  0.3356
31401W        W47662   2.398   8.175   1.637  0.5100 -0.0119  0.0649
31402W        W47663  17.124   1.039  13.489  0.2025 -0.0590 -0.0426
31403W        W47664   0.033   9.566  15.640  0.1705  0.1430  0.0579
31404W        W47665   2.454   2.079   1.161  0.1656  0.2054 -0.1533
31405W        W47666   6.440   9.376   1.795 -0.0762 -0.0340  0.0086
31406W        W47667   2.088  14.884  11.705  0.0632 -0.1589 -0.1569
31407W        W47668  15.409   4.555  10.590  0.0228  0.0349 -0.4610
31408W        W47669  13.068   0.100   0.521  0.2473  0.1926  0.0624
31409W        W47670   3.920  15.541   0.688  0.1552 -0.0614 -0.2050
31410W        W47671  16.443   1.667   2.620 -0.0483  0.0108 -0.1221
31411W        W47672  17.854  15.419  14.338  0.0551 -0.1754 -0.2039
31412W        W47673   4.153  14.308  12.768  0.1577  0.0245  0.1319
31413W        W47674  11.243  13.146   2.811  0.1466  0.2752 -0.0016
31414W        W47675  17.884  18.728  13.583  0.2018 -0.4069 -0.3947
31415W        W47676  13.984  10.622   4.969  0.2357 -0.1885 -0.0046
31416W        W47677  16.940  10.190  14.202  0.1618  0.1215 -0.7052
31417W        W47678   0.814  12.337  14.831 -0.0974 -0.0009  0.2709
31418W        W47679   7.028  18.374   2.193 -0.0285  0.1641 -0.0068
31419W        W47680   1.865  17.134  12.761  0.4409  0.0195 -0.0292
31420W        W47681  18.221   3.722   0.957  0.0183  0.0939 -0.3247
31421W        W47682   8.754  17.844  15.389  0.1993  0.1057  0.1243
31422W        W47683  12.839   0.270   3.792  0.2240 -0.1075 -0.2060
31423W        W47684   4.539   7.646   3.655  0.1373  0.1777  0.0576
31424W        W47685  16.536   9.559   1.125  0.1213  0.1020 -0.0648
31425W        W47686   2.524   5.722  13.725  0.1357 -0.2875 -0.2279
31426W        W47687   9.079   8.703   3.591 -0.0540  0.0709 -0.1178
31427W        W47688  14.071   7.781  13.782 -0.1173 -0.1003  0.1104
31428W        W47689   9.861   4.343  12.068  0.1942 -0.2170 -0.1450
31429W        W47690   4.756   8.214  14.771 -0.2971 -0.1150  0.1908
31430W        W47691   3.890   6.879  14.398  0.0472 -0.3018  0.2233
31431W        W47692   9.455   2.006  13.613 -0.0148  0.1559 -0.2840
31432W        W47693  16.175  17.872  11.828  0.1877  0.0958 -0.2007
31433W        W47694   4.922   5.819  15.396  0.0064 -0.1297  0.0324
31434W        W47695  11.428   5.939   4.290 -0.1874  0.0661  0.1739
31435W        W47696   3.882   9.931   1.436 -0.0703 -0.0359  0.0563
31436W        W47697  10.606  18.488  13.125 -0.1953  0.5795  0.3799
31437W        W47698  12.023  11.144  12.689 -0.1293 -0.2092 -0.3002
31438W        W47699  10.446   7.984   0.375  0.2678 -0.1726  0.1268
31439W        W47700  17.218   4.060  11.508 -0.1099 -0.0085  0.1370
31440W        W47701  15.435  15.051   0.556  0.1090  0.1298 -0.3059
31441W        W47702   3.610   7.274   5.067 -0.1559 -0.2028  0.0114
31442W        W47703   3.079  12.904  13.973  0.1794 -0.2030 -0.1824
31443W        W47704   7.254  10.567  12.839  0.0491  0.0715 -0.0433
31444W        W47705   6.045  13.086  15.553 -0.0196 -0.1966  0.1108
31445W        W47706   1.254  14.107  10.625 -0.0445  0.1762  0.2345
31446W        W47707   9.819   3.363   2.408 -0.1986  0.0316  0.2061
31447W        W47708  15.787   2.217   3.193 -0.2494 -0.1649 -0.0985
31448W        W47709   1.047   5.157   3.058  0.1738  0.0211  0.2021
31449W        W47710  11.698  18.614  12.188  0.4878  0.0007  0.0344
31450W        W47711   0.562   4.806   0.180  0.3720  0.3272  0.1560
31451W        W47712   0.323   6.462  12.077  0.1596  0.2823 -0.0599
31452W        W47713  10.602  11.340   3.289 -0.1508  0.0889 -0.2632
31453W        W47714   5.237   7.276   5.242  0.1843 -0.0015  0.1748
31454W        W47715  10.815  18.760   4.705 -0.0879 -0.2559 -0.0374
31455W        W47716   2.094   3.672   3.266 -0.0148 -0.3541 -0.1095
31456W        W47717  14.493   4.878  12.419  0.2112 -0.3441  0.0480
31457W        W47718   0.588  17.433   0.719 -0.2858  0.1444  0.0730
31458W        W47719  16.355   3.631  13.395 -0.1243 -0.1952  0.1752
31459W        W47720  18.386   5.357   1.026  0.2103  0.2950  0.0328
31460W        W47721  17.362   6.857  11.128  0.0909  0.4484  0.1790
31461W        W47722  18.605  10.403  11.694  0.2741 -0.3209  0.3856
31462W        W47723  14.865   2.654  11.150  0.1761  0.2237 -0.2109
31463W        W47724   8.787  10.830  11.170  0.0035  0.2198  0.0987
31464W        W47725  17.299   1.926   1.109  0.2275 -0.1011 -0.0198
31465W        W47726  12.808   1.350  13.121 -0.1653 -0.1320 -0.2735
31466W        W47727   9.997   0.878  15.019  0.2182  0.0928  0.2210
31467W        W47728  16.536  18.347   1.797  0.0388  0.0739 -0.1474
31468W        W47729   0.068   1.290  13.356  0.2283  0.0172  0.0892
31469W        W47730   1.654   3.877  11.768  0.4858 -0.1334 -0.1825
31470W        W47731   6.723   4.616   4.378  0.0674  0.3799 -0.0159
31471W        W47732  11.551   4.972  14.407  0.1380  0.0533 -0.3031
31472W        W47733   2.558  11.433  14.384  0.2445  0.1266  0.0678
31473W        W47734   6.923   9.561   2.451 -0.0643  0.0173 -0.1506
31474W        W47735  16.689   4.558   1.413 -0.0030  0.2156 -0.2683
31475W        W47736   4.913  16.643  11.610 -0.0011 -0.0642  0.1912
31476W        W47737   4.419  14.549  11.472 -0.0641 -0.1720  0.0856
31477W        W47738  16.369  13.729  11.986  0.1691  0.0662 -0.0389
31478W        W47739  14.103  10.996   4.269 -0.1184  0.2737  0.0607
31479W        W47740  11.181   3.942   2.652  0.0673 -0.0029 -0.0452
31480W        W47741   8.369  11.167   4.769 -0.2846  0.0322  0.1271
31481W        W47742  10.892   0.542  14.044 -0.2145  0.0768 -0.0536
31482W        W47743   5.930  16.529   3.321  0.0052 -0.0191 -0.0371
31483W        W47744  16.433   4.059  15.082 -0.0572 -0.4608  0.1619
31484W        W47745  18.380   3.949   4.941 -0.0328  0.1578  0.1996
31485W        W47746  17.216   8.355   1.248  0.3651 -0.0636 -0.2087
31486W        W47747  15.435   1.738   1.427  0.1891 -0.1382  0.0481
31487W        W47748  11.479   8.734   0.689  0.0577  0.1475 -0.1167
31488W        W47749  12.033  15.940   1.246 -0.4489  0.0898 -0.4077
31489W        W47750  16.790   4.019   3.853 -0.0876 -0.2353  0.2092
31490W        W47751   8.685   6.830   1.300 -0.0969  0.1850  0.0126
31491W        W47752  14.455   9.995   1.236  0.1040  0.2077  0.0341
31492W        W47753  14.819   1.575   1.232 -0.2568  0.1783  0.0256
31493W        W47754  18.735  11.387   5.476 -0.1214 -0.2487 -0.3396
31494W        W47755   9.285   0.570   0.266 -0.1521 -0.1685 -0.0073
31495W        W47756  11.002  15.414  15.168  0.1732  0.2241  0.2741
31496W        W47757   4.430   2.472   3.009  0.1872  0.1225  0.1983
31497W        W47758  14.455   9.014   1.254 -0.2058  0.1427 -0.1039
31498W        W47759   3.166   9.291   0.931  0.0395  0.0722  0.0055
31499W        W47760   9.826  12.289   0.190  0.3336 -0.0232  0.0909
31500W        W47761  16.689  17.030  13.324  0.2042  0.0650  0.3731
31501W        W47762   4.371  16.061   0.479 -0.2225 -0.1117 -0.0467
31502W        W47763   2.598   3.337  11.140  0.1454  0.1002  0.1961
31503W        W47764   5.880   4.322  11.714 -0.1608  0.0181  0.0854
31504W        W47765  11.237  16.894   4.197 -0.0275 -0.0432  0.0611
31505W        W47766   1.686   3.387  14.053  0.0910 -0.0276 -0.0587
31506W        W47767   2.868   5.452  14.650  0.0419  0.2197  0.0819
31507W        W47768   1.142   4.647  14.529  0.0383 -0.1500  0.0791
31508W        W47769   8.550  13.143  13.132  0.0048  0.3357 -0.0311
31509W        W47770   3.533  14.462   3.791  0.2687 -0.3480  0.0253
31510W        W47771  13.350  13.124  10.544 -0.3104  0.1657  0.0471
31511W        W47772  13.949   2.710   0.151 -0.1325  0.0786  0.1491
31512W        W47773  14.839   1.395  12.215 -0.5539  0.0731  0.1199
31513W        W47774   7.985   4.789   1.112 -0.2824  0.2619  0.0594
31514W        W47775  17.923  14.930  14.291  0.1817  0.0993 -0.0994
31515W        W47776  10.051  15.356  14.074 -0.2260  0.2003  0.0028
31516W        W47777  17.540   5.367   4.148 -0.2295  0.0839 -0.2141
31517W        W47778  15.884   8.651  13.074  0.1144 -0.2223 -0.3298
31518W        W47779   0.434   2.967  14.378 -0.1014 -0.1849  0.5664
31519W        W47780   4.999  18.585  13.924 -0.0664 -0.3058  0.1800
31520W        W47781   3.247  12.073  13.761  0.1518  0.1853  0.1427
31521W        W47782   4.587   9.722   2.450 -0.1907  0.1072 -0.0571
31522W        W47783   3.309   1.657  14.655 -0.0675  0.0235 -0.2306
31523W        W47784   5.664   2.265  13.446 -0.5357 -0.3106 -0.0069
31524W        W47785  11.562   9.804   0.710 -0.0430 -0.2904  0.0214
31525W        W47786   1.104  12.571   1.539  0.0370 -0.2458  0.0888
31526W        W47787  15.122  14.798  12.169  0.2111  0.2775 -0.3853
31527W        W47788   4.282   0.012   3.934  0.0617 -0.1820 -0.1668
31528W        W47789  10.691   7.857  14.659  0.1085  0.1715  0.0040
31529W        W47790   0.017   6.904  11.073 -0.1089 -0.0697  0.1040
31530W        W47791   6.027   0.214   3.559 -0.2059  0.1252  0.1210
31531W        W47792  11.811   6.091  15.560  0.0708 -0.1617  0.1665
31532W        W47793  17.342  17.324  14.248  0.1263  0.3285  0.0881
31533W        W47794  13.509  13.101  13.311 -0.0986  0.1626 -0.2982
31534W        W47795   9.608   5.855  13.197  0.0078  0.1047  0.2283
31535W        W47796  15.889   1.557  14.281  0.5845  0.0235  0.1795
31536W        W47797   5.611  15.426   2.345  0.2319 -0.0984  0.4829
31537W        W47798   0.064  15.808   5.028  0.1426  0.0463 -0.2961
31538W        W47799  17.564  16.457  12.507  0.1926  0.1318  0.0438
31539W        W47800   1.531   2.607   4.169  0.0241 -0.3262  0.1216
31540W        W47801  14.552  18.753  14.305  0.2277  0.0664 -0.1874
31541W        W47802   6.772   5.495   4.654  0.1550  0.4149  0.1753
31542W        W47803  17.680   8.601   4.226  0.3334 -0.1883  0.2551
31543W        W47804   1.140  17.905   3.189  0.2050  0.0957 -0.2705
31544W        W47805  10.222  16.216   1.012 -0.1961  0.1565  0.2900
31545W        W47806   7.321   1.483  13.626 -0.2228 -0.0153  0.0727
31546W        W47807  17.742  14.940   1.938 -0.2204 -0.0187  0.0913
31547W        W47808   6.923  15.786  13.605  0.0752  0.0197 -0.0770
31548W        W47809   3.562  17.972  15.032 -0.1456 -0.0298 -0.1039
31549W        W47810   9.545   2.596  15.218  0.6160  0.2234 -0.1870
31550W        W47811  14.723   4.374  13.232 -0.0666  0.3165  0.1328
31551W        W47812   0.922   6.521  14.427  0.0774  0.0550  0.2981
31552W        W47813   6.495   5.640   5.766 -0.0272  0.4256 -0.0705
31553W        W47814   2.778  18.284  13.873 -0.0733 -0.3640 -0.2612
31554W        W47815  13.306  15.386  12.507 -0.2648  0.1549  0.2516
31555W        W47816  16.485  13.712  13.322  0.1214 -0.2178 -0.3261
31556W        W47817  12.216   4.115   1.178  0.0037 -0.0490  0.1831
31557W        W47818  10.723   3.382   4.336 -0.0383  0.2926  0.1018
31558W        W47819  11.936   0.292  15.331 -0.0494 -0.1628  0.4318
31559W        W47820   7.561   5.727  12.357  0.0746  0.0029 -0.0778
31560W        W47821   5.544  14.990  10.914 -0.1370 -0.0463 -0.2467
31561W        W47822   6.766  11.170   0.963  0.0060  0.0123 -0.1742
31562W        W47823  12.701  12.115  14.556 -0.0498  0.1048  0.0486
31563W        W47824  12.415  11.200   1.344  0.1143 -0.0374  0.0168
31564W        W47825  12.892   8.977   3.788 -0.1895  0.1120  0.0089
31565W        W47826  13.491   9.131   0.303 -0.3004 -0.0219 -0.3358
31566W        W47827  14.324  14.621   0.844 -0.0698 -0.3076 -0.0265
31567W        W47828   2.378   6.774   2.186  0.0711 -0.1193 -0.2201
31568W        W47829  18.214  12.543  14.446 -0.4003 -0.0092  0.2015
31569W        W47830  18.751  16.840   1.302  0.0377  0.1451 -0.3016
31570W        W47831   0.129   6.686  11.497 -0.1793 -0.0390  0.0401
31571W        W47832  12.073  11.999   1.720  0.0577  0.0233  0.1021
31572W        W47833   5.997  16.863  14.737 -0.2822 -0.0704  0.0461
31573W        W47834  14.211   5.475   4.140  0.3314  0.1131  0.2200
31574W        W47835   4.234   6.139   3.625  0.0274 -0.0153 -0.0989
31575W        W47836   2.097  12.551   1.861  0.1522  0.0188 -0.1295
31576W        W47837   3.470   0.031  13.350  0.0040 -0.0565  0.0879
31577W        W47838   7.850  16.980   1.479  0.3244 -0.0155  0.2773
31578W        W47839  12.438  14.903  14.825  0.0985 -0.1037  0.0530
31579W        W47840   1.437  12.593  15.218  0.2268  0.0222  0.0141
31580W        W47841  18.251   9.802   2.817  0.1874  0.0027  0.1067
31581W        W47842   4.481  12.176   5.618  0.1242  0.0890  0.1682
31582W        W47843   5.610   7.383   3.319  0.0633  0.0079  0.1710
31583W        W47844  15.706   8.568   5.168  0.1834  0.1082  0.0298
31584W        W47845   9.911  17.324   0.225  0.2175 -0.0068 -0.0638
31585W        W47846   1.962  15.429   2.090  0.2238 -0.2067 -0.2284
31586W        W47847   0.859  14.376  12.479 -0.2078  0.1092  0.1544
31587W        W47848   3.625   6.767   5.356  0.0999  0.3281 -0.0735
31588W        W47849   3.107  10.840  13.969 -0.0886 -0.2670 -0.1099
31589W        W47850  14.201   7.645  11.574 -0.0609  0.2550  0.0021
31590W        W47851   8.049  13.029   0.414 -0.2496  0.1963 -0.0903
31591W        W47852   9.619  17.582  12.106  0.0210 -0.0426 -0.0294
31592W        W47853   6.765   4.969  14.896  0.2237  0.1731  0.2819
31593W        W47854  12.822   4.375  11.557 -0.0803  0.1244 -0.0548
31594W        W47855  14.041   3.913   2.829  0.0039 -0.1267 -0.3687
31595W        W47856  13.572  17.009   0.915  0.1846 -0.1099 -0.2215
31596W        W47857   7.679  13.002  11.229  0.1560  0.0783  0.2343
31597W        W47858  18.189  10.724  12.776  0.0016 -0.0858 -0.3846
31598W        W47859  12.342  15.550  14.841 -0.2008 -0.2071 -0.0520
31599W        W47860  10.992   1.669   1.419 -0.0972  0.0873 -0.0071
31600W        W47861   4.161  14.590   0.228 -0.2104 -0.2308 -0.1049
31601W        W47862   6.856   0.759   3.158  0.2500  0.0862  0.0234
31602W        W47863   4.893  10.478   0.038 -0.2714  0.0202 -0.1697
31603W        W47864   8.064   1.845   1.733 -0.0302  0.1024 -0.1274
31604W        W47865   8.966  18.734  14.476 -0.2485  0.0942  0.0553
31605W        W47866   3.270  14.307   5.658 -0.4671  0.1242 -0.0555
31606W        W47867  11.276   8.969   0.242  0.0534 -0.1400 -0.1155
31607W        W47868   5.680   3.705  14.806  0.3890 -0.0479 -0.0878
31608W        W47869  17.477   8.573  14.571  0.1275 -0.1385  0.1673
31609W        W47870   5.400  13.523  13.276 -0.0284 -0.2132 -0.0242
31610W        W47871   1.353  13.592   2.819 -0.1617 -0.1697  0.0579
31611W        W47872   8.105  15.849   5.097  0.0143 -0.1715 -0.3149
31612W        W47873   7.966   8.299  12.541 -0.1099 -0.1109 -0.0351
31613W        W47874  13.459  11.030  11.337 -0.1757 -0.2082 -0.1437
31614W        W47875   2.719   3.887  15.492 -0.4062 -0.1073 -0.2126
31615W        W47876  16.282  16.237  15.097  0.0439  0.0331  0.1774
31616W        W47877  11.707  18.143   0.527  0.0153 -0.0545  0.1706
31617W        W47878   8.465  13.012   4.919  0.0613  0.1551 -0.1223
31618W        W47879   7.516   3.710  11.368 -0.0535  0.0373 -0.1772
31619W        W47880   1.164  15.424  13.436 -0.2189 -0.3305 -0.0611
31620W        W47881   7.639   2.410   3.947 -0.0084 -0.0444  0.0120
31621W        W47882  18.661  17.754   4.607  0.2177  0.0512  0.0366
31622W        W47883  16.591  17.888   4.794  0.0414 -0.0450  0.1020
31623W        W47884   5.511   0.379   2.797 -0.0466 -0.5133  0.0977
31624W        W47885   6.055  14.710   5.923 -0.0532 -0.0371  0.0368
31625W        W47886   7.677   7.982  14.523 -0.1744  0.3857  0.1507
31626W        W47887  14.949  10.523   5.312  0.3843  0.0416 -0.1821
31627W        W47888   5.376  16.576   0.899 -0.2483  0.0503  0.2128
31628W        W47889  16.231   0.768  11.105 -0.4991 -0.1265 -0.0651
31629W        W47890  18.791   5.469  11.247  0.0216  0.0224 -0.0691
31630W        W47891   0.231  13.535   2.237 -0.1302 -0.3100  0.0321
31631W        W47892  10.836  16.257   4.732  0.0617 -0.0264 -0.3643
31632W        W47893  10.185   7.637  12.108 -0.1595 -0.1561 -0.0008
31633W        W47894  12.422   9.808  13.194 -0.2929 -0.3341  0.2243
31634W        W47895   7.366  16.524   0.293  0.0468 -0.0370 -0.4213
31635W        W47896   8.184   0.574   4.331  0.1354  0.2047  0.0188
31636W        W47897  18.803   0.372  14.306  0.1236 -0.1054  0.3482
31637W        W47898  14.051   0.237  12.389  0.1011  0.2856  0.1312
31638W        W47899  15.664   6.845  14.220 -0.0326  0.2448  0.2686
31639W        W47900   6.218  12.628   1.006 -0.1129 -0.0530  0.0112
31640W        W47901   0.181  11.695   0.592 -0.2013  0.0342  0.0766
31641W        W47902   0.390  18.104  10.445 -0.1177  0.2953  0.0431
31642W        W47903   8.252  11.600   1.926 -0.0243 -0.0620 -0.1240
31643W        W47904   4.335   7.491  14.673 -0.0060  0.0446  0.1025
31644W        W47905   3.897   0.517   4.760  0.0912  0.0822 -0.3662
31645W        W47906   1.196   5.351   2.384 -0.3114 -0.0350 -0.0572
31646W        W47907  12.825   1.746   3.341  0.2459  0.0009  0.3119
31647W        W47908  10.227  13.631  15.547 -0.1361 -0.4528  0.3052
31648W        W47909  15.292   3.259   0.173  0.0658 -0.2569  0.0120
31649W        W47910  18.056   9.644  13.080  0.1288  0.1366 -0.3704
31650W        W47911  12.325   0.735  15.599 -0.1207 -0.0206 -0.1331
31651W        W47912   0.045   7.110   4.932  0.1392  0.1833  0.2621
31652W        W47913   4.391   7.595  13.791 -0.0476 -0.0616  0.2344
31653W        W47914  11.877   3.366   1.540 -0.1248 -0.0518 -0.0711
31654W        W47915  14.389  17.649  14.641 -0.2508  0.1727 -0.3173
31655W        W47916  10.476  15.530  15.327 -0.3697 -0.0375 -0.2581
31656W        W47917   3.390  11.647   4.499 -0.0547 -0.1952  0.0369
31657W        W47918   1.663  14.675   3.734 -0.0015 -0.3395  0.0551
31658W        W47919  17.406  11.489  10.635 -0.1168 -0.1470  0.1714
31659W        W47920   9.336  15.772   1.754  0.1354  0.3662 -0.3617
31660W        W47921   3.444   2.990  12.260  0.2468  0.0620 -0.2900
31661W        W47922   8.636  12.041   1.355 -0.1682 -0.1062 -0.0459
31662W        W47923   1.541   6.423   4.720  0.1703  0.0811  0.2563
31663W        W47924   5.272   3.672   1.104 -0.0719  0.2343 -0.1141
31664W        W47925  12.332   2.962  14.011  0.0508 -0.0645  0.0161
31665W        W47926  14.740   6.061  10.258  0.2104  0.2704 -0.0103
31666W        W47927  11.156   1.258   3.106 -0.0448  0.1000  0.1234
31667W        W47928   9.451  10.227   0.753  0.2297  0.0686  0.2044
31668W        W47929   1.489  10.114  12.255 -0.2687 -0.2305 -0.0682
31669W        W47930  12.895  16.363   2.154 -0.1039  0.0309  0.1781
31670W        W47931  18.652  10.913  14.003 -0.1189  0.3138 -0.3199
31671W        W47932  14.047   7.281   0.686  0.0340  0.1525 -0.1302
31672W        W47933   7.976  10.536   4.332 -0.2321 -0.0822  0.1624
31673W        W47934   1.931   2.580  10.808 -0.1090  0.1988  0.1444
31674W        W47935   2.323  18.542  13.620 -0.0105  0.0828 -0.0429
31675W        W47936   6.136   2.934  12.666 -0.1450  0.0441  0.0343
31676W        W47937  12.806   9.131   0.998  0.1158  0.1116 -0.3221
31677W        W47938   6.650   8.963  14.002  0.3175  0.2483  0.3680
31678W        W47939   3.887   3.003   3.129  0.1902 -0.1082 -0.0062
31679W        W47940   0.043   1.904   4.216  0.3917 -0.3405  0.0923
31680W        W47941   1.474   1.834   4.049 -0.0934 -0.1150 -0.2039
31681W        W47942  14.962   7.301   2.998  0.1469  0.1769  0.3516
31682W        W47943  17.265   0.674   2.056 -0.1229  0.2278 -0.1538
31683W        W47944   8.656   2.767  11.412 -0.1012  0.1628  0.0207
31684W        W47945   0.640  16.707   3.460  0.0479 -0.3436 -0.2340
31685W        W47946  16.573   8.882  12.504 -0.0124 -0.0243 -0.0887
31686W        W47947   7.443  17.525  15.596 -0.0243  0.1293  0.3414
31687W        W47948  14.799  11.017  10.433  0.0716  0.4124 -0.0780
31688W        W47949  14.958   8.370  10.296 -0.1170  0.1895 -0.1020
31689W        W47950  18.581  18.594   2.098 -0.3261  0.0420 -0.0261
31690W        W47951  16.078  12.566   0.128  0.1922  0.0341 -0.0269
31691W        W47952  16.599   8.899  10.978 -0.1674  0.0485  0.2380
31692W        W47953  15.000   2.594  14.549 -0.1046  0.0958  0.0922
31693W        W47954  17.468   6.369  13.902  0.1546  0.4945 -0.0046
31694W        W47955  11.513   1.723   2.652  0.1578 -0.1043  0.4099
31695W        W47956  14.658   8.100   0.913 -0.0880  0.2304  0.0698
31696W        W47957   7.647   9.302  12.306 -0.0195 -0.1274 -0.0457
31697W        W47958   4.605   9.195   3.571  0.0519  0.0527  0.1873
31698W        W47959   7.203  16.942   0.697 -0.2312 -0.2450  0.0352
31699W        W47960   7.748   5.217  13.805  0.2089  0.2776  0.1699
31700W        W47961  16.938  11.217  13.264  0.1760 -0.2617 -0.1426
31701W        W47962   5.345  17.649   2.701 -0.2542  0.1858  0.0278
31702W        W47963   7.269   9.997  15.597 -0.0635  0.3216 -0.2744
31703W        W47964   6.962   5.743  13.045 -0.0727  0.0483  0.0274
31704W        W47965   4.146  14.444  14.839 -0.1595  0.1097  0.0423
31705W        W47966  11.673   5.529   3.173  0.0007 -0.2337 -0.1774
31706W        W47967   6.793   1.843  14.827  0.1770  0.1206 -0.2257
31707W        W47968  12.456   6.387   1.095 -0.3095  0.2634 -0.0306
31708W        W47969   4.490  15.909   3.124 -0.0467 -0.0254 -0.1318
31709W        W47970   8.655   1.100  11.756  0.1061  0.2585 -0.1273
31710W        W47971   4.425   6.727   3.598  0.1083 -0.1684  0.1438
31711W        W47972  11.501   0.749   1.107  0.3385  0.2823 -0.0522
31712W        W47973  17.323   3.686   2.170 -0.0557 -0.1419 -0.1550
31713W        W47974  18.350  16.184  11.624  0.0256 -0.1260  0.4233
31714W        W47975  10.024   9.209  13.222  0.1097  0.1726  0.1025
31715W        W47976   1.029  14.395   0.805  0.0063  0.0578  0.0639
31716W        W47977  12.360  16.786  13.056  0.0305 -0.2125 -0.1451
31717W        W47978  11.462  10.724   1.353  0.1045 -0.2320  0.1904
31718W        W47979  17.362   0.684  11.513 -0.1062 -0.0008 -0.0330
31719W        W47980   7.141  18.353  15.061  0.0483  0.0957  0.2974
31720W        W47981   9.685  10.913   5.383  0.4844  0.0312  0.2024
31721W        W47982  11.991  14.910   3.194 -0.0869 -0.2214  0.4214
31722W        W47983   7.345  15.503  13.525  0.0753  0.1684 -0.2456
31723W        W47984   1.836   0.508   0.114  0.0904 -0.0144 -0.0013
31724W        W47985   0.019  15.154   0.425  0.0171 -0.3156 -0.4528
31725W        W47986   7.882   3.351   1.946 -0.0956  0.0178  0.2601
31726W        W47987  10.086  18.296   3.202  0.2219 -0.0943 -0.1870
31727W        W47988  13.560  17.133   2.258 -0.4041  0.0797  0.3139
31728W        W47989   0.743  18.098  13.313  0.1060  0.1092  0.0203
31729W        W47990   4.842  17.603   2.868 -0.1735 -0.0153 -0.2312
31730W        W47991   0.611  16.460   4.386 -0.1500 -0.1698 -0.0263
31731W        W47992  12.022  12.834  11.938  0.0712  0.2579  0.0156
31732W        W47993  12.789   3.437  15.191  0.3317  0.0724 -0.0638
31733W        W47994   4.294   3.409  13.408  0.3175 -0.2635 -0.0380
31734W        W47995   5.248   1.748   3.232  0.0593 -0.3383  0.1462
31735W        W47996  15.113   0.380  15.531  0.0684 -0.3985 -0.1128
31736W        W47997  11.897   8.905   2.114 -0.2827  0.0877  0.0447
31737W        W47998   3.680   8.528   1.045  0.2920 -0.0667  0.1974
31738W        W47999   4.805  10.536  13.290 -0.1623 -0.1641  0.0058
31739W        W48000  12.194  16.999   2.037  0.1142  0.1002  0.2334
31740W        W48001   1.296  16.329   5.330 -0.0766 -0.0852  0.1763
31741W        W48002  13.376   8.949   1.162 -0.2985 -0.3103 -0.2203
31742W        W48003  10.612  14.568  13.056 -0.1069 -0.0626 -0.1302
31743W        W48004   1.415   1.983  12.278  0.1694 -0.3059 -0.0447
31744W        W48005   5.744  16.293  11.667  0.2057 -0.2177  0.1816
31745W        W48006   0.326   9.456  11.522  0.1739 -0.2202  0.0162
31746W        W48007   1.227   1.791  13.586 -0.1068 -0.1028  0.1776
31747W        W48008  16.395  18.688  12.966  0.0873  0.0271 -0.0302
31748W        W48009  10.438   0.185   4.815 -0.0847  0.2931 -0.2504
31749W        W48010   4.097   0.487   3.893 -0.2750  0.1629 -0.1701
31750W        W48011  17.959  13.620   0.467 -0.1868  0.3875  0.2094
31751W        W48012   9.803  14.716  12.127  0.1764 -0.0515  0.3090
31752W        W48013  13.146   0.385   2.905 -0.1628  0.1421  0.1489
31753W        W48014  10.673  15.413   5.212 -0.2264 -0.2423 -0.2061
31754W        W48015   4.395  15.094  10.136 -0.0741  0.1595 -0.1237
31755W        W48016   4.332  13.480  11.846  0.0298  0.0205  0.0579
31756W        W48017   2.196   1.099  15.139  0.0421 -0.0718  0.2566
31757W        W48018  10.431  17.085   0.139  0.1506 -0.1128 -0.0412
31758W        W48019   4.504   6.046   0.010  0.1809  0.1074  0.2654
31759W        W48020  14.755   1.839   2.631 -0.0102  0.0125 -0.3761
31760W        W48021  16.420   5.930   3.440 -0.0842 -0.2259  0.2057
31761W        W48022   7.829   0.052  13.657  0.4720  0.0517  0.2066
31762W        W48023   5.733  16.246   0.958  0.2340 -0.0782 -0.2078
31763W        W48024   7.415  18.139   4.286  0.1742  0.1350  0.0109
31764W        W48025  18.406   4.462   4.922  0.0121 -0.0656  0.3371
31765W        W48026  11.992  14.742  11.970  0.1079 -0.1750  0.1423
31766W        W48027  18.516   2.515   1.883 -0.1485 -0.1557  0.1759
31767W        W48028  17.507  13.889   4.088 -0.0219 -0.0855  0.0962
31768W        W48029   4.006  10.587   4.951 -0.0954  0.0318 -0.0256
31769W        W48030   8.326  17.531  12.282  0.0618 -0.5659 -0.1954
31770W        W48031  11.037  17.377   2.995 -0.0905 -0.1843 -0.1284
31771W        W48032   7.975   9.189   0.307 -0.0789 -0.0766 -0.1774
31772W        W48033  15.621   0.731  13.879  0.3798  0.1037 -0.2911
31773W        W48034  10.474  14.590  11.778 -0.1933  0.2741 -0.1465
31774W        W48035   0.874  10.472   4.760  0.0751 -0.0389  0.0425
31775W        W48036   2.579   1.814  10.757 -0.0958 -0.3291  0.1310
31776W        W48037   5.960   0.799   1.478 -0.2538  0.1134 -0.1809
31777W        W48038   4.676   5.259   5.576  0.0104 -0.2961  0.1002
31778W        W48039   8.520   8.958  11.803 -0.1514 -0.0410  0.3261
31779W        W48040  18.695   7.610  12.306 -0.0111 -0.0062 -0.0371
31780W        W48041   7.140  16.133   2.481  0.0189  0.2499 -0.2457
31781W        W48042  12.489   4.007  11.217 -0.3542  0.2395 -0.0581
31782W        W48043  17.043   5.593  15.371  0.0506 -0.0875 -0.2606
31783W        W48044  18.301  11.194  14.257  0.0567  0.0353 -0.0453
31784W        W48045   3.945   2.911   5.846  0.1562 -0.1682  0.0995
31785W        W48046   3.171  12.166  10.224  0.2502  0.1965 -0.1069
31786W        W48047  13.520  18.806   4.700  0.1637 -0.1041  0.2419
31787W        W48048  16.386   4.032  13.998  0.0519  0.2541  0.1995
31788W        W48049   5.385   9.063   3.465 -0.0908 -0.2875  0.3621
31789W        W48050   9.514  18.063  14.824  0.2460 -0.0743  0.0677
31790W        W48051   5.152   7.252   2.608  0.2041  0.2017  0.0678
31791W        W48052   1.175  18.827   3.495 -0.2781 -0.0542 -0.1139
31792W        W48053   4.290  12.275   0.239  0.5092  0.0653 -0.0920
31793W        W48054  12.958   6.048   2.937  0.1066 -0.1931  0.0670
31794W        W48055   0.994   3.889  12.847 -0.0776 -0.1685 -0.1269
31795W        W48056   8.013  10.135   0.589  0.2213 -0.0635  0.0993
31796W        W48057   8.711   3.282  13.835 -0.0413 -0.0892  0.1522
31797W        W48058   6.529  10.833   4.294  0.0533 -0.2257 -0.0574
31798W        W48059   0.342   9.712   5.991 -0.1230  0.0462 -0.1836
31799W        W48060   4.382   5.112   1.984 -0.1718  0.2418  0.3923
31800W        W48061   1.141   5.056   1.206  0.0921  0.0717  0.3403
31801W        W48062  17.679  16.434   2.687  0.0950  0.0981 -0.1387
31802W        W48063  11.377   8.566   4.676 -0.2243  0.1789 -0.1521
31803W        W48064   3.185   4.872   0.981  0.0847 -0.1034 -0.1089
31804W        W48065   0.891  12.196   1.118 -0.1130  0.1111  0.0345
31805W        W48066   5.569   0.887   4.669  0.0918 -0.0331  0.0410
31806W        W48067   6.575  11.463  12.036  0.2072 -0.1735  0.1411
31807W        W48068  14.117  17.727   0.949  0.1884 -0.4416 -0.0110
31808W        W48069   7.553  12.529  12.562 -0.1879 -0.2323  0.0586
31809W        W48070   0.790   3.519  13.153 -0.1952 -0.1582 -0.1389
31810W        W48071   0.866  16.876  12.199 -0.0152 -0.0560 -0.2213
31811W        W48072   3.928  15.306  11.767  0.2441  0.0786 -0.0903
31812W        W48073   1.458   2.736   1.755  0.3594 -0.5444 -0.1428
31813W        W48074  11.388   4.610   0.042 -0.0372 -0.0778  0.3309
31814W        W48075  10.521   1.117   5.048 -0.0877  0.0594  0.0042
31815W        W48076   4.830   0.658  13.422 -0.2282  0.2351 -0.0927
31816W        W48077  10.412  16.511  14.982 -0.0171  0.2461  0.2163
31817W        W48078   7.516   1.140  12.430 -0.3898 -0.3892 -0.1600
31818W        W48079   2.901   8.309   0.851 -0.2437 -0.1407  0.0035
31819W        W48080   0.052  10.096   3.560 -0.2650  0.2013 -0.2124
31820W        W48081   2.571   2.624   0.234 -0.3251 -0.0849  0.2379
31821W        W48082   3.110  17.511   4.977  0.2022 -0.0037 -0.0777
31822W        W48083  14.255   7.339   5.823 -0.2116 -0.1497 -0.2228
31823W        W48084  16.937  13.458   0.261 -0.2397 -0.0107 -0.1769
31824W        W48085   6.787   5.930   1.790  0.1267  0.0566 -0.3082
31825W        W48086   1.172   9.450   4.972 -0.1113  0.2699 -0.3001
31826W        W48087  13.675   2.298   1.721  0.2077 -0.1688  0.0770
31827W        W48088  17.515  12.142   3.950 -0.0586  0.0882  0.0426
31828W        W48089   1.186  16.474   4.362  0.1339 -0.2029  0.1524
31829W        W48090   8.703   9.811   2.250  0.1650  0.3394 -0.3648
31830W        W48091   0.423  16.417  12.999 -0.1691 -0.2453  0.2468
31831W        W48092   8.663  10.277  14.826  0.0371 -0.1121 -0.0009
31832W        W48093  17.049  17.313  11.570 -0.0154  0.0553  0.1805
31833W        W48094   9.109  16.277   2.868  0.3559 -0.0746 -0.1443
31834W        W48095   5.627   9.681   2.757  0.1519 -0.0707  0.2333
31835W        W48096  13.151   7.697  15.163  0.0793  0.0272  0.3040
31836W        W48097   7.648   9.641   3.449  0.0018 -0.2870 -0.1734
31837W        W48098  18.172  12.759  10.187  0.0351 -0.1463 -0.0858
31838W        W48099  18.268  10.971   1.275  0.1438 -0.2940  0.3430
31839W        W48100   5.790  18.291   1.414  0.0896 -0.1194 -0.1798
31840W        W48101  18.319  17.340   3.466 -0.1977 -0.2430 -0.0034
31841W        W48102  12.463   0.790  11.400  0.3044  0.0961  0.2328
31842W        W48103  10.786  13.211  13.801  0.0272 -0.2347 -0.0035
31843W        W48104  12.790  10.337   0.418 -0.0142 -0.1507  0.0608
31844W        W48105   2.615  10.525   4.774  0.0573 -0.0581  0.3038
31845W        W48106   5.142  13.781   1.055  0.3234  0.1098 -0.4562
31846W        W48107   9.181   9.785  13.134 -0.0615  0.1620 -0.2886
31847W        W48108  17.962  14.441  14.240 -0.1694 -0.2088 -0.1629
31848W        W48109   9.714  14.928  15.196 -0.2026  0.1776 -0.1127
31849W        W48110  18.729   6.213  15.416  0.0121  0.3765 -0.1345
31850W        W48111  13.231   2.331   3.947 -0.1282  0.1311 -0.3415
31851W        W48112   3.014   5.835  13.920  0.0665  0.0469  0.0203
31852W        W48113  17.321   9.781  14.243 -0.0025  0.0082  0.0553
31853W        W48114   5.630  10.817   0.512  0.0425 -0.0913  0.1963
31854W        W48115  10.073   3.791  11.100  0.2545 -0.0045  0.1500
31855W        W48116  10.246   5.259  13.666  0.1450 -0.2231 -0.2916
31856W        W48117  16.761   3.828   0.584 -0.3236  0.0653 -0.2038
31857W        W48118  17.954   1.724  15.082 -0.0478  0.1127  0.0258
31858W        W48119   5.032  16.411   3.171  0.2170 -0.0643 -0.2464
31859W        W48120   5.358   3.215  14.030 -0.0306  0.1435 -0.2902
31860W        W48121  11.079   1.133   2.321  0.0747 -0.0145  0.0604
31861W        W48122   1.409   4.578   1.138  0.0442  0.1974 -0.1623
31862W        W48123  18.135  17.846   2.623 -0.1381 -0.0192 -0.0509
31863W        W48124   7.538  12.216   4.050 -0.3679  0.0807  0.1652
31864W        W48125  12.568  13.790  14.971  0.0554 -0.0327 -0.2187
31865W        W48126  10.820  14.380   3.339 -0.0487 -0.0384  0.2209
31866W        W48127   8.770  13.914  13.474  0.1480  0.2392  0.0523
31867W        W48128   8.720  14.814   2.589 -0.0183 -0.1001  0.1821
31868W        W48129  17.002  16.793   1.141  0.2343  0.1949 -0.0828
31869W        W48130  11.179  14.891  12.427 -0.2365  0.2384 -0.1897
31870W        W48131  10.731   0.500  12.447 -0.0214 -0.0173  0.0468
31871W        W48132  10.411   0.147  11.857  0.4407  0.1212  0.1228
31872W        W48133   2.714  15.141   4.545 -0.0981 -0.1819  0.0241
31873W        W48134  10.880   3.849   1.495  0.0222 -0.0323 -0.1362
31874W        W48135   6.661   2.630  11.895  0.0022  0.4175 -0.0248
31875W        W48136  18.794  11.393  10.994  0.0624  0.0697  0.0874
31876W        W48137   9.656  18.347  13.475  0.0209  0.0302 -0.1405
31877W        W48138   9.995  16.249   4.066  0.0649  0.0343  0.1325
31878W        W48139  11.900   1.490   2.895 -0.1702  0.0242  0.1194
31879W        W48140   9.705   9.300  15.329  0.4109 -0.0369 -0.0441
31880W        W48141   3.661  10.188  15.254 -0.2603 -0.1428  0.1393
31881W        W48142  10.001  18.619  11.655  0.0827  0.1427  0.3008
31882W        W48143   4.072  13.068  13.858 -0.0502 -0.3389 -0.0090
31883W        W48144   3.634  11.752  11.544 -0.1555  0.2474 -0.1843
31884W        W48145  11.426   7.948   4.495 -0.0068  0.0096  0.0090
31885W        W48146   6.551  12.566  11.000  0.2246 -0.1919 -0.0980
31886W        W48147   8.953   7.839  14.461 -0.0228 -0.0974  0.2610
31887W        W48148  14.567   5.390   4.444  0.1501 -0.0467  0.4187
31888W        W48149   7.307  17.990   2.473 -0.2718  0.1120 -0.0175
31889W        W48150  13.441   2.654  11.049  0.1701  0.2551 -0.0043
31890W        W48151  15.056  10.088  14.510  0.1962 -0.1666  0.3047
31891W        W48152   4.258  18.521   3.192  0.0919 -0.0256 -0.2586
31892W        W48153   7.778   5.050  15.576  0.2190  0.2841  0.1750
31893W        W48154  17.540  16.204  14.583  0.3058 -0.0803 -0.1809
31894W        W48155  10.084   8.960  13.664 -0.0102 -0.3757  0.0565
31895W        W48156  15.138   2.449  15.002  0.0264  0.2905 -0.1573
31896W        W48157  18.562   9.546  14.927 -0.1231  0.1927  0.1173
31897W        W48158  14.525   0.028   2.618  0.0344  0.1816 -0.0683
31898W        W48159   1.889   3.224   4.443 -0.0440  0.0094 -0.2107
31899W        W48160   7.021  10.737   1.429  0.0880  0.3317 -0.0812
31900W        W48161   7.180  10.324   3.463  0.1369 -0.1012  0.1799
31901W        W48162   4.551  16.380   3.339  0.2803 -0.1019 -0.1306
31902W        W48163  10.777   4.114   1.113  0.1313 -0.0630 -0.1915
31903W        W48164   0.088  13.159  15.007 -0.1565 -0.3525 -0.0741
31904W        W48165   5.040  13.932   2.464  0.0420  0.0304  0.0900
31905W        W48166   6.102   4.946   1.727 -0.2247  0.0763 -0.1336
31906W        W48167  10.039   0.408   3.076  0.0966 -0.0116  0.1585
31907W        W48168   4.004   7.464  11.337 -0.0957  0.1447  0.2043
31908W        W48169   6.327  12.213  14.973 -0.1429 -0.0508  0.1206
31909W        W48170   5.944   4.484  13.678  0.2726 -0.0177 -0.0021
31910W        W48171  11.702   6.889  11.363 -0.2104  0.0110 -0.1183
31911W        W48172   0.162   8.775   2.500 -0.2709  0.0831 -0.0940
31912W        W48173  15.794  16.067   0.116 -0.4248 -0.0466 -0.1096
31913W        W48174  14.732  14.650   4.826 -0.1928  0.0481 -0.2967
31914W        W48175  12.886   3.844  12.982 -0.1816 -0.1402  0.2169
31915W        W48176   0.016   1.435  10.791  0.0806  0.4967 -0.1401
31916W        W48177   7.470   5.622   3.000  0.0695  0.0082  0.0421
31917W        W48178  10.742  11.088   2.395  0.4838 -0.0014  0.2395
31918W        W48179  11.228  10.696  15.175 -0.1675 -0.0593  0.2195
31919W        W48180  10.635   2.746   0.771 -0.1487 -0.0092 -0.1972
31920W        W48181   9.644   5.388   4.022  0.0114  0.3397  0.0826
31921W        W48182   6.868   4.926   5.993 -0.0951 -0.2428  0.2004
31922W        W48183  13.098   3.491   4.058  0.1191 -0.1570 -0.0155
31923W        W48184  15.520   6.969  14.671 -0.0050 -0.3454  0.1709
31924W        W48185  17.114  11.650   4.403  0.0424  0.2255  0.6471
31925W        W48186  10.527   4.300   0.457 -0.2638 -0.0596 -0.1275
31926W        W48187  17.454   1.892  14.288 -0.0463  0.0248  0.1740
31927W        W48188   4.240   0.770   0.577 -0.2413  0.0023 -0.1003
31928W        W48189  11.035   7.515   0.617 -0.0703  0.3727  0.5317
31929W        W48190  16.687  16.107  14.820  0.0863 -0.0632 -0.1446
31930W        W48191   0.356   0.054  11.369  0.1696  0.1511  0.0604
31931W        W48192  18.191   9.800  15.157  0.1510  0.1718 -0.0950
31932W        W48193   4.952   2.352  12.040 -0.0852 -0.0350  0.1622
31933W        W48194  11.878  12.184   4.786  0.0995  0.0082  0.1828
31934W        W48195   4.564  18.082   5.000  0.2933  0.0370 -0.1909
31935W        W48196   5.736  12.576   1.030  0.3001 -0.0511 -0.0811
31936W        W48197   3.775  18.069  10.698 -0.0553  0.1565 -0.0321
31937W        W48198   5.655   2.256   2.683 -0.2919 -0.0291  0.1146
31938W        W48199   9.558  17.102   3.980 -0.1153 -0.1071  0.1715
31939W        W48200   0.393  12.411  15.190 -0.0410  0.4562 -0.3774
31940W        W48201  14.703   4.774   1.132 -0.0617  0.2695  0.2081
31941W        W48202  13.069   8.424  14.480 -0.1143 -0.3054 -0.1640
31942W        W48203   3.370   5.002  14.883  0.0819 -0.0598  0.1147
31943W        W48204  10.239  10.831   1.751  0.0016  0.1419 -0.2142
31944W        W48205   3.636  17.482   0.772 -0.0297 -0.1962  0.1056
31945W        W48206  15.681  15.105  14.682 -0.0636 -0.4901 -0.0876
31946W        W48207   7.053  16.760  13.746  0.1525  0.0476  0.0946
31947W        W48208   4.622   4.998   1.514 -0.0525  0.0741  0.0283
31948W        W48209   3.773   9.368   5.549  0.0032  0.3552 -0.5137
31949W        W48210   6.734  10.458   0.642  0.0523  0.0729  0.3340
31950W        W48211  12.795  10.643  11.578  0.0575  0.1917  0.1219
31951W        W48212   9.385  14.816   2.112 -0.4344  0.1893  0.0114
31952W        W48213  16.780   9.562  15.394 -0.2213  0.2997  0.1077
31953W        W48214   1.180  13.931   4.655 -0.2018  0.0623  0.1829
31954W        W48215  15.659   7.154   4.017  0.0712  0.0301  0.4648
31955W        W48216   8.643  12.734  12.047 -0.1053  0.3612 -0.2316
31956W        W48217  18.024   9.520  13.569 -0.1512  0.3297  0.2870
31957W        W48218   7.694  18.067   0.396  0.1391 -0.0810 -0.0985
31958W        W48219   8.516  14.697   0.034  0.0709 -0.1505  0.1909
31959W        W48220   4.872   0.670   2.673  0.0099 -0.1575  0.0764
31960W        W48221   5.368  14.591   1.286  0.1307  0.0351 -0.1678
31961W        W48222   0.918  17.769   2.035  0.0715 -0.3026 -0.1578
31962W        W48223  15.662   9.066   5.248 -0.1964 -0.1042 -0.0077
31963W        W48224   4.805   1.914  10.963 -0.1268 -0.0445  0.0798
31964W        W48225  12.080  11.023   0.261  0.0739 -0.1719 -0.4999
31965W        W48226   7.772   4.861   1.799  0.0339 -0.0887  0.0449
31966W        W48227   9.729  11.475  15.011  0.1495  0.2027  0.1207
31967W        W48228  16.422   6.815  14.549 -0.0671 -0.0305 -0.1021
31968W        W48229   8.577  13.709   3.009  0.1915  0.1352 -0.1935
31969W        W48230   6.218   1.469  12.155 -0.1004 -0.2527 -0.0968
31970W        W48231  18.068   4.726  14.245  0.1707 -0.4997  0.0435
31971W        W48232  10.985  14.803  15.364  0.1125  0.0550 -0.1944
31972W        W48233   6.035  14.771   5.164  0.3250  0.1253 -0.0051
31973W        W48234   4.425  12.382  13.228  0.0199  0.1900  0.1360
31974W        W48235   9.389   2.364  15.644 -0.0850  0.0729  0.2856
31975W        W48236   8.954  15.386   5.117 -0.1375 -0.1512  0.4160
31976W        W48237   4.091  10.161   4.179  0.0293 -0.0470 -0.0966
31977W        W48238  18.539   3.943   0.024  0.2187  0.2893 -0.0972
31978W        W48239  14.871   8.082  14.327  0.0805 -0.2463 -0.0386
31979W        W48240   0.404   7.006  12.782  0.0618  0.0298 -0.1547
31980W        W48241   3.107  14.594  12.451  0.0056 -0.3073  0.2943
31981W        W48242   4.653  15.774  12.787  0.1111 -0.3550  0.2237
31982W        W48243  16.668  13.980   3.848  0.2360  0.3734 -0.0393
31983W        W48244   5.610   1.032  13.546  0.0606  0.0072  0.0097
31984W        W48245   0.503   5.656   3.519  0.0615  0.0420  0.1899
31985W        W48246   9.167  15.079  15.135  0.1372 -0.0450  0.0135
31986W        W48247   9.378  14.079  11.645  0.2355  0.2038 -0.1146
31987W        W48248   3.141   9.195   4.316 -0.1021 -0.1981  0.0475
31988W        W48249  13.917   0.709  13.849  0.0233  0.0761 -0.2556
31989W        W48250   6.451  15.929  12.668  0.1884 -0.1564  0.1348
31990W        W48251  15.738  16.076   5.537  0.0259 -0.0518 -0.0259
31991W        W48252   4.649  13.877  12.051  0.1228 -0.2787  0.0781
31992W        W48253   1.667  14.643  13.016 -0.2335 -0.0429 -0.0575
31993W        W48254   6.927   7.795   2.856 -0.3258  0.1121 -0.1290
31994W        W48255   6.495  12.523  14.554 -0.1395  0.0672  0.4692
31995W        W48256   9.052   5.154  15.539  0.0461  0.1343 -0.0635
31996W        W48257  16.323   4.652   3.308  0.3419 -0.2894 -0.1861
31997W        W48258  10.290   3.109   3.394  0.0919  0.0218 -0.0445
31998W        W48259  16.230  18.514  11.518 -0.0253  0.0486 -0.1738
31999W        W48260  12.959  18.012   5.544 -0.2050  0.0552 -0.2037
32000W        W48261   1.104  16.449  11.268  0.0780  0.0881 -0.0441
32001W        W48262  16.216  12.859   1.085  0.0059 -0.2345  0.0045
32002W        W48263  18.413  10.761   5.132 -0.2176  0.3328 -0.1968
32003W        W48264   8.076  16.048   3.009  0.0733  0.4291  0.2490
32004W        W48265  17.062  14.593  14.531  0.0008 -0.0946 -0.0013
32005W        W48266  13.716  13.718  13.176  0.2859  0.1643 -0.0393
32006W        W48267  18.319  11.093   0.685 -0.1649  0.4469  0.2597
32007W        W48268   8.443   7.155  15.507  0.0621  0.0452 -0.0358
32008W        W48269   6.732   6.396   3.117  0.1337 -0.1592  0.1844
32009W        W48270   6.538  17.483   4.837 -0.1518 -0.1056  0.0413
32010W        W48271   1.412   9.218  14.349  0.0278 -0.1557 -0.0742
32011W        W48272  17.663  18.689   5.327 -0.0020  0.0144  0.2359
32012W        W48273  16.796   0.819  13.796 -0.0767  0.0904  0.0653
32013W        W48274   1.392  13.798  11.715  0.0200 -0.3288  0.1691
32014W        W48275   6.896   9.617   4.002 -0.2094  0.2903  0.3609
32015W        W48276  17.244  12.745  13.767  0.0166 -0.1090  0.0508
32016W        W48277  17.834  14.203   0.769  0.0737  0.2511 -0.2518
32017W        W48278  11.862   1.319  15.067  0.1663 -0.2620 -0.1688
32018W        W48279  18.758  18.583   2.645 -0.0294 -0.2281  0.0139
32019W        W48280   8.728   1.028  11.239 -0.3084  0.2038 -0.0230
32020W        W48281  14.267   8.131   4.751  0.1859  0.0489  0.1664
32021W        W48282   1.945  15.198   1.629 -0.1242 -0.1652  0.3095
32022W        W48283   8.840  15.639   1.154 -0.1367  0.0045 -0.1962
32023W        W48284   2.707   8.185  13.794  0.0740  0.1821 -0.0707
32024W        W48285   0.880  15.707   2.683  0.2023 -0.2647  0.1574
32025W        W48286   8.433  10.019   1.701  0.4875 -0.2507  0.2277
32026W        W48287   5.624  13.953  10.957 -0.1291 -0.3225 -0.2189
32027W        W48288   1.371   0.480  12.370  0.0975 -0.1382 -0.1479
32028W        W48289   9.543   8.273   4.867  0.0233  0.2231  0.0861
32029W        W48290   7.373   5.598   3.818 -0.0470  0.2370 -0.0387
32030W        W48291   6.250   8.455   2.804 -0.0408 -0.0284  0.2152
32031W        W48292  14.680  10.879  11.210 -0.2728 -0.0643 -0.0090
32032W        W48293  18.723  15.824  15.235 -0.0291 -0.0815 -0.0357
32033W        W48294  10.768   9.120  12.753  0.0984  0.1388  0.0147
32034W        W48295  14.391   0.367  12.077  0.0209 -0.2858  0.0765
32035W        W48296   4.120   6.107   5.163 -0.0836  0.0834 -0.0272
32036W        W48297   9.101   9.876  11.074  0.0474  0.0905 -0.3670
32037W        W48298   3.751   6.583   5.847 -0.0372 -0.1370 -0.3907
32038W        W48299  14.791  16.917  12.010 -0.0647  0.0259 -0.2717
32039W        W48300  11.475  17.875  13.953  0.1415 -0.0770 -0.1081
32040W        W48301  11.939   3.059   1.996 -0.2149  0.0834  0.0134
32041W        W48302   1.281   5.753   2.006  0.0666  0.0330 -0.0937
32042W        W48303   0.025  12.482   4.364 -0.0249  0.4264  0.0296
32043W        W48304   1.309  17.036  10.820  0.0839 -0.1216 -0.1767
32044W        W48305  17.281   5.633  14.014 -0.2774  0.2636 -0.1120
32045W        W48306   2.530  13.501  13.383 -0.2073 -0.2057 -0.0042
32046W        W48307  15.189   9.817  13.453  0.0022  0.2439 -0.0271
32047W        W48308  18.575   4.439   0.349  0.0485 -0.0483 -0.0388
32048W        W48309  14.245   4.687  12.793 -0.0992 -0.1483 -0.0667
32049W        W48310   2.655   4.839  13.568 -0.0741 -0.1238  0.2041
32050W        W48311   1.175  17.344  11.314 -0.1372 -0.2476  0.3299
32051W        W48312   0.866   9.112   0.946 -0.1006  0.4284 -0.0340
32052W        W48313   1.579  18.216  13.368  0.0485 -0.0963 -0.2487
32053W        W48314  14.410  10.557  14.033  0.1488 -0.1949 -0.1721
32054W        W48315   5.414   8.582   0.458  0.1703  0.0904  0.0244
32055W        W48316  11.571  10.377   4.489 -0.2504  0.3450 -0.1955
32056W        W48317  12.630   5.986   4.888  0.0784  0.1469 -0.0881
32057W        W48318   9.270  14.179   5.486  0.0302  0.0341  0.1232
32058W        W48319  18.245  15.777   0.930 -0.2172 -0.1527  0.1861
32059W        W48320   4.485   1.228  13.098  0.2754 -0.0593 -0.0994
32060W        W48321  17.161  11.374  12.630  0.1174 -0.5747  0.1100
32061W        W48322   4.647   7.599   0.872  0.3156 -0.0259  0.2795
32062W        W48323  15.226   1.837   2.830 -0.1041  0.2965  0.0735
32063W        W48324   1.428   9.456   4.157  0.4103 -0.2860  0.0771
32064W        W48325  13.136   4.124   2.637 -0.0503  0.2003  0.2448
32065W        W48326  15.810   0.130  12.584 -0.0521  0.3675 -0.2285
32066W        W48327  15.271   4.606   0.299  0.1368  0.2971 -0.2187
32067W        W48328  11.176   6.369   5.528  0.0079 -0.0190 -0.1750
32068W        W48329   9.375   2.536   3.702 -0.2462 -0.1767  0.0301
32069W        W48330   1.561  16.510   1.162 -0.2590 -0.3126 -0.1142
32070W        W48331  18.592   0.930  13.185  0.0174  0.4899 -0.0787
32071W        W48332   6.077   2.543   5.676  0.0974  0.1098 -0.0432
32072W        W48333  18.565  12.843   5.221  0.0258 -0.0188  0.0287
32073W        W48334  10.658  10.193  13.429 -0.0122 -0.0773 -0.0340
32074W        W48335   6.211   3.602  12.736 -0.0990  0.2402  0.1777
32075W        W48336   2.227  17.388  12.442  0.0859  0.0165  0.1674
32076W        W48337   2.577   3.584  15.164  0.0069  0.0037  0.3017
32077W        W48338   8.102  11.163   3.669 -0.1449  0.2267 -0.0257
32078W        W48339  16.347  17.411   1.463 -0.1098  0.0292  0.2486
32079W        W48340  13.030   4.576  14.274 -0.1968 -0.0102 -0.0177
32080W        W48341   4.824  17.328  14.804 -0.0783  0.0522 -0.1059
32081W        W48342   6.530  10.734  13.169 -0.2064 -0.1447  0.1947
32082W        W48343   9.377  15.411  12.443 -0.0288  0.2432 -0.2041
32083W        W48344   6.827  18.624  12.140 -0.0230 -0.2278  0.0694
32084W        W48345   0.859  12.719   1.066  0.3999  0.2170  0.1076
32085W        W48346   4.405   8.027   1.851 -0.1719 -0.2093 -0.1706
32086W        W48347   8.870  13.795   1.378  0.1519  0.3787  0.0655
32087W        W48348   8.628  10.811  13.823 -0.1781 -0.0106 -0.1307
32088W        W48349  15.097   4.865  13.929  0.0447  0.0402  0.2609
32089W        W48350   6.236   2.454  11.749  0.1296 -0.3305  0.2879
32090W        W48351  17.774   1.263   1.634  0.0702  0.0358  0.0038
32091W        W48352   0.007   1.150   2.151 -0.1630 -0.1593  0.1142
32092W        W48353  16.020  12.669  11.262  0.0849 -0.1981 -0.2019
32093W        W48354   0.354   1.009  14.499  0.1562  0.3162  0.0940
32094W        W48355  14.416  11.095  11.627  0.1220 -0.0266  0.0564
32095W        W48356  18.600  11.028  11.433 -0.0838 -0.0189  0.2559
32096W        W48357  11.365   4.660   3.710 -0.2277  0.1531  0.1306
32097W        W48358   3.842   8.023   1.968 -0.1519  0.2558  0.1478
32098W        W48359   6.364  15.402  12.772  0.0232 -0.0028  0.0624
32099W        W48360  16.281   1.320   1.366 -0.2291  0.0894 -0.4082
32100W        W48361  13.006  17.611  13.989  0.1255  0.1318 -0.0870
32101W        W48362   2.954   1.133  15.340  0.1113  0.1581 -0.2090
32102W        W48363   6.864  11.364   0.288  0.1148 -0.0864  0.1173
32103W        W48364  12.799   7.844   3.326  0.3187  0.1812 -0.1837
32104W        W48365   7.556   1.751   1.775  0.1058 -0.0769  0.0810
32105W        W48366   5.183  12.570   6.021  0.1871  0.3029 -0.0364
32106W        W48367   4.039   6.445  13.520  0.3283  0.1631 -0.0960
32107W        W48368  12.243  16.904  15.425 -0.1446  0.3045  0.3254
32108W        W48369  17.998  14.318   4.900  0.0075  0.0611  0.0787
32109W        W48370  10.646  11.921   1.703 -0.0398 -0.1072 -0.1081
32110W        W48371  12.516   7.645   4.653  0.2107  0.0637  0.1758
32111W        W48372   0.563  15.707   3.108 -0.1505  0.0836 -0.0185
32112W        W48373   4.597   0.718   3.848  0.0004  0.2718  0.1441
32113W        W48374  10.642   7.195   0.505 -0.0776 -0.0059  0.1957
32114W        W48375  10.021   4.979   3.083  0.0619  0.0440 -0.1896
32115W        W48376  11.087   2.536  12.509 -0.0717  0.3277  0.0953
32116W        W48377   7.115  16.056   0.366  0.1130 -0.1267  0.1272
32117W        W48378   1.353  12.157   1.809 -0.1477 -0.5557 -0.3945
32118W        W48379   1.110   9.957  14.962 -0.0131  0.0791  0.0475
32119W        W48380   1.778   1.629   0.745  0.1230 -0.0138 -0.0249
32120W        W48381   3.916   0.175  12.865  0.3053 -0.0363  0.0478
32121W        W48382   8.689   4.047  13.471 -0.1336 -0.4787 -0.0342
32122W        W48383   3.269  17.738  14.273  0.0239  0.0772 -0.2133
32123W        W48384   8.691  15.549   4.633  0.1540  0.0095  0.0273
32124W        W48385  13.531  17.852  12.359 -0.0367  0.3394  0.0491
32125W        W48386   9.434  17.963   5.612 -0.0216  0.0054 -0.0541
32126W        W48387  15.840  11.501   2.140  0.3320 -0.1959  0.0583
32127W        W48388   1.710  12.469  12.124  0.0705 -0.1156  0.0265
32128W        W48389   0.249  18.345   1.751 -0.0513  0.1140 -0.1752
32129W        W48390  17.474   1.260   3.753  0.1633 -0.3338  0.0767
32130W        W48391   4.601   6.167  15.131  0.1813  0.0884 -0.0948
32131W        W48392   2.042  14.921  13.241 -0.0667 -0.0018 -0.2497
32132W        W48393   0.187   0.497   0.335  0.0303 -0.1307 -0.0463
32133W        W48394  17.041   3.125  15.415  0.0662  0.0263 -0.0447
32134W        W48395  10.154  18.138  13.464 -0.1077  0.3122 -0.1975
32135W        W48396   5.757  14.410   4.963 -0.0183  0.0981 -0.2268
32136W        W48397   6.900  17.812   5.097 -0.3128  0.0021 -0.1125
32137W        W48398   1.960   3.103  10.624 -0.3272 -0.1691 -0.1734
32138W        W48399   7.419  12.733   3.795 -0.0640  0.1062 -0.1192
32139W        W48400  17.088   4.927   2.938 -0.0718  0.0245 -0.4115
32140W        W48401  12.257  16.088   2.281 -0.3544 -0.0754 -0.1978
32141W        W48402  17.216   9.421  13.865 -0.1223  0.1470  0.3278
32142W        W48403  12.443  13.145  10.453  0.0839  0.0615 -0.0252
32143W        W48404   9.385   0.780  13.695 -0.4456 -0.2557  0.2131
32144W        W48405   5.136  13.688   3.942  0.1166  0.2204 -0.1376
32145W        W48406  15.269  10.209   5.081  0.1074  0.0900  0.0059
32146W        W48407  14.677   5.824   4.085  0.1724  0.0043  0.1865
32147W        W48408   4.372  15.871  11.160 -0.2601 -0.0603 -0.1556
32148W        W48409   5.560  13.480   2.064 -0.1300  0.1317 -0.1238
32149W        W48410   7.565  14.489  11.174 -0.1605  0.5037  0.0387
32150W        W48411   8.754  13.895  10.775  0.2371  0.2714 -0.6347
32151W        W48412  15.846   2.032   1.448  0.1609  0.2402 -0.2331
32152W        W48413  17.660   4.962   4.421 -0.1679 -0.0720 -0.2623
32153W        W48414  13.878   1.990   1.378 -0.1516  0.1247 -0.0485
32154W        W48415   4.367   9.887   3.398 -0.0047  0.0695 -0.1916
32155W        W48416  16.408   2.415  12.848  0.2330  0.2405  0.1300
32156W        W48417   6.529   4.140   4.356 -0.0726  0.1857  0.3105
32157W        W48418  13.069   7.711   3.856 -0.0154 -0.0784 -0.1929
32158W        W48419   7.242  16.476   2.009 -0.0338  0.2249 -0.1877
32159W        W48420  10.698  15.050  11.613  0.1570 -0.1919 -0.1579
32160W        W48421  14.845  13.771  12.988 -0.0861 -0.1058 -0.1754
32161W        W48422   7.131  10.945   0.000 -0.0972 -0.0567  0.2072
32162W        W48423  17.891  11.885  13.487 -0.1710 -0.6039  0.0632
32163W        W48424   7.094  14.231  14.554 -0.1425 -0.2345 -0.0763
32164W        W48425  16.412   8.306   1.682 -0.1126  0.1539  0.4384
32165W        W48426  10.475  16.641  14.005  0.1086  0.1910 -0.0706
32166W        W48427  17.210   6.066  14.528  0.2656 -0.0776  0.0954
32167W        W48428  14.038   6.216  11.115  0.0974 -0.1874 -0.0828
32168W        W48429   3.019   5.693   0.464 -0.0925  0.0068 -0.1348
32169W        W48430   8.891  15.450   3.808  0.0398  0.1430 -0.0458
32170W        W48431  10.316  11.358   1.537  0.0558  0.0113  0.0058
32171W        W48432   0.822   1.341  11.280  0.3595  0.1263 -0.0946
32172W        W48433  17.424  10.243   3.379 -0.0869 -0.0444 -0.1448
32173W        W48434  15.728  14.508   3.826 -0.0773  0.1550 -0.0627
32174W        W48435  15.970  11.206   0.065 -0.5048  0.1904  0.2043
32175W        W48436   1.975  12.983  11.332  0.0491  0.0427  0.1968
32176W        W48437   9.971  11.095   1.345  0.0447 -0.1163 -0.0102
32177W        W48438  10.668   8.441   5.867  0.1726  0.0039 -0.1546
32178W        W48439  15.339   1.873   0.489  0.1033  0.3347  0.0833
32179W        W48440  10.802   5.139  11.948 -0.1420  0.1578 -0.1626
32180W        W48441  17.160  18.610   3.456  0.0852  0.1095 -0.1061
32181W        W48442   5.658  17.341  13.452 -0.0793 -0.2943  0.3089
32182W        W48443   2.172  10.755   2.323  0.2893 -0.0924  0.1177
32183W        W48444   8.385  18.003   0.013 -0.1629 -0.1528 -0.3937
32184W        W48445   7.390   6.292   4.521 -0.1109  0.3872  0.1528
32185W        W48446   1.125  18.689   0.190 -0.1810  0.1297  0.1138
32186W        W48447   1.348  16.640   4.917  0.0045 -0.1686  0.5493
32187W        W48448   2.246  14.262  11.961 -0.3665 -0.3618  0.0151
32188W        W48449   9.039  14.942  11.887 -0.1013  0.0533  0.0891
32189W        W48450  16.655  17.839   3.327  0.1491  0.0118 -0.0701
32190W        W48451  13.437  14.682  10.457  0.0772  0.1422 -0.0450
32191W        W48452   4.038  10.591   2.614 -0.2640 -0.4554  0.1166
32192W        W48453   1.274  13.287  12.983  0.0460  0.0259 -0.0004
32193W        W48454  18.050  11.857   2.787 -0.0137  0.2439  0.1260
32194W        W48455  16.984  15.474  14.202  0.0467  0.2709 -0.0716
32195W        W48456  10.464  18.031  13.952 -0.1173 -0.0223 -0.1828
32196W        W48457  13.844   5.368  10.954 -0.1178  0.1979 -0.0232
32197W        W48458  16.714   9.773   0.243 -0.4053  0.0759  0.1345
32198W        W48459  15.943   7.595  13.717  0.4280 -0.4255 -0.4544
32199W        W48460   3.365   4.380   4.874 -0.3149 -0.2353 -0.1696
32200W        W48461   1.881   8.516  15.494 -0.2436 -0.3477 -0.1928
32201W        W48462   5.367  11.015  15.135  0.2781 -0.2067 -0.0597
32202W        W48463   1.012  16.703   3.112  0.1345 -0.0345  0.0950
32203W        W48464  18.397  13.071   5.574  0.2319 -0.0753  0.1528
32204W        W48465   1.167  12.633  14.115  0.0926  0.2253  0.1475
32205W        W48466  13.248   5.078  11.093 -0.0096 -0.1392  0.1272
32206W        W48467  10.733   7.594   0.215 -0.3366 -0.1468  0.1170
32207W        W48468  14.137   6.792   2.485  0.4199  0.3137 -0.2209
32208W        W48469  14.104  18.771  11.181  0.1179 -0.3151  0.0880
32209W        W48470   5.221  14.361   2.618 -0.2443 -0.0826 -0.0023
32210W        W48471   9.453  13.103   0.894  0.0138 -0.0724  0.2211
32211W        W48472   4.176  14.850  15.241  0.0723 -0.1932  0.1043
32212W        W48473  11.250   2.884  13.291 -0.1479 -0.1988  0.0994
32213W        W48474   2.488   2.953   5.255 -0.1091  0.0075 -0.1605
32214W        W48475  17.902   6.658  12.601  0.1278 -0.0937 -0.1043
32215W        W48476   0.108   7.542   2.027 -0.0551 -0.0891  0.0199
32216W        W48477   8.398   5.958  11.971  0.5223  0.1269 -0.1471
32217W        W48478   4.248  15.518   3.753  0.0116 -0.0984 -0.1160
32218W        W48479  16.281   1.473  12.911 -0.1751 -0.0412  0.1519
32219W        W48480   6.907   2.388   4.646  0.0499 -0.0042 -0.3068
32220W        W48481  15.326   0.370   0.764  0.0928  0.3873 -0.2248
32221W        W48482   5.218  18.190   2.660  0.2804 -0.0008  0.0869
32222W        W48483   6.677  17.128  15.514  0.1671 -0.0568  0.1323
32223W        W48484   9.092  11.849   0.020 -0.1528  0.2477 -0.0221
32224W        W48485  15.198  11.629   3.274 -0.3439 -0.3723  0.6891
32225W        W48486  11.336   6.394   3.596  0.3246  0.0369  0.1938
32226W        W48487   3.971   8.747   2.931  0.5163  0.2338 -0.0670
32227W        W48488   5.624   5.162   2.118  0.0578 -0.1229  0.1880
32228W        W48489   7.986   8.504   2.129 -0.1325 -0.0908  0.2571
32229W        W48490   8.563  15.452   0.388  0.1305 -0.3451 -0.1121
32230W        W48491  18.533   6.332  11.492  0.0742  0.0297  0.1931
32231W        W48492   6.849   7.658  12.961 -0.0906  0.0550  0.0466
32232W        W48493   6.933   5.411   5.924 -0.0576 -0.1355 -0.2009
32233W        W48494   1.662  10.572  13.384  0.0543 -0.1414 -0.0260
32234W        W48495   6.048   9.313  14.927 -0.2229 -0.2797 -0.2518
32235W        W48496  13.692  13.395   1.286 -0.0924 -0.0149 -0.1344
32236W        W48497  15.069  10.113  15.013 -0.1102  0.0479  0.2036
32237W        W48498  12.987   4.649   1.333 -0.1537 -0.0843 -0.0034
32238W        W48499   8.161  14.940   2.567 -0.1220  0.2086  0.0512
32239W        W48500  16.236   0.570  13.875 -0.3332 -0.2042 -0.0569
32240W        W48501  14.764   4.970  11.877 -0.1096 -0.1114 -0.0868
32241W        W48502  17.154   0.238   1.828  0.2197 -0.0401  0.1217
32242W        W48503   5.152   3.737  12.194  0.0638  0.0255  0.0321
32243W        W48504  12.979   9.547   3.961 -0.0235 -0.3090  0.0824
32244W        W48505  15.128   5.000   3.863 -0.0774 -0.0238 -0.0147
32245W        W48506  12.376  17.998  12.786  0.1265  0.1696 -0.0528
32246W        W48507   7.896  17.782   5.623 -0.1261  0.0604 -0.0400
32247W        W48508   7.957  16.605   1.134 -0.0276  0.1274 -0.0917
32248W        W48509   2.267   3.407   2.262 -0.1410 -0.0822  0.2294
32249W        W48510   9.576   4.949  14.511  0.2486  0.0040  0.0776
32250W        W48511  17.110  16.318   0.536  0.0863  0.1578 -0.1527
32251W        W48512   2.663   2.791   2.411 -0.1134 -0.1756  0.0649
32252W        W48513  13.772  14.346   2.539 -0.3128  0.0463  0.1544
32253W        W48514  13.864  13.487  15.602  0.0018 -0.2589 -0.3225
32254W        W48515   3.130  12.879   1.014  0.1789  0.1505  0.1135
32255W        W48516  15.673  14.246   0.512 -0.0137 -0.0027 -0.2198
32256W        W48517   8.434  17.478  13.252  0.1647  0.2350 -0.2581
32257W        W48518   8.687   1.120   0.051  0.0250 -0.2972 -0.0645
32258W        W48519   4.913   7.370  12.713  0.2047  0.1044 -0.0484
32259W        W48520  18.820   0.107  10.752  0.3835 -0.0973  0.1939
32260W        W48521   2.732   2.761  14.382 -0.3063 -0.1252 -0.0579
32261W        W48522   9.832   5.619  14.868  0.0309  0.2720 -0.1093
32262W        W48523  15.504  12.605   4.553  0.0945 -0.0682 -0.5408
32263W        W48524   4.075  15.430  11.240  0.0548 -0.2529 -0.1004
32264W        W48525  14.668  11.067  14.317 -0.0488  0.1574 -0.1546
32265W        W48526   2.447   9.546  11.580  0.2637 -0.3025 -0.1494
32266W        W48527  18.121  15.430   3.576  0.2215 -0.3785 -0.2007
32267W        W48528   4.956   3.049   2.497 -0.1471  0.0766  0.2221
32268W        W48529   4.968   1.655  14.831 -0.1418  0.0199 -0.2548
32269W        W48530  12.677  14.284   1.548 -0.3240 -0.0980  0.1581
32270W        W48531   8.364   7.205   2.142  0.1168 -0.0428  0.1698
32271W        W48532   3.462  17.806  10.972 -0.2383  0.1485 -0.1561
32272W        W48533   4.337   7.009  14.624  0.0247  0.0709  0.0484
32273W        W48534   4.541   4.111   1.073  0.1775 -0.0624  0.1636
32274W        W48535  15.833   4.350  11.453 -0.3490 -0.1111 -0.1758
32275W        W48536   8.593  16.417   4.623 -0.1682  0.0813  0.0981
32276W        W48537   7.886   7.072   2.259 -0.0921  0.2685 -0.0052
32277W        W48538  13.835   4.792   1.394  0.1711  0.1684 -0.0037
32278W        W48539   0.743   6.141  11.263  0.2881  0.0292  0.1884
32279W        W48540   4.319  18.282   4.123  0.0665 -0.2814  0.1670
32280W        W48541   4.329  11.790  14.875  0.1536  0.1190 -0.0467
32281W        W48542   2.474  16.701   0.550 -0.1762  0.1829  0.2559
32282W        W48543   3.909  13.375   4.674  0.1501 -0.0279  0.1861
32283W        W48544   5.381   2.563   5.001  0.2108  0.0060  0.0810
32284W        W48545   8.019   8.670   1.379  0.0659  0.2673 -0.1313
32285W        W48546   6.775   5.688   0.372  0.2369  0.0606  0.1595
32286W        W48547   5.345  16.536  15.288  0.1765  0.0078 -0.2680
32287W        W48548   4.103   9.007  13.968  0.1824 -0.2820  0.2597
32288W        W48549  13.192   2.655   1.163 -0.0943 -0.1611 -0.3107
32289W        W48550   9.602   6.039   3.471  0.1026  0.0746  0.2853
32290W        W48551   0.602   2.596   5.353  0.1552 -0.2181  0.0348
32291W        W48552  15.552   6.595   4.794 -0.0437 -0.0358 -0.0080
32292W        W48553  14.067  17.626   3.573 -0.2701  0.1987 -0.0988
32293W        W48554   7.846   9.963   0.122 -0.2104 -0.1009  0.1391
32294W        W48555  15.631  12.130   3.565  0.1039 -0.1033 -0.1399
32295W        W48556  17.242   8.626  10.843 -0.1749  0.1244  0.0553
32296W        W48557   9.422   9.185   1.322 -0.0115  0.1921  0.1437
32297W        W48558   3.461   5.967  11.338 -0.2649  0.0539  0.2628
32298W        W48559  10.482   9.403   0.011 -0.1263 -0.2177  0.0228
32299W        W48560   3.867   8.188  14.426 -0.2575  0.2235 -0.0233
32300W        W48561   0.482   3.504  12.670  0.1453  0.0834 -0.1263
32301W        W48562   2.962  12.911  11.364  0.2274 -0.3534  0.4017
32302W        W48563  18.251   2.534  14.651  0.1136 -0.0046  0.5990
32303W        W48564   9.444  14.822   4.241  0.0741  0.2914 -0.1027
32304W        W48565  16.390  12.077  13.023  0.2170 -0.0241  0.0406
32305W        W48566  12.432   6.916  15.150 -0.3411  0.0785  0.2692
32306W        W48567  12.954  17.817   6.033 -0.2297  0.1453  0.1421
32307W        W48568  10.781  14.054   1.598 -0.1764 -0.1599  0.4568
32308W        W48569   8.815   9.356   5.311 -0.1409  0.0099  0.0785
32309W        W48570   3.920   6.657   2.319  0.0204  0.2560 -0.1192
32310W        W48571  18.762  14.958   3.951  0.3976  0.0049 -0.0265
32311W        W48572  16.173   3.388   9.965 -0.0786  0.1349  0.1325
32312W        W48573  18.033  11.208   0.133  0.1982 -0.0123  0.1235
32313W        W48574   7.603   8.847   2.408 -0.2838  0.0393 -0.0297
32314W        W48575  17.503  15.929   1.893  0.1169 -0.0724  0.0136
32315W        W48576  13.755   6.176  13.387  0.1027  0.0056  0.0761
32316W        W48577   2.850   5.332  13.671 -0.2432  0.0802 -0.0011
32317W        W48578   2.680  16.361   0.272  0.2271  0.1308  0.2811
32318W        W48579  11.816  16.585  10.433  0.1390 -0.1622 -0.3149
32319W        W48580   8.842  13.696  11.232  0.2830  0.1123  0.1635
32320W        W48581   3.822   8.513   4.657 -0.0194  0.0212  0.1357
32321W        W48582  14.401  17.197   1.048  0.2650  0.0256 -0.1613
32322W        W48583  10.372  12.086  14.624 -0.4087  0.1811 -0.2319
32323W        W48584  10.254  17.097   1.972 -0.0851  0.1364  0.0198
32324W        W48585   3.113  14.592   0.628  0.0750  0.2364  0.0778
32325W        W48586   9.207   8.631  15.506 -0.2040 -0.1884 -0.1035
32326W        W48587   4.239  12.131  14.500 -0.0930 -0.0386  0.2263
32327W        W48588   6.773   4.613   2.850  0.1683 -0.1648 -0.4087
32328W        W48589  16.440  13.967   5.523 -0.0637  0.0810 -0.2297
32329W        W48590  17.282  14.894   4.131 -0.0261 -0.2111  0.0291
32330W        W48591   0.359   3.366   2.468 -0.1763  0.1317  0.0886
32331W        W48592  15.600   8.861   2.728 -0.1313  0.0314  0.2451
32332W        W48593   3.234  14.007  12.300 -0.2496  0.0662 -0.1155
32333W        W48594  18.423  14.436  13.456  0.0884  0.0374  0.1461
32334W        W48595  11.798  12.987   1.781  0.0026  0.1857 -0.1092
32335W        W48596  11.864  16.471   2.032 -0.0150  0.0753 -0.3143
32336W        W48597   1.362  17.417   2.160 -0.2091 -0.1113  0.0430
32337W        W48598  15.037  16.344  13.821 -0.2383 -0.0652  0.0342
32338W        W48599   5.383  14.022   4.672  0.0019 -0.1011 -0.0703
32339W        W48600  11.613  14.542   1.439  0.1876 -0.4758 -0.0331
32340W        W48601   8.821  14.980   4.852  0.0439  0.2648 -0.1423
32341W        W48602  14.493  16.705  10.366 -0.1878  0.3393  0.2051
32342W        W48603  17.229  10.610   0.940 -0.0869  0.1584 -0.0064
32343W        W48604   9.118   0.294   3.813  0.1554 -0.1280  0.1964
32344W        W48605   9.331   2.652  13.722 -0.3333 -0.3635 -0.1579
32345W        W48606  18.208   4.759   2.589 -0.1475  0.1793 -0.1748
32346W        W48607  10.483   3.146   1.656  0.0498  0.0022  0.2656
32347W        W48608   5.995   1.376  14.612  0.0448  0.3561  0.1441
32348W        W48609   0.016   9.752   2.793 -0.0598  0.4112  0.3919
32349W        W48610  18.311  10.495  11.317 -0.2762 -0.3814  0.0054
32350W        W48611   2.767  10.274   1.145 -0.0795 -0.0326 -0.0527
32351W        W48612   1.292  15.496  14.278 -0.1351  0.0679 -0.0692
32352W        W48613   9.142   7.573   3.171 -0.4021  0.3797 -0.2422
32353W        W48614   7.678  18.768   0.206 -0.0791 -0.1746  0.1273
32354W        W48615   4.847   0.804   0.334 -0.0506  0.3098 -0.2990
32355W        W48616  13.393  18.305  10.420 -0.1709 -0.1584  0.2171
32356W        W48617   0.426   6.817   1.182 -0.2343  0.2501  0.1912
32357W        W48618   1.239   0.525  11.453  0.2746 -0.0065 -0.0153
32358W        W48619  15.811   5.799   3.895  0.0912  0.0813  0.1595
32359W        W48620  16.774  10.733  10.619 -0.0107 -0.1149  0.0097
32360W        W48621  12.594   4.270   1.520  0.1615 -0.0706  0.1208
32361W        W48622   1.324   6.685   1.404 -0.4102  0.2559  0.2861
32362W        W48623   3.810   8.253  11.909  0.0794 -0.0034  0.0649
32363W        W48624  10.593   8.569  15.363 -0.0509 -0.1572  0.0810
32364W        W48625  18.159   1.850   9.934 -0.1781  0.0914 -0.1104
32365W        W48626  11.455  18.238  12.506  0.1486 -0.1171  0.0502
32366W        W48627   4.330   8.940   5.047 -0.0256 -0.2931 -0.2261
32367ION     NA48628   0.328  16.922  10.465  0.0070  0.1277  0.0146
32368ION     NA48629   6.259  14.688  12.282 -0.2676  0.1653 -0.0575
32369ION     NA48630   6.756  16.828  10.795  0.1872  0.3857 -0.0513
32370ION     NA48631  16.845   1.299   9.938  0.0108 -0.0063 -0.0657
32371ION     NA48632   4.687  17.344  10.109 -0.2373  0.0322  0.0818
32372ION     NA48633  15.041   3.219   9.505 -0.1867 -0.0599  0.0656
32373ION     NA48634  14.197  12.206  15.567 -0.2130  0.1015 -0.0171
32374ION     NA48635  14.577   6.049   9.797  0.1834 -0.0364 -0.0571
32375ION     NA48636  12.288   4.407   0.133 -0.1961 -0.1588 -0.3897
32376ION     NA48637   5.215  15.004   5.622 -0.2626 -0.2446  0.1244
32377ION     NA48638   4.942  11.612  10.449 -0.0635  0.2787 -0.0097
32378ION     NA48639  14.364   1.199  10.282  0.0626  0.0674  0.1569
32379ION     NA48640  14.651   5.043  10.778 -0.0773 -0.0248  0.1449
32380ION     NA48641  14.663   8.242   9.896 -0.3547 -0.4512 -0.2482
32381ION     NA48642   5.704  18.353  10.525  0.2936  0.0822  0.3148
32382ION     NA48643  10.021   7.204  12.890  0.1853 -0.0444  0.2610
32383ION     NA48644   4.134   6.625   5.517 -0.1940 -0.2164 -0.2131
32384ION     NA48645  11.825   3.803  10.522 -0.0893  0.3089  0.1209
32385ION     NA48646   8.333   3.707  11.389  0.2654  0.1947  0.1391
32386ION     NA48647   2.944  17.173  10.783 -0.2720 -0.0574 -0.2146
32387ION     NA48648  16.424  11.751  10.076 -0.0937  0.1822 -0.3109
32388ION     NA48649   6.949  12.261   9.967  0.1060 -0.1348 -0.2840
32389ION     NA48650  11.464   6.912  10.437 -0.1534  0.0246 -0.0027
32390ION     NA48651  13.812  15.911   1.757 -0.2024 -0.0719  0.0949
32391ION     NA48652  13.954  14.140   3.116  0.2007 -0.2893 -0.4298
32392ION     NA48653   0.848   6.831   0.390 -0.0943 -0.1918  0.2208
32393ION     NA48654  10.132   1.379  10.710 -0.1548 -0.0182  0.1399
32394ION     NA48655  15.357  17.756   9.678  0.0792 -0.1311  0.0962
32395ION     NA48656   8.939  15.682  10.157 -0.0819 -0.2194  0.1026
32396ION     NA48657   4.925   3.601   5.702 -0.3883 -0.3281 -0.1583
32397ION     NA48658  11.642   4.345   3.336 -0.0210 -0.3676  0.0821
32398ION     NA48659  15.580   4.046   2.833 -0.0247  0.1840 -0.2063
32399ION     NA48660   4.384  10.216  10.488  0.0987 -0.3374 -0.1461
32400ION     NA48661   4.312  16.545  10.198  0.1164 -0.1612 -0.4299
32401ION     NA48662  10.786   8.948  11.284  0.2029 -0.1576  0.0338
32402ION     NA48663   4.032  13.607  10.013 -0.0658 -0.1889 -0.1140
32403ION     NA48664   8.786  17.952  10.002  0.2010  0.0462 -0.0019
32404ION     NA48665  12.509  14.975   9.792 -0.1922 -0.0423 -0.0627
32405ION     NA48666   7.056   7.310  14.408 -0.0144  0.0294 -0.0563
32406ION     NA48667   5.249  11.934   2.702 -0.1382  0.0832  0.1904
32407ION     NA48668   7.454  18.358   6.566 -0.3022  0.2987 -0.0208
32408ION     NA48669   0.472  11.249   5.386 -0.1494 -0.2745 -0.0616
32409ION     NA48670  11.212   7.841  10.535 -0.1452 -0.0498  0.1982
32410ION     NA48671  18.507   7.736  13.303  0.0848 -0.0123 -0.2024
32411ION     NA48672  13.524   0.817   4.038  0.0860 -0.0594 -0.1810
32412ION     NA48673   8.406  11.604  10.238 -0.1283  0.0897 -0.1564
32413ION     NA48674  18.048  18.807   9.658 -0.0046 -0.1079 -0.0294
32414ION     NA48675  10.637   8.707   1.075 -0.5326 -0.0125 -0.1998
32415ION     NA48676  17.064   4.056   9.610  0.2947 -0.2058  0.0072
32416ION     NA48677   1.993  10.097  10.213  0.1051 -0.0983  0.1613
32417ION     NA48678   7.761  16.457   5.780  0.5389 -0.1270  0.0939
32418ION     NA48679   6.473   4.109   0.347  0.0984  0.0107 -0.0817
32419ION     NA48680   7.648  11.819  11.342 -0.0503 -0.2497  0.5479
32420ION     NA48681  13.116   1.239  10.252  0.2778 -0.0840 -0.1988
32421ION     NA48682   4.337  12.788  10.208 -0.3077 -0.0688 -0.0319
32422ION     NA48683   2.823   1.258  10.396 -0.3000 -0.1009  0.2398
32423ION     NA48684   5.133   7.216  12.260 -0.2195 -0.1943  0.0061
32424ION     NA48685  12.392   8.544   9.739  0.1844  0.0942  0.3368
32425ION     NA48686  13.626  13.061   3.832 -0.4351 -0.0718 -0.0583
32426ION     NA48687   1.202   9.064   5.792  0.1396 -0.2449  0.0696
32427ION     NA48688  15.846   6.919   9.890 -0.3129 -0.0938 -0.1291
32428ION     NA48689   1.152   7.606  10.284  0.1873  0.0598  0.1399
32429ION     NA48690  11.037   3.845  15.576  0.1314  0.0433 -0.2807
32430ION     NA48691   2.857  14.412   9.763  0.1394 -0.3261 -0.0211
32431ION     NA48692  10.798   3.574   5.695  0.0038 -0.1747 -0.2197
32432ION     NA48693   9.902  15.920  10.561 -0.0782  0.0567 -0.2341
32433ION     NA48694   7.395   3.663  15.489 -0.2023  0.2121  0.2466
32434ION     NA48695   6.135   3.917  10.576  0.1203  0.0150 -0.0747
32435ION     NA48696   1.831  18.821   9.838  0.1282 -0.2056  0.0770
32436ION     NA48697  12.291   1.347  14.849  0.2315 -0.0873 -0.1919
32437ION     NA48698  11.822   7.293  10.126  0.1471  0.1293  0.1040
32438ION     NA48699   9.799  16.114  13.027 -0.1204  0.1088 -0.1721
32439ION     NA48700   7.433   2.005   6.300  0.2573 -0.1965 -0.2128
32440ION     NA48701   1.978   1.416   9.965 -0.1854 -0.0202 -0.0067
32441ION     NA48702   0.829   7.740   5.581 -0.1311  0.1467  0.2520
32442ION     NA48703  11.686   2.681   2.733  0.0696  0.0821 -0.1229
32443ION     NA48704   5.854   4.601   2.056  0.1248 -0.0235 -0.1305
32444ION     NA48705   6.925   9.164   5.765  0.0933  0.0399  0.2051
32445ION     NA48706  16.133   5.164   0.829  0.0383 -0.0666  0.1324
32446ION     NA48707  13.756   9.369  12.429  0.2131 -0.1234 -0.1902
32447ION     NA48708  16.656  17.044   4.496 -0.2835 -0.0074 -0.0966
32448ION     NA48709   2.357  13.556   9.858  0.0217 -0.0731 -0.1363
32449ION     NA48710  16.852   2.973   9.703  0.0708  0.1557 -0.2397
32450ION     NA48711  17.023   8.852   5.038  0.1744  0.0674 -0.2745
32451ION     NA48712   0.119   3.953  10.032 -0.2450  0.0008  0.1429
32452ION     NA48713  13.617  18.596  10.083  0.0216  0.1294 -0.1753
32453ION     NA48714   5.240   3.029   5.208 -0.1268  0.2264 -0.0902
32454ION     NA48715   6.764  13.237  10.074  0.0272  0.0588  0.0538
32455ION     NA48716   7.523  14.090  10.403  0.2470  0.3027 -0.0335
32456ION     NA48717   5.308   5.093   1.200  0.0475  0.1304  0.1296
32457ION     NA48718  12.112   1.364  10.282  0.2074  0.0814  0.1136
32458ION     NA48719  10.106   7.573  10.562 -0.1152  0.4245 -0.2326
32459ION     NA48720   1.378   0.776   9.789 -0.2543 -0.3658 -0.1862
32460ION     NA48721  14.763   9.224   5.502  0.0489  0.2113 -0.4526
32461ION     NA48722   0.030  18.231   2.309 -0.3431 -0.3857  0.1233
32462ION     NA48723  12.546  17.497   9.840  0.2546  0.2872 -0.0584
32463ION     NA48724  17.677   9.474  10.212 -0.1662  0.0375 -0.1133
32464ION     NA48725   6.534  17.076   4.584 -0.1650 -0.4058 -0.1829
32465ION     NA48726   2.856   7.779   0.815 -0.2484  0.3506  0.1357
32466ION     NA48727  12.028   8.150   1.021  0.3374 -0.1186  0.2346
32467ION     NA48728  15.661   1.260  10.482 -0.0476  0.0655  0.3917
32468ION     NA48729  10.866  10.012   9.945 -0.2147 -0.1599 -0.1678
32469ION     NA48730   2.605   8.105   9.954 -0.0911  0.1866 -0.0273
32470ION     NA48731   7.727   9.267  10.402  0.2899  0.0095 -0.3118
32471ION     NA48732  14.668   6.377   0.432 -0.1180  0.0571  0.0221
32472ION     NA48733  15.240   9.350   9.903 -0.0662  0.1505  0.2148
32473ION     NA48734   4.821   1.366  10.020 -0.0010 -0.0530 -0.0500
32474ION     NA48735   4.066  16.966   5.612 -0.1765 -0.3326 -0.1070
32475ION     NA48736   9.798  12.676   5.397 -0.1415 -0.1882 -0.2504
32476ION     NA48737  10.761   9.130  10.032 -0.0463 -0.0186 -0.1248
32477ION     NA48738  11.058   2.139  12.038 -0.2975  0.2500 -0.0413
32478ION     NA48739  18.388   2.239   5.471  0.1320  0.2371  0.1984
32479ION     NA48740  10.853   2.170  10.735 -0.0146 -0.0048  0.2458
32480ION     NA48741  16.012   0.238   5.137  0.1273 -0.2142 -0.2476
32481ION     NA48742   1.178  11.508   5.309 -0.3811  0.1754 -0.0709
32482ION     NA48743  16.301  10.054   9.906 -0.1608  0.0444 -0.0738
32483ION     NA48744   6.688   6.761   1.068  0.0390 -0.0577  0.0326
32484ION     NA48745   2.318   3.214   3.247 -0.0852 -0.0670  0.2399
32485ION     NA48746  12.252  16.618   5.487 -0.0450 -0.1268  0.1852
32486ION     NA48747   9.502  14.165   9.620 -0.0895 -0.0724  0.0056
32487ION     NA48748  10.050   5.267   1.143 -0.0135 -0.1774 -0.1278
32488ION     NA48749   5.380  14.780  10.239  0.2371  0.2874 -0.0688
32489ION     NA48750   8.460  18.585  10.463  0.0765 -0.0220 -0.1240
32490ION     NA48751  15.437   4.036   9.408  0.2782 -0.4502  0.1978
32491ION     NA48752  14.246   9.734   9.988 -0.3317 -0.1300  0.2595
32492ION     NA48753  12.053  14.495  10.776  0.2622  0.2366 -0.5810
32493ION     NA48754   5.952   9.071   4.337  0.0256  0.1128 -0.0755
32494ION     NA48755  11.932  11.349   5.416  0.1627  0.2115  0.3406
32495ION     NA48756   3.972  15.195   2.477  0.1195  0.1294 -0.1381
32496ION     NA48757  11.175  14.645   2.120  0.0571 -0.1395 -0.2257
32497ION     NA48758  15.507  14.060  10.441  0.0639  0.0925  0.4674
32498ION     NA48759   5.597   9.923  10.210 -0.0757  0.1541  0.0830
32499ION     NA48760   9.857  10.472   1.024 -0.1071 -0.0751 -0.1077
32500ION     NA48761  10.688   5.349  10.663 -0.1429 -0.0476  0.1679
32501ION     NA48762   3.073   8.722  10.504  0.0457  0.2233 -0.0063
32502ION     NA48763   8.120  15.307  14.001  0.3702 -0.1147 -0.1515
32503ION     NA48764   3.221  11.927   9.807  0.0972 -0.3053 -0.0727
32504ION     NA48765  16.670   8.717  10.010  0.0025 -0.0244 -0.0392
32505ION     NA48766  11.661  17.263   9.817  0.1257  0.0717 -0.2706
32506ION     NA48767   2.678  17.338   1.608 -0.3579  0.0443  0.1547
32507ION     NA48768  10.223  11.600  10.008  0.2363 -0.0338  0.0476
32508ION     NA48769   3.244   7.687  13.302  0.2181  0.0950  0.1556
32509ION     NA48770   6.432  12.162  10.075 -0.0744  0.0610 -0.2844
32510ION     NA48771   6.740   2.149  10.472  0.0560 -0.0617  0.0419
32511ION     NA48772  11.209  17.790  12.494 -0.1716  0.1011  0.0724
32512ION     NA48773  11.360  12.276  10.761 -0.0888 -0.0205 -0.0729
32513ION     NA48774   4.840  14.889   3.788  0.0353 -0.0353 -0.1566
32514ION     NA48775   6.626  16.106  10.585 -0.0311 -0.0408 -0.1149
32515ION     NA48776  10.218   5.084  10.776  0.1817  0.0286 -0.3484
32516ION     NA48777  12.574   2.350   4.781  0.0274 -0.0045  0.3433
32517ION     NA48778   8.415  17.009  12.358 -0.1116 -0.2118 -0.0151
32518ION     NA48779   4.780  14.646  13.432 -0.2183 -0.0276 -0.0673
32519ION     NA48780  14.060  12.064   5.138  0.0997  0.1279 -0.0131
32520ION     NA48781   3.113  14.174   5.169 -0.0749  0.0189  0.0597
32521ION     NA48782  10.953   5.199   3.233 -0.1128  0.1049  0.1666
32522ION     NA48783   5.091   1.823  10.156  0.5576 -0.2177  0.3279
32523ION     NA48784  15.235  14.772   9.695  0.3902  0.0355  0.0354
32524ION     NA48785   4.908   8.470  10.101  0.1624  0.0129  0.0244
32525ION     NA48786   7.474  12.451   5.747 -0.0828 -0.3235  0.0127
32526ION     NA48787   3.017  10.753   9.777  0.0989  0.0469 -0.3156
32527ION     NA48788  18.674  11.406   9.897  0.0682  0.0359 -0.0253
32528ION     NA48789   3.866  13.544  11.746 -0.2884  0.1856  0.0635
32529ION     NA48790   2.984  14.000   9.482  0.2980  0.1808  0.0944
32530ION     NA48791   9.452   5.559   5.206  0.0123 -0.0503  0.3023
32531ION     NA48792  17.451   3.535   9.603 -0.2048  0.1723  0.1731
32532ION     NA48793  18.683  11.171   1.512 -0.0870 -0.0395 -0.0427
32533ION     NA48794  11.341   4.717   1.560 -0.4281 -0.0991  0.0430
32534ION     NA48795  15.902  10.929   9.937  0.1535  0.0023 -0.1860
32535ION     NA48796   1.404  13.667   9.852 -0.0485 -0.1948  0.0628
32536ION     NA48797   1.318  12.082  10.018 -0.1296 -0.0269 -0.2682
32537ION     NA48798  15.024   2.694   9.772  0.0576  0.2282  0.1829
32538ION     NA48799  13.554  12.748   9.568  0.1731  0.1926 -0.2293
32539ION     NA48800   8.794   9.987   4.788  0.4083 -0.0430 -0.0881
32540ION     NA48801   1.761  12.048  13.651 -0.2428  0.0874  0.2126
32541ION     NA48802   4.340   3.239  10.231 -0.2408  0.0321 -0.2900
32542ION     NA48803   8.134  13.096  10.064 -0.2257 -0.4364 -0.0097
32543ION     NA48804   3.033   3.715  14.808  0.0739  0.3076 -0.1583
32544ION     NA48805  11.701  16.485  12.316 -0.1570  0.0215  0.0538
32545ION     NA48806   1.865   8.431   4.418 -0.1344 -0.3135 -0.1904
32546ION     NA48807  14.593   4.145   9.698 -0.2963  0.1214  0.2029
32547ION     NA48808  17.384   1.715   9.804  0.1356 -0.0697  0.0045
32548ION     NA48809  13.974   8.837   9.942  0.3847 -0.3506  0.3296
32549ION     NA48810  14.635  13.977   9.585 -0.0797 -0.2335 -0.0374
32550ION     NA48811  18.114   4.146   9.724 -0.1463 -0.0338 -0.3247
32551ION     NA48812  17.704   6.012  10.202 -0.0047  0.1399 -0.1069
32552ION     NA48813  16.209   6.087   9.786  0.0060  0.0916 -0.6726
32553ION     NA48814   7.883  12.556   4.146 -0.2185 -0.0719  0.5265
32554ION     NA48815   2.256   5.153  10.404  0.3264 -0.0811  0.2118
32555ION     NA48816  15.385  17.249   9.854 -0.0628 -0.1498  0.1918
32556ION     NA48817   9.162   6.587  11.992  0.0386  0.3292 -0.4160
32557ION     NA48818  10.939  11.012   9.828  0.0992 -0.3016 -0.0612
32558ION     NA48819   6.057   0.565  10.547 -0.1497 -0.1850 -0.4000
32559ION     NA48820  10.242  10.396   4.112 -0.1028 -0.2814  0.0355
32560ION     NA48821   1.754   2.838   9.792  0.4420  0.0258 -0.0775
32561ION     NA48822   1.518   9.920  10.061  0.0164  0.0479 -0.3840
32562ION     NA48823  13.946   1.209   1.152 -0.0749 -0.2935 -0.0224
32563ION     NA48824   0.189  15.310   9.790  0.2201  0.1716  0.0210
32564ION     NA48825   5.468  16.985   5.729 -0.1869  0.4189 -0.0316
32565ION     NA48826  15.193   6.272  12.782 -0.1696  0.1608  0.1049
32566ION     NA48827  10.764   0.770  10.277  0.2272 -0.0724  0.0983
32567ION     NA48828   1.265  11.262   1.255 -0.0604  0.1713 -0.0483
32568ION     NA48829  17.083   3.335   5.148  0.0362  0.0645  0.0778
32569ION     NA48830   6.597  13.642  11.286  0.0372 -0.1197  0.1431
32570ION     NA48831   2.205  15.529   9.755  0.0781  0.4063  0.0683
32571ION     NA48832   4.213  16.490   1.775  0.0101  0.0091 -0.0978
32572ION     NA48833   3.937   9.135   6.006  0.3797 -0.1011  0.0090
32573ION     NA48834   4.025   0.894  10.100  0.1129  0.1534 -0.1537
32574ION     NA48835   0.493   6.254  10.029 -0.0116 -0.1371  0.0375
32575ION     NA48836  12.712  10.252   9.650  0.0766  0.0171 -0.1748
32576ION     NA48837   6.459   9.894  10.370  0.0600 -0.1773 -0.0341
32577ION     NA48838   8.408  15.889   1.371 -0.1927  0.1351 -0.2218
32578ION     NA48839  15.545  16.115  10.503  0.1052 -0.1214  0.0116
32579ION     NA48840  17.425  13.585  10.145 -0.0870  0.1065  0.2133
32580ION     NA48841   8.927  12.225  13.533  0.0071 -0.4156  0.1954
32581ION     NA48842  12.714  11.844   4.377 -0.4676  0.2869  0.0041
32582ION     NA48843  18.461   0.573   5.307  0.2035 -0.3178 -0.1866
32583ION     NA48844  14.420   6.026   3.308 -0.1546 -0.2135  0.3181
32584ION     NA48845  15.955   6.147  12.239 -0.1314 -0.2702 -0.2141
32585ION     NA48846  16.721  14.482  14.952 -0.1722  0.2553 -0.1218
32586ION     NA48847   1.279   3.342  12.361 -0.0121  0.0650 -0.0881
32587ION     NA48848  12.229   0.571  12.511  0.3278 -0.0522 -0.0906
32588ION     NA48849   7.461   5.740  11.023 -0.3958 -0.2453 -0.2334
32589ION     NA48850  13.318   6.189   4.222 -0.0729  0.0806  0.1713
32590ION     NA48851  15.870   1.391  13.224 -0.2872 -0.2536  0.2001
32591ION     NA48852   7.058   9.459   3.498  0.3352 -0.1811  0.0749
32592ION     NA48853  11.356   2.666   5.629  0.0070 -0.0305 -0.2147
32593ION     NA48854  17.691   2.715   9.694 -0.0647  0.3159 -0.1318
32594ION     NA48855  18.575  16.244   9.962  0.1370 -0.0887  0.0706
32595ION     NA48856  11.467  17.668  12.003 -0.3434  0.1892  0.1063
32596ION     NA48857   3.798   8.887  10.106  0.0985 -0.1116  0.0650
32597ION     NA48858  12.881   0.310  10.417  0.2412  0.0154 -0.1303
32598ION     NA48859   7.674  12.909  10.015 -0.0131  0.0583 -0.1243
32599ION     NA48860   8.919   6.952   0.145 -0.0087  0.0083 -0.1521
32600ION     NA48861   8.446   8.424  10.706  0.0637 -0.1343  0.0763
32601ION     NA48862   6.696  10.238  10.067 -0.3651 -0.1236 -0.0324
32602ION     NA48863  10.657  14.556   9.982 -0.1896 -0.0510 -0.3246
32603ION     NA48864   5.799   2.075  13.019 -0.0282 -0.2737  0.0896
32604ION     NA48865   4.708   9.125  10.117 -0.0036 -0.2570  0.2124
32605ION     NA48866  14.579   4.019  11.999  0.2710  0.3674  0.1786
32606ION     NA48867  17.947  15.383   9.880  0.0566  0.1421 -0.1138
32607ION     NA48868   7.639  15.707  10.424  0.0826  0.0361  0.1763
32608ION     NA48869   4.055  17.813   0.017 -0.0559 -0.1003  0.0555
32609ION     NA48870   0.062   3.020  12.058 -0.0250 -0.1686 -0.0960
32610ION     NA48871  14.435  17.764   9.759 -0.1280  0.0595  0.0833
32611ION     NA48872   6.736   2.738   4.963 -0.0089 -0.0682 -0.1976
32612ION     NA48873   7.207  18.730  11.791  0.2383  0.0263  0.1215
32613ION     NA48874   4.556   4.061  10.446  0.3086  0.3171  0.0518
32614ION     NA48875  15.490   0.439   9.673 -0.2275  0.1338  0.2741
32615ION     NA48876  17.455  11.732   9.736 -0.3109 -0.0342  0.1399
32616ION     NA48877  12.449   3.011  10.561 -0.2641 -0.0405  0.1763
32617ION     NA48878   3.855  14.082   9.939  0.2980 -0.2720  0.0260
32618ION     NA48879  13.618   8.080   9.921  0.0338  0.1434 -0.0754
32619ION     NA48880  17.184  18.661   9.854  0.2951 -0.1181 -0.2210
32620ION     NA48881   9.228  18.800  10.597  0.0812 -0.2949  0.1706
32621ION     NA48882   6.126  10.638  10.248  0.1826 -0.1991  0.2827
32622ION     NA48883   3.479   1.818  10.168  0.3273 -0.1055 -0.0702
32623ION     NA48884   6.315  11.602  10.518  0.0485  0.0015 -0.0223
32624ION     NA48885   1.968   8.685   0.354 -0.3514  0.2236 -0.0536
32625ION     NA48886   4.658  15.848  10.261 -0.2197 -0.2413  0.1624
32626ION     NA48887  14.054   4.705  10.042 -0.0765 -0.0072  0.1545
32627ION     NA48888  15.786  10.125  10.071  0.0696  0.0863 -0.2012
32628ION     NA48889  18.718  14.311   0.712 -0.1408 -0.0862 -0.0034
32629ION     NA48890  10.149   3.248  11.331  0.1401 -0.1637  0.1094
32630ION     NA48891  12.100  14.640   5.435 -0.0546 -0.1078  0.2127
32631ION     NA48892   2.723   9.704  15.367 -0.0253  0.2500  0.3918
32632ION     NA48893  10.009  10.183  14.787 -0.0941  0.1016  0.4549
32633ION     NA48894   0.383   8.180  10.219 -0.3227 -0.0392  0.2802
32634ION     NA48895   0.087   2.825   9.593  0.2653 -0.2706 -0.1218
32635ION     NA48896  11.568  10.957   4.524 -0.1559 -0.0722 -0.0403
32636ION     NA48897   0.772   5.408  10.135  0.1637 -0.1143 -0.0436
32637ION     NA48898  16.910  16.331   5.055 -0.0984 -0.0605 -0.1297
32638ION     NA48899  12.047   8.914  10.036  0.3479 -0.1054 -0.1874
32639ION     NA48900   5.523  17.878  11.619 -0.2442 -0.2573 -0.2655
32640ION     NA48901  11.719  10.528   9.779  0.1080  0.0095  0.0800
32641ION     NA48902   6.314  14.572  10.159 -0.2531  0.1199 -0.1540
32642ION     NA48903  16.747  10.071   3.317  0.1968  0.1268  0.0323
32643ION     NA48904   2.900  17.680   9.918  0.1513 -0.1558  0.1944
32644ION     NA48905   6.134   2.355  10.548  0.0712 -0.0992  0.1559
32645ION     NA48906  12.737   2.084  13.523  0.0748  0.3588  0.0659
32646ION     NA48907   8.059  12.465  10.969  0.3663  0.2936 -0.0588
32647ION     NA48908  13.778   1.554   5.393 -0.1298  0.2067  0.0168
32648ION     NA48909   9.002  18.299   6.188 -0.1349 -0.0542 -0.3260
32649ION     NA48910  13.544  17.482   9.905 -0.0454  0.1165  0.2846
32650ION     NA48911   3.838   9.140   5.016 -0.2926  0.0022 -0.0419
32651ION     NA48912   6.552   5.710  10.861  0.1474 -0.0638  0.2501
32652ION     NA48913   6.477  13.032  13.005 -0.3228 -0.0400  0.0742
32653ION     NA48914   9.957  18.238  10.379 -0.0340  0.0624 -0.2390
32654ION     NA48915   5.018   5.965  10.660  0.1257  0.0772 -0.0788
32655ION     NA48916   8.433   7.114   6.245 -0.0886  0.1253  0.1895
32656ION     NA48917   7.662   1.980  10.559 -0.2552  0.0096 -0.1156
32657ION     NA48918   1.247   4.907   5.475  0.1858 -0.0983  0.3027
32658ION     NA48919  18.087   5.001   5.298  0.0044 -0.0325  0.2035
32659ION     NA48920   7.492   4.195  11.513  0.0187  0.1649 -0.0503
32660ION     NA48921   9.404   3.333  14.466  0.2975 -0.1701 -0.3720
32661ION     NA48922   9.737   6.753  10.528  0.0552 -0.0847 -0.2268
32662ION     NA48923  13.531  14.778   9.558  0.3874  0.3413  0.2498
32663ION     NA48924  12.216   6.372  10.180  0.0564  0.2137  0.2449
32664ION     NA48925   7.552  15.467  15.356 -0.1981  0.1483  0.0939
32665ION     NA48926   7.062   7.216  10.782 -0.0601  0.0159  0.0622
32666ION     NA48927  11.078  15.008   4.570  0.0399 -0.1889  0.1870
32667ION     NA48928  15.385  11.849   9.768 -0.3107  0.0703 -0.1667
32668ION     NA48929   0.257   5.131   5.262 -0.0461  0.5656  0.0959
32669ION     NA48930   9.491   8.076   5.687 -0.0781 -0.1172  0.0996
32670ION     NA48931  18.456   0.529  15.110  0.0095  0.0970  0.2677
32671ION     NA48932  12.772   7.632   9.909  0.0210 -0.0464  0.0936
32672ION     NA48933  14.360   3.231  10.042 -0.2047 -0.1449 -0.1158
32673ION     NA48934   2.194   0.772   5.125  0.1906 -0.1269  0.1900
32674ION     NA48935  17.843  12.355   5.531 -0.1415 -0.1590 -0.4113
32675ION     NA48936   7.821   5.430   3.927 -0.3969  0.0936  0.2390
32676ION     NA48937  16.135   9.818  13.208 -0.0916 -0.0853 -0.2257
32677ION     NA48938   2.471  13.588   0.886 -0.0550 -0.2309  0.2673
32678ION     NA48939  10.248   4.000   2.657 -0.0080 -0.1628  0.1985
32679ION     NA48940   1.236  14.998   5.713 -0.0132 -0.0983 -0.3017
32680ION     NA48941   7.696   3.449   5.358 -0.0330  0.0132 -0.2933
32681ION     NA48942   9.216  16.786   5.250 -0.1594 -0.1946  0.3281
32682ION     NA48943  13.118  16.892   9.504 -0.0207  0.2127 -0.1963
32683ION     NA48944  15.477   5.721   9.790 -0.0674  0.1634  0.1481
32684ION     NA48945   8.458   3.102  14.490 -0.0876 -0.1121 -0.0404
32685ION     NA48946   4.348  17.138   5.059  0.1069  0.0554  0.2098
32686ION     NA48947   0.996  13.508  13.618 -0.2287  0.2407  0.4342
32687ION     NA48948   8.737   2.376   5.917  0.0202 -0.3236 -0.1059
32688ION     NA48949  18.620   9.559  13.431  0.0406 -0.1050 -0.2591
32689ION     NA48950  17.246  16.475   9.650 -0.0832  0.1141  0.1158
32690ION     NA48951   7.014   8.011  10.863  0.2535 -0.3359  0.2623
32691ION     NA48952   2.862   6.023   5.916  0.2465  0.1559  0.0392
32692ION     NA48953  16.084  13.852   0.545  0.0347  0.1176  0.2769
32693ION     NA48954  17.275   1.174   5.640 -0.0703  0.0091  0.1597
32694ION     NA48955   9.249   0.473  10.724 -0.0934  0.2434 -0.1763
32695ION     NA48956  14.043   7.025   5.089  0.1465 -0.0767 -0.1159
32696ION     NA48957   0.471  17.916   9.934 -0.1620 -0.4089  0.1228
32697ION     NA48958   4.590  12.556  12.127  0.3134  0.1021 -0.4112
32698ION     NA48959   9.673  10.604  12.212 -0.2510  0.0459  0.3146
32699ION     NA48960  11.333  12.973  10.342 -0.0578  0.2900  0.5032
32700ION     NA48961  10.568  17.047   5.666  0.1427  0.2970  0.0695
32701ION     NA48962   4.673  13.449   5.168 -0.1542 -0.0728 -0.4069
32702ION     NA48963   6.909   3.007  10.798 -0.1093 -0.2693  0.1360
32703ION     NA48964   6.850   4.652   2.314  0.2964 -0.4207 -0.0225
32704ION     NA48965   6.516   6.216  10.623  0.2283 -0.2482 -0.0651
32705ION     NA48966  10.061   9.655  10.072  0.0857  0.0425  0.1438
32706ION     NA48967  12.741  12.172   9.882  0.0811  0.1228 -0.1286
32707ION     NA48968  15.867  17.599   3.878 -0.1139 -0.1665  0.3571
32708ION     NA48969   5.274  16.544  10.262  0.1393  0.3852 -0.0712
32709ION     NA48970  13.276   0.478  10.156  0.2650  0.0291 -0.1373
32710ION     NA48971  10.876  13.629   9.704  0.0036 -0.0236  0.1559
32711ION     NA48972  11.544   8.822   6.050  0.1555  0.3620 -0.3522
32712ION     NA48973   6.837  14.658  14.541  0.2076 -0.2038  0.1820
32713ION     NA48974   8.612  10.611   9.979 -0.2148  0.0905  0.2812
32714ION     NA48975   1.672  11.459  11.528  0.1286  0.1733 -0.0875
32715ION     NA48976  11.693   0.095  10.405  0.3604 -0.0781 -0.4205
32716ION     NA48977   5.290   0.105   5.544 -0.2892 -0.1757 -0.0591
32717ION     NA48978  17.708   8.225  12.500 -0.0878  0.1979 -0.5083
32718ION     NA48979   9.579   3.740  10.834  0.3843  0.1423 -0.2689
32719ION     NA48980   1.268  17.593  10.012  0.1348 -0.4411 -0.2094
32720ION     NA48981   4.475  12.618  11.425  0.1523  0.2638 -0.0381
32721ION     NA48982  13.887   3.762   9.680 -0.2090 -0.5225 -0.1735
32722ION     NA48983   3.109   0.725   2.193 -0.1562 -0.2483 -0.4844
32723ION     NA48984   5.006  18.375  10.307 -0.1567  0.1464  0.1841
32724ION     NA48985   0.932   1.049   5.588 -0.0978 -0.4072 -0.2895
32725ION     NA48986  16.067  15.074  10.131  0.1265  0.2531  0.0975
32726ION     NA48987   6.282   8.355  10.450  0.2719  0.1625  0.0148
32727ION     NA48988  16.262   4.343   9.787 -0.0446 -0.0400 -0.2344
32728ION     NA48989   9.320   6.343  11.053 -0.2176  0.0403  0.0470
32729ION     NA48990   0.959   5.720   3.960  0.1860  0.4168 -0.2557
32730ION     NA48991   1.825   3.810   5.274  0.1570 -0.0453 -0.0019
32731ION     NA48992   6.719  18.272  10.716  0.0448 -0.0346  0.0665
32732ION     NA48993   1.522  14.609   9.905 -0.1524 -0.1886  0.0623
32733ION     NA48994  16.231  13.263  10.103 -0.0137 -0.1911  0.1835
32734ION     NA48995   6.846   0.772   0.223 -0.0571 -0.2007 -0.0202
32735ION     NA48996  18.195  15.578  10.738 -0.0506 -0.2368  0.1239
32736ION     NA48997   2.337  16.354  10.066  0.0870 -0.2538  0.3332
32737ION     NA48998   7.314  16.699  10.717  0.3709  0.2289  0.1644
32738ION     NA48999   7.882  18.753  10.589 -0.1791  0.1597 -0.0562
32739ION     NA49000  12.746   4.932   5.029  0.0898 -0.1395 -0.1582
32740ION     NA49001   0.228  12.887   9.934 -0.0036 -0.0411  0.1823
32741ION     NA49002   0.007   9.703   9.973  0.2551 -0.0480  0.0619
32742ION     NA49003   1.285   7.212   1.210 -0.0027 -0.0983 -0.1931
32743ION     NA49004   8.895   0.844   6.218 -0.1436  0.5216  0.3002
32744ION     NA49005   1.003  12.920  10.088 -0.0092 -0.1746  0.3077
32745ION     NA49006   9.144   5.350  10.786 -0.0588 -0.1082 -0.0554
32746ION     NA49007  16.074   1.188   1.833  0.0906  0.4651 -0.1827
32747ION     NA49008  13.445   1.984  10.001 -0.0144  0.1081 -0.1704
32748ION     NA49009  15.014   1.087   9.737 -0.0397 -0.0116  0.2036
32749ION     NA49010  18.650  17.971   9.601 -0.2175 -0.0711  0.2522
32750ION     NA49011  11.608  15.132   1.189 -0.0357 -0.0623 -0.5243
32751ION     NA49012  18.714   4.159  14.364  0.0194 -0.1282 -0.0061
32752ION     NA49013   1.482  13.434  15.353  0.1093 -0.1600 -0.2422
32753ION     NA49014   5.368   9.426  15.451  0.3180  0.0242 -0.0046
32754ION     NA49015   8.368   3.652  10.894 -0.1743  0.1650  0.2763
32755ION     NA49016   0.174  14.674   5.010 -0.2009  0.2274  0.4078
32756ION     NA49017  15.714   7.656   5.589  0.1399 -0.0406 -0.1434
32757ION     NA49018  13.605  12.337   9.854  0.1929 -0.3432  0.3211
32758ION     NA49019  11.113   8.626   3.169 -0.4950 -0.3436  0.4199
32759ION     NA49020  15.494  17.348   2.266 -0.0705 -0.3597 -0.1367
32760ION     NA49021   6.186   7.501  10.647 -0.2319  0.1376 -0.0191
32761ION     NA49022   6.068   3.298  10.709  0.0541 -0.0839 -0.0635
32762ION     NA49023   2.326   9.270  10.242 -0.0566  0.0234  0.0104
32763ION     NA49024  18.422   4.720   1.664 -0.0062  0.1671  0.0618
32764ION     NA49025  15.728  18.517   9.537  0.2445 -0.0676  0.3030
32765ION     NA49026  15.036   1.454   3.300  0.0326  0.0033 -0.1150
32766ION     NA49027   5.187  12.309  10.262  0.0031 -0.1396 -0.0346
32767ION     NA49028   2.139   5.143  11.673 -0.5075  0.1426 -0.0806
32768ION     NA49029  16.445   0.501   9.736 -0.5439 -0.1350 -0.4467
32769ION     NA49030   0.894  17.233   5.595 -0.2312  0.0566 -0.0685
32770ION     NA49031  17.760  13.744   2.420 -0.0859 -0.0230  0.0457
32771ION     NA49032  17.749  13.559  10.537 -0.1517  0.1631 -0.2486
32772ION     NA49033   1.532  16.290  10.174  0.0687  0.0053 -0.2269
32773ION     NA49034   4.894  13.179  10.305  0.2652  0.1169 -0.1397
32774ION     NA49035  16.214   8.066   2.444 -0.2994  0.1100  0.0722
32775ION     NA49036   8.674  15.323   5.614  0.0699  0.1099 -0.0739
32776ION     NA49037  17.745   8.069   9.768 -0.0401 -0.0314 -0.3400
32777ION     NA49038  12.101   9.076  12.519  0.0165  0.4688 -0.0333
32778ION     NA49039   8.526   1.730  10.548  0.0149  0.0314  0.1358
32779ION     NA49040  10.380  14.961   4.051  0.2823  0.0551  0.0210
32780ION     NA49041   5.738   9.128  10.432 -0.0886  0.4324  0.3515
32781ION     NA49042   0.451  13.083   3.130  0.1653 -0.2370 -0.1400
32782ION     NA49043   0.290   0.525   1.482 -0.1481  0.1089 -0.1845
32783ION     NA49044   8.618  10.437  11.487  0.5963  0.1518 -0.1990
32784ION     NA49045   0.378   1.912   9.448  0.1945  0.2628  0.2743
32785ION     NA49046  11.352   6.470   1.757 -0.1289 -0.1419  0.0750
32786ION     NA49047  11.933   9.600   2.184  0.0661  0.4163 -0.2380
32787ION     NA49048   2.747  12.879  10.027  0.2450  0.1698 -0.2077
32788ION     NA49049   9.400  15.935  10.243  0.1798 -0.1702  0.1424
32789ION     NA49050   9.500   2.015  10.753  0.0859  0.0484  0.0379
32790ION     NA49051  18.471  16.978  13.678 -0.1373 -0.0430 -0.0844
32791ION     NA49052  16.441   7.492  13.847 -0.1132 -0.0622 -0.2954
32792ION     NA49053   5.761  15.320  10.499 -0.0383  0.0033 -0.2083
32793ION     NA49054   2.698  18.660   9.894 -0.0976 -0.0294 -0.0879
32794ION     NA49055   7.144   4.149   6.284  0.0831 -0.1210  0.0983
32795ION     NA49056  11.682   6.118   3.856 -0.1600 -0.1394  0.0989
32796ION     NA49057  18.807  15.816   9.731 -0.0387  0.1616 -0.1203
32797ION     NA49058  12.512  10.246   3.641 -0.4354  0.1215  0.2060
32798ION     NA49059  11.475   5.380  15.261 -0.1608  0.1193  0.3298
32799ION     NA49060   0.652   2.705   9.703 -0.1383  0.0595  0.3736
32800ION     NA49061   6.837  15.907   5.516 -0.0057 -0.4498  0.4343
32801ION     NA49062   1.186  10.693   9.898 -0.0367 -0.0850 -0.2063
32802ION     NA49063  10.195   2.262  10.647 -0.3032  0.0801 -0.0867
32803ION     NA49064   0.601  11.813  11.009  0.1131 -0.2680  0.2436
32804ION     NA49065  15.887   1.109   9.967 -0.0055 -0.0327 -0.1890
32805ION     NA49066  11.463   0.949   5.597  0.1249 -0.1809  0.4839
32806ION     NA49067   6.350   4.349  13.933  0.0269 -0.1955  0.1899
32807ION     NA49068   9.259  15.033   9.844  0.0632 -0.0316  0.0031
32808ION     NA49069   1.156   3.610  10.065  0.1201 -0.0389  0.2597
32809ION     NA49070  14.862  16.525  10.027 -0.1052  0.0486 -0.0518
32810ION     NA49071  15.014  17.633   0.936 -0.0809 -0.2722  0.2419
32811ION     NA49072   0.708   4.968   5.415  0.1391 -0.0143 -0.2311
32812ION     NA49073  10.389  12.061   2.585  0.3413  0.0608 -0.2751
32813ION     NA49074  12.902   6.493  10.758 -0.1326  0.0392  0.2283
32814ION     NA49075   0.633   0.973   2.690  0.1056  0.0212 -0.0725
32815ION     NA49076  11.975  11.392   9.749 -0.1874 -0.1318 -0.3521
32816ION     NA49077  13.528   2.922   9.994  0.2281 -0.0854  0.1649
32817ION     NA49078  13.709  13.626   9.350  0.1551  0.2094 -0.0645
32818ION     NA49079   2.091   8.443   5.778  0.0374  0.1507 -0.2658
32819ION     NA49080  16.266   2.387   9.616 -0.0818 -0.2895 -0.0140
32820ION     NA49081  15.705   2.054   0.996  0.0825  0.0683  0.2117
32821ION     NA49082  10.430  15.645   9.998 -0.1718 -0.0161  0.0243
32822ION     NA49083  12.818  14.104   9.630  0.0278 -0.0748 -0.0626
32823ION     NA49084   8.724  14.771   9.935  0.1541  0.0492  0.0550
32824ION     NA49085   8.560   9.715  10.284 -0.0018  0.0017  0.1363
32825ION     NA49086  15.376  15.254   9.735 -0.1187 -0.3309 -0.0219
32826ION     NA49087   2.313   2.887  10.933  0.2520  0.1546  0.0107
32827ION     NA49088  12.692   9.639  10.309 -0.1127 -0.1775 -0.0815
32828ION     NA49089  14.172   9.570   1.380  0.4148 -0.1169 -0.1771
32829ION     NA49090  18.486   8.575   5.286  0.1263 -0.4085  0.3059
32830ION     NA49091   5.184   3.550  10.295  0.1574 -0.1738  0.1059
32831ION     NA49092  11.874  15.910   9.971  0.1660 -0.0669 -0.2294
32832ION     NA49093  16.050  12.070  12.595  0.1815 -0.1533 -0.0208
32833ION     NA49094  12.471  18.826  15.147  0.3764 -0.2569 -0.2843
32834ION     NA49095  14.365  13.081   9.548  0.3023 -0.0411 -0.0643
32835ION     NA49096  10.078  10.657   9.798 -0.1540 -0.1391 -0.1965
32836ION     NA49097   6.592   2.928  15.435 -0.0656 -0.2932 -0.1730
32837ION     NA49098   8.390  15.931   5.563 -0.0149 -0.0203 -0.1019
32838ION     NA49099  11.190   6.144  10.351 -0.1222  0.0925 -0.1345
32839ION     NA49100  17.077   7.952   5.401  0.0274  0.1195 -0.0450
32840ION     NA49101   6.398  10.279   5.450 -0.0249  0.1947 -0.1507
32841ION     NA49102   7.840   2.972  10.812  0.0029  0.0748  0.0912
32842ION     NA49103  10.339   4.046  10.753  0.1172  0.2005  0.1412
32843ION     NA49104  13.305   7.107   9.967 -0.0899  0.0810 -0.0154
32844ION     NA49105  14.087  10.343   5.402 -0.2045 -0.0118  0.2522
32845ION     NA49106   3.059  16.960  10.018  0.0568 -0.1441 -0.0556
32846ION     NA49107   5.523  14.401   0.236 -0.3751 -0.1861 -0.2347
32847ION     NA49108  16.479  11.392  11.009  0.0022 -0.2595  0.0333
32848ION     NA49109  18.220   8.964   9.964 -0.3637 -0.2769 -0.2433
32849ION     NA49110   9.101   9.721  10.100  0.0150 -0.1006 -0.4973
32850ION     NA49111   2.195   6.656   5.439 -0.0079 -0.1357  0.0314
32851ION     NA49112   3.014  15.803   9.944 -0.0736 -0.3186  0.0569
32852ION     NA49113   5.944   1.653   3.260  0.2846  0.3476  0.3175
32853ION     NA49114   4.791   4.936   3.337 -0.2620 -0.1606 -0.1496
32854ION     NA49115  16.177   5.143   9.593  0.4664 -0.0574  0.0081
32855ION     NA49116  15.065   7.132  12.436  0.0512  0.3295 -0.0412
32856ION     NA49117   1.680   3.222  10.249 -0.0002 -0.2199  0.0579
32857ION     NA49118   3.766  12.648   9.729  0.0057 -0.0669 -0.0739
32858ION     NA49119  17.618   0.010   3.774  0.1332 -0.1765 -0.0020
32859ION     NA49120   2.556   0.712  10.020  0.1825 -0.2391 -0.2020
32860ION     NA49121  18.253  17.307  10.176  0.1620  0.2136 -0.0209
32861ION     NA49122   5.519  17.591  10.587 -0.3324  0.0985  0.0197
32862ION     NA49123   9.745  17.413  10.182  0.1892  0.1178  0.1753
32863ION     NA49124   9.618   3.672   5.842 -0.0084  0.2161 -0.1143
32864ION     NA49125   0.477  11.936   2.597 -0.0649 -0.5190  0.0194
32865ION     NA49126  11.576   7.410  12.725  0.0278 -0.1917  0.3196
32866ION     NA49127  11.217  14.710  13.432 -0.0812 -0.2632  0.0490
32867ION     NA49128  14.045   6.532   9.797 -0.3048 -0.1055 -0.0351
32868ION     NA49129  11.340  16.399   5.589 -0.0782  0.2307 -0.1095
32869ION     NA49130   6.652   8.514   1.290 -0.1430  0.1348  0.0325
32870ION     NA49131  17.113   6.937  10.103 -0.1694 -0.1209 -0.2882
32871ION     NA49132  10.072  13.453  10.200 -0.1384 -0.0381 -0.1389
32872ION     NA49133   0.892  13.286   5.549  0.0429 -0.1900  0.0115
32873ION     NA49134  17.859  14.235  10.004 -0.0504 -0.0587 -0.1822
32874ION     NA49135   6.027   7.553   5.943  0.0456 -0.0919 -0.2761
32875ION     NA49136  17.736   4.533   9.643 -0.3778 -0.1700  0.0326
32876ION     NA49137  12.148   9.983   5.573 -0.1809 -0.0299  0.0517
32877ION     NA49138   6.564   5.933  13.993 -0.1513  0.0029 -0.2984
32878ION     NA49139  15.066  11.230   9.619  0.1290  0.2426  0.3312
32879ION     NA49140   7.832   7.568  10.740  0.1729 -0.1972  0.0755
32880ION     NA49141   5.222   6.880  10.544 -0.0726 -0.1688 -0.1056
32881ION     NA49142  10.043  13.590  13.996 -0.1242  0.1585  0.1140
32882ION     NA49143   4.876   8.612   0.452 -0.1913 -0.0575 -0.1425
32883ION     NA49144  10.973  12.254   9.819 -0.1993  0.0520 -0.0654
32884ION     NA49145   1.857  12.839   9.894 -0.0273  0.3386 -0.1422
32885ION     NA49146  14.326  16.986   1.734  0.0613 -0.0491 -0.3018
32886ION     NA49147  16.372  16.622   9.774  0.1549  0.3686  0.0560
32887ION     NA49148  14.870  18.508   9.728 -0.0798  0.0455 -0.0489
32888ION     NA49149  12.552   4.410  13.630  0.0485  0.0571  0.0971
32889ION     NA49150   0.670   3.869   0.278  0.2954  0.2101  0.0002
32890ION     NA49151  16.602   5.406  15.486 -0.2540  0.1151  0.1389
32891ION     NA49152  18.438  13.661   9.950  0.2076  0.1595 -0.1203
32892ION     NA49153  17.421  17.465   9.731  0.0516  0.0778  0.0245
32893ION     NA49154  14.671   4.120   5.282 -0.0142 -0.0696  0.1728
32894ION     NA49155  18.031  16.184   9.894  0.2487 -0.1831 -0.3317
32895ION     NA49156   5.474   7.845  10.497  0.3864 -0.1412  0.0951
32896ION     NA49157   3.570   3.855  10.305 -0.2334 -0.0014 -0.4248
32897ION     NA49158  10.292  16.474  10.005  0.3278  0.0782  0.1757
32898ION     NA49159   5.667  12.533  10.266  0.3400  0.0249 -0.4686
32899ION     NA49160  14.201  14.846   5.067  0.0553 -0.0950  0.0377
32900ION     NA49161  14.433  15.330   9.555  0.1994  0.3544 -0.0206
32901ION     NA49162   2.097  14.602   5.230  0.3858  0.1385  0.2682
32902ION     NA49163  12.770   5.160  10.263 -0.0319  0.1849 -0.2404
32903ION     NA49164  10.905   6.662   5.807 -0.1905 -0.4610  0.0817
32904ION     NA49165   7.358   7.355  12.980 -0.0274 -0.3991 -0.1253
32905ION     NA49166   7.854  10.162   9.982 -0.0332  0.1662  0.0472
32906ION     NA49167   0.925   4.464   9.853 -0.0763  0.2096  0.0722
32907ION     NA49168  17.308   0.895   0.981 -0.2552  0.1807 -0.1215
32908ION     NA49169   7.028   4.690   1.213  0.0179  0.3017 -0.1074
32909ION     NA49170  14.545  18.510   5.568  0.2109  0.0339  0.0087
32910ION     NA49171  12.456   9.496   9.889 -0.0572 -0.0783 -0.1684
32911ION     NA49172   0.560   5.031   2.067  0.1774 -0.2558  0.0492
32912ION     NA49173   4.860   5.045  10.617 -0.0776  0.0832 -0.1177
32913ION     NA49174   3.916   9.033  12.924  0.0178 -0.1650 -0.0067
32914ION     NA49175   9.471   1.753   5.996 -0.2339 -0.0431 -0.3044
32915ION     NA49176   9.733   4.759  10.747  0.1189 -0.4741  0.1348
32916ION     NA49177   9.485  10.552   5.711 -0.1340 -0.3490  0.1266
32917ION     NA49178   2.093   4.522  14.220  0.2433  0.0575 -0.1267
32918ION     NA49179   3.314   4.641  10.385 -0.4329  0.2654  0.0802
32919ION     NA49180   8.710   7.658  10.607 -0.3373  0.0957 -0.3193
32920ION     NA49181   0.437  10.059  10.047  0.0210 -0.3649  0.0571
32921ION     NA49182   3.882   8.044  10.325  0.1036 -0.0761 -0.1283
32922ION     NA49183  18.387   7.547  10.052  0.1739 -0.1890  0.1045
32923ION     NA49184   4.339  18.356  14.542 -0.1134  0.3559 -0.0366
32924ION     NA49185  13.343   9.663   9.995 -0.0401  0.3009  0.0683
32925ION     NA49186  15.956  14.588   5.171  0.2707  0.0564 -0.0833
32926ION     NA49187   4.374   8.504   5.391 -0.2383 -0.4206  0.2408
32927ION     NA49188  14.176  13.703   0.405  0.0631 -0.0673  0.1051
32928ION     NA49189   1.746   6.231  10.533 -0.0487 -0.0231 -0.0668
32929ION     NA49190  11.262  17.969  13.398  0.0434 -0.1894  0.1750
32930ION     NA49191  11.306   5.663  10.871 -0.1096  0.0613 -0.0742
32931ION     NA49192   7.983   0.342   0.850 -0.1685 -0.1303  0.4546
32932ION     NA49193  16.939  17.351   9.726  0.2246 -0.1779 -0.1455
32933ION     NA49194  11.925   6.663   5.537  0.1806 -0.1463 -0.2507
32934ION     NA49195  14.520  10.413   9.858  0.2001  0.3741  0.2699
32935ION     NA49196   2.545  17.998  13.592 -0.1911  0.1354 -0.0647
32936ION     NA49197   0.537  13.685  10.001 -0.0341 -0.0181 -0.0673
32937ION     NA49198  18.313   1.448   9.681 -0.1310 -0.0657 -0.2876
32938ION     NA49199   4.142   7.895  11.775  0.1545  0.2859  0.0873
32939ION     NA49200   8.076   1.116  10.517  0.1963  0.1719 -0.1975
32940ION     NA49201   3.164   7.440  10.259 -0.1451 -0.0943  0.1384
32941ION     NA49202   1.286  14.363   0.226 -0.2408 -0.0779 -0.0650
32942ION     NA49203  10.006   3.436   4.454  0.2657 -0.3651 -0.0594
32943ION     NA49204   5.310  16.390  12.914 -0.1375  0.0644 -0.0135
32944ION     NA49205  10.092   3.102   2.877  0.2003 -0.0870 -0.0456
32945ION     NA49206   1.870  17.910   1.617  0.1404 -0.0180 -0.0754
32946ION     NA49207   2.065   1.341  14.726 -0.0037 -0.2060  0.2293
32947ION     NA49208   9.634   2.959  10.686  0.2421 -0.1490  0.1840
32948ION     NA49209  15.530   7.062  10.745  0.3597  0.1337 -0.1663
32949ION     NA49210  13.103   1.842   2.472  0.2045 -0.1744 -0.1232
32950ION     NA49211   6.633   4.660  11.039 -0.0769  0.0779 -0.1984
32951ION     NA49212  11.105   4.483  10.539 -0.1208  0.2352 -0.2594
32952ION     NA49213   9.524   1.914   4.068 -0.0632 -0.2185 -0.0249
32953ION     NA49214  17.511  16.841   5.360  0.0580 -0.1880  0.0435
32954ION     NA49215   7.618   9.694   5.806 -0.5027  0.0698  0.2254
32955ION     NA49216   4.176   0.066   9.952  0.0991  0.1173  0.1342
32956ION     NA49217   9.773   9.155  10.213 -0.1745  0.0838 -0.0890
32957ION     NA49218  10.370   1.312  14.175 -0.1710 -0.1120 -0.0578
32958ION     NA49219   6.274  14.662   1.490 -0.3179 -0.0560 -0.1730
32959ION     NA49220  13.730  10.520   9.905  0.3037 -0.3851 -0.1885
32960ION     NA49221   4.606   5.430   4.493  0.0642 -0.2140  0.1587
32961ION     NA49222  11.125   1.214  10.943  0.2755 -0.0090 -0.0390
32962ION     NA49223   0.008   9.372   5.343 -0.0081  0.1141 -0.0318
32963ION     NA49224  12.355  16.725   9.604  0.1276 -0.0359  0.0407
32964ION     NA49225  12.839  13.429   9.475  0.1236  0.3513 -0.2169
32965ION     NA49226  17.827  10.984   9.933  0.3350 -0.1115  0.1182
32966ION     NA49227  15.169   8.391   9.777 -0.1391 -0.0206 -0.2240
32967ION     NA49228   7.376  14.699  10.410 -0.0142 -0.0778 -0.1758
32968ION     NA49229  18.179  11.625   2.261  0.3518  0.0860 -0.0259
32969ION     NA49230   0.648  16.199   9.625  0.0907  0.0570 -0.0809
32970ION     NA49231  11.229  17.947  10.393 -0.1787 -0.3208 -0.3263
32971ION     NA49232   0.205  17.841   5.279 -0.2674 -0.1473 -0.0952
32972ION     NA49233  14.868  12.489   3.790 -0.1591 -0.1074  0.0386
32973ION     NA49234  15.060   8.522   4.036  0.1890 -0.0895  0.2579
32974ION     NA49235   1.253   2.093   9.764 -0.2177 -0.1996 -0.2516
32975ION     NA49236  11.813  12.587   9.847  0.1213 -0.0946 -0.3276
32976ION     NA49237   9.596   5.750  10.717  0.1056  0.1427 -0.0336
32977ION     NA49238   6.819   7.587   6.195 -0.0599  0.1227  0.1175
32978ION     NA49239  17.278   5.173   1.481 -0.0931 -0.0108 -0.1063
32979ION     NA49240  10.806  18.623  10.179 -0.1957 -0.2006 -0.1688
32980ION     NA49241   8.694   2.638  10.784  0.2532 -0.0401 -0.0528
32981ION     NA49242   9.860  12.571   9.920 -0.1056 -0.0396  0.3921
32982ION     NA49243  16.059  11.803   5.002  0.2785  0.3712 -0.2376
32983ION     NA49244  12.241  11.382  15.612  0.2832 -0.0019 -0.3157
32984ION     NA49245   7.001   0.231  10.519  0.1002  0.1087 -0.1353
32985ION     NA49246   2.878   7.154   3.846 -0.2098  0.0919  0.1148
32986ION     NA49247   6.886  17.286   5.802  0.3755  0.0154  0.0046
32987ION     NA49248   6.857   6.184   0.168 -0.0959  0.1683  0.1344
32988ION     NA49249   3.741   3.432  14.156  0.0815 -0.1797  0.0933
32989ION     NA49250   2.191  17.726   5.050  0.3404 -0.4865  0.1048
32990ION     NA49251  12.549   2.101  10.321 -0.0077 -0.1134 -0.0861
32991ION     NA49252  18.728   7.577   3.311 -0.1261  0.1484 -0.2277
32992ION     NA49253  17.153   5.597   9.767  0.0592  0.1220  0.2954
32993ION     NA49254   1.016   1.244   9.615 -0.0341 -0.2705  0.0135
32994ION     NA49255   4.197   6.760  10.681 -0.3698 -0.1442  0.0938
32995ION     NA49256  16.025   7.804   9.679  0.1275  0.2666  0.0047
32996ION     NA49257   9.615   7.271  10.544 -0.0109 -0.4495  0.2894
32997ION     NA49258   1.214   7.499   5.806 -0.0066  0.2389  0.1485
32998ION     NA49259  13.980  11.290   9.779  0.3061 -0.0693  0.0232
32999ION     NA49260   2.283  11.980   9.871  0.2979  0.0457 -0.1901
33000ION     NA49261  16.357  11.176   1.818 -0.0123  0.1026 -0.1443
33001ION     NA49262   4.583   8.485   3.380  0.0043 -0.1599  0.4137
33002ION     NA49263   5.874   0.721   2.625 -0.1250  0.1547  0.0824
33003ION     NA49264   2.309  17.791  12.765  0.1209  0.0259 -0.2121
33004ION     NA49265   9.151   4.381   5.354  0.2032  0.2580  0.0035
33005ION     NA49266   9.891   0.544   0.784  0.0981 -0.0798 -0.0433
33006ION     NA49267   5.774   1.503  10.482  0.0082  0.2913  0.0076
33007ION     NA49268  17.439   1.431   4.662 -0.1587 -0.2248 -0.0357
33008ION     NA49269  18.696   9.909  15.284 -0.2689  0.1060  0.1410
33009ION     NA49270   5.064  14.039   5.440 -0.2530  0.0556  0.0695
33010ION     NA49271  10.338   1.633   5.908 -0.0251  0.1247  0.0733
33011ION     NA49272  10.475   3.153  10.567 -0.1834 -0.2023  0.0924
33012ION     NA49273   9.821   7.421   4.887 -0.0895 -0.0196  0.0611
33013ION     NA49274   4.677  11.134  10.013 -0.0077  0.0901 -0.1019
33014ION     NA49275   0.820   0.775  14.966  0.1747 -0.0589  0.0500
33015ION     NA49276   3.828  17.320  10.066  0.0781  0.0820  0.0024
33016ION     NA49277  11.555   9.706   9.802  0.1559 -0.0961  0.2305
33017ION     NA49278  13.650   8.826   0.719  0.1771  0.2201  0.0297
33018ION     NA49279   7.820  14.954  10.164  0.1514  0.3859 -0.0808
33019ION     NA49280  18.106  13.993  13.199  0.0453 -0.0042 -0.0953
33020ION     NA49281   5.429   4.429  10.520  0.0733  0.2725 -0.2166
33021ION     NA49282   9.172  13.237  10.015 -0.2025 -0.0087 -0.0814
33022ION     NA49283   5.308   0.729  10.320 -0.1483 -0.0507 -0.0557
33023ION     NA49284  11.692  14.897   9.979  0.0725  0.1140  0.4411
33024ION     NA49285  10.525   6.803  10.501 -0.1070  0.1118  0.1793
33025ION     NA49286  17.734   4.635   5.420  0.3703 -0.1146  0.2037
33026ION     NA49287   1.059  10.604   5.229  0.1458  0.0950  0.1043
33027ION     NA49288   4.712  14.244  10.114 -0.0053  0.0834 -0.3345
33028ION     NA49289  15.742  12.835  10.007  0.0797  0.0034 -0.1355
33029ION     NA49290  10.128   1.780   4.549 -0.2546  0.1669 -0.2053
33030ION     NA49291  11.796  15.653  10.785 -0.0503 -0.1308 -0.0098
33031ION     NA49292  12.462  17.824   5.774 -0.1746 -0.0636  0.0227
33032ION     NA49293   0.381   8.698  10.045 -0.1524  0.0384 -0.3360
33033ION     NA49294  16.640   1.007  10.440  0.1785  0.1360  0.2498
33034ION     NA49295  15.968   8.766   9.754 -0.0280 -0.1530 -0.0461
33035ION     NA49296   8.917   6.424  10.631  0.2417  0.2618 -0.0259
33036ION     NA49297  17.206  10.286   9.900 -0.0778 -0.0198  0.1324
33037ION     NA49298  18.358  11.271   3.795 -0.1907 -0.0182 -0.3101
33038ION     NA49299  15.802   3.080  10.122  0.1362  0.1372  0.1193
33039ION     NA49300  18.253  18.666   2.447  0.2348 -0.0339  0.3116
33040ION     NA49301   5.714  18.729   0.787  0.1717 -0.1770  0.1350
33041ION     NA49302  15.537   0.997   5.414  0.2203 -0.2376  0.0607
33042ION     NA49303   6.096  13.721  10.191 -0.0015 -0.4084  0.2318
33043ION     NA49304   7.481   4.845  10.868 -0.2219 -0.1137 -0.1283
33044ION     NA49305   0.955   9.804  10.145  0.0160 -0.0531 -0.0574
33045ION     NA49306  11.921  13.818   9.878  0.0170 -0.2693  0.0525
33046ION     NA49307  14.717   2.362   5.549  0.0152 -0.0856  0.1714
33047ION     NA49308  13.207   2.740   5.509 -0.1476 -0.1579 -0.1500
33048ION     NA49309   7.932   0.760   2.977 -0.0021 -0.0489 -0.0996
33049ION     NA49310  16.454  15.532   5.114  0.2279  0.2231 -0.1959
33050ION     NA49311  18.648  18.659   9.956 -0.1286 -0.2042 -0.1149
33051ION     NA49312  16.955   6.426  10.106 -0.2613 -0.2117  0.0821
33052ION     NA49313  17.852   1.292   0.253  0.1978 -0.1235  0.1789
33053ION     NA49314  12.111   1.456   3.949  0.4045 -0.0992 -0.1209
33054ION     NA49315   5.417   0.323  14.556  0.1455 -0.0074  0.0478
33055ION     NA49316  11.513   7.351  15.419  0.0597 -0.0147 -0.2660
33056ION     NA49317  14.236   0.316   9.849 -0.0865 -0.1336 -0.1072
33057ION     NA49318   5.687   5.288  10.668  0.1527 -0.2097 -0.0679
33058ION     NA49319   1.796  11.328  10.105  0.0650 -0.2548  0.5108
33059ION     NA49320   8.051   4.169  15.615 -0.2964 -0.1924  0.0291
33060ION     NA49321  15.363  10.892   5.644  0.3473 -0.1873  0.0967
33061ION     NA49322   3.704   9.431  10.096 -0.2271  0.0866 -0.0193
33062ION     NA49323   2.582   6.422  11.303 -0.2232 -0.2734 -0.2603
33063ION     NA49324  16.973   9.664   9.863  0.0675 -0.0424 -0.1544
33064ION     NA49325   1.808   4.345  10.038 -0.0500 -0.1902  0.2787
33065ION     NA49326  17.376   8.028   1.734  0.0531  0.2126  0.0142
33066ION     NA49327   2.873   1.615   3.760 -0.5352 -0.3081  0.0984
33067ION     NA49328   0.907   6.730  10.468  0.0821 -0.0889 -0.4391
33068ION     NA49329   2.340   4.460   2.639 -0.0920 -0.1813  0.0860
33069ION     NA49330   3.890  15.850   9.888  0.0280  0.1150 -0.2263
33070ION     NA49331  17.198   6.829   1.032  0.2666  0.1265  0.5309
33071ION     NA49332   2.039  13.114   5.394  0.1018  0.2515 -0.3690
33072ION     NA49333   1.657   6.689  10.416 -0.1526 -0.3729 -0.4003
33073ION     NA49334   8.987  12.057   9.891 -0.3923  0.0169  0.0290
33074ION     NA49335  11.054  16.414  10.013 -0.1295 -0.1305  0.2527
33075ION     NA49336   3.969  16.467  12.630  0.1485 -0.0361  0.0831
33076ION     NA49337   3.996  11.578   9.955  0.1741  0.1926 -0.0020
33077ION     NA49338  11.259  13.932   9.788  0.2653  0.4485  0.3013
33078ION     NA49339  17.697   0.903  10.185  0.1542 -0.1211 -0.0868
33079ION     NA49340   8.276   2.654  15.168  0.0339  0.0418  0.2745
33080ION     NA49341  15.820  10.441   5.184 -0.1824  0.2410  0.2569
33081ION     NA49342  17.893  15.445   5.680  0.0027  0.0704  0.0949
33082ION     NA49343   8.334  17.297  10.584  0.1378 -0.2521  0.1344
33083ION     NA49344   7.155  10.494  11.919 -0.0306  0.0542 -0.0029
33084ION     NA49345   4.024  18.060   5.327 -0.2003 -0.0781  0.0120
33085ION     NA49346  11.532   3.032  10.699 -0.2456  0.2601  0.1227
33086ION     NA49347  18.023   6.582  10.080 -0.1345  0.4971 -0.2887
33087ION     NA49348   9.129  12.215   2.129 -0.1492  0.3511 -0.0205
33088ION     NA49349  10.559   0.534   5.850  0.1569  0.0186 -0.0040
33089ION     NA49350   2.542   4.115  11.034  0.4512  0.3290  0.0186
33090ION     NA49351  13.766   8.217   4.738 -0.1564  0.1485 -0.1051
33091ION     NA49352   6.951   8.150  15.567  0.0194 -0.1016  0.1076
33092ION     NA49353   9.176  10.701  10.268  0.1008 -0.3913 -0.0932
33093ION     NA49354  18.774   0.683  12.763  0.0835  0.1286 -0.1454
33094ION     NA49355   3.801   6.088   5.566  0.3676  0.3407  0.1484
33095ION     NA49356  13.076  16.031   9.398  0.0282  0.1214 -0.1542
33096ION     NA49357  17.665   4.036  13.407 -0.4054  0.0092  0.0182
33097ION     NA49358   3.196   9.914   5.891  0.1572 -0.0318  0.2211
33098ION     NA49359   1.775  14.563  13.509 -0.1947  0.3628  0.2321
33099ION     NA49360  17.414   2.796  14.105  0.0635 -0.0583  0.0623
33100ION     NA49361  15.182  13.325   9.863 -0.3873 -0.0523  0.0235
33101ION     NA49362  12.931   5.715  10.164  0.2859 -0.1333 -0.1285
33102ION     NA49363   7.992   6.158  11.300  0.1518 -0.0707 -0.3175
33103ION     NA49364  15.055   7.476  10.063 -0.0246  0.2952 -0.2905
33104ION     NA49365   8.646   4.805   6.156  0.2628 -0.2962 -0.1708
33105ION     NA49366  10.794   7.947  11.448 -0.2874 -0.1653 -0.0648
33106ION     NA49367   0.678  14.693  10.012  0.2410 -0.1041  0.2180
33107ION     NA49368   0.068   4.885   9.917 -0.2246  0.0584 -0.0989
33108ION     NA49369   2.801   6.497  10.412  0.1364 -0.0362 -0.1347
33109ION     NA49370   1.249  15.472   9.619 -0.0692  0.2832  0.0559
33110ION     NA49371   0.634  18.607   5.494  0.1114  0.1792  0.1673
33111ION     NA49372  10.104  13.609   5.371 -0.0683 -0.0491 -0.1550
33112ION     NA49373   2.733  16.659   2.627 -0.2436 -0.0968  0.1260
33113ION     NA49374   3.864   2.533  10.199  0.4951 -0.0614  0.2792
33114ION     NA49375   1.381   8.423  10.126  0.0359 -0.0121 -0.1556
33115ION     NA49376  17.479  12.657  10.200  0.0456 -0.0523  0.0004
33116ION     NA49377  16.123  13.682   1.579  0.1935  0.0261  0.3896
33117ION     NA49378   6.474  11.410   2.331 -0.1042  0.2805 -0.2339
33118ION     NA49379  10.862   5.502  12.358 -0.1944  0.7020  0.0451
33119ION     NA49380  16.251  17.865   0.145 -0.2357 -0.2380 -0.1760
33120ION     NA49381   8.319  17.499  14.429  0.2432  0.0380  0.3939
33121ION     NA49382  16.105  16.068  13.109  0.0405 -0.0549  0.2643
33122ION     NA49383  12.220   1.755   5.402 -0.1668 -0.1301  0.2562
33123ION     NA49384  18.807   5.926   9.998  0.1337 -0.1324 -0.0446
33124ION     NA49385  16.525  17.723   9.687  0.2404  0.3862 -0.0731
33125ION     NA49386  12.691  15.276   3.999 -0.0332 -0.1155  0.0107
33126ION     NA49387   5.020   9.633   2.728  0.0004 -0.1476  0.2580
33127ION     NA49388   6.327  14.967  15.348 -0.1480  0.0580 -0.0044
33128ION     NA49389   3.481  15.078  10.149 -0.2329 -0.0620 -0.1311
33129ION     NA49390  11.585   6.225   5.759 -0.1961  0.0465 -0.1164
33130ION     NA49391  17.545   7.591   9.839 -0.0086 -0.0839  0.0694
33131ION     NA49392   3.279   0.503   9.830 -0.1730  0.1017  0.2174
33132ION     NA49393   3.130   5.491  10.476  0.2669  0.2818  0.4806
33133ION     NA49394  18.095   2.235   9.576  0.2058  0.0961  0.2137
33134ION     NA49395   7.295   6.814  11.029 -0.1641  0.1988 -0.2110
33135ION     NA49396   6.987   2.807   4.334  0.1053  0.1034 -0.0604
33136ION     NA49397  14.212   2.390   9.730  0.2799 -0.2676  0.1827
33137ION     NA49398  10.222   8.368  10.408 -0.0336  0.0449  0.1280
33138ION     NA49399   9.191  12.599   3.835 -0.1877 -0.0467 -0.2076
33139ION     NA49400   4.341   0.097  10.482  0.1370 -0.3250 -0.2646
33140ION     NA49401   1.999   7.967  10.379 -0.0927 -0.2468  0.0257
33141ION     NA49402   1.678  16.867   5.375  0.2448  0.0355  0.1130
33142ION     NA49403   6.194  15.251  12.240  0.1116 -0.0301  0.2012
33143ION     NA49404  10.821   4.733  13.997 -0.0132 -0.2068 -0.0463
33144ION     NA49405  14.374  12.020   9.672  0.1692  0.1915 -0.2989
33145ION     NA49406   4.274   5.385  10.308  0.1191  0.1162  0.0124
33146ION     NA49407   4.454  10.085  10.041  0.0670  0.0311  0.1847
33147ION     NA49408   0.107   8.901   0.515  0.1464  0.1513 -0.0355
33148ION     NA49409   5.882  16.629  10.388 -0.2117  0.1022  0.2374
33149ION     NA49410   6.741  11.549   3.863 -0.1554  0.0974 -0.1182
33150ION     NA49411   8.575   8.803   6.387  0.0832 -0.0923 -0.0487
33151ION     NA49412  18.628  14.767   9.941  0.2416  0.1465 -0.0789
33152ION     NA49413   4.001   5.774   5.916  0.0094  0.0284 -0.1358
33153ION     NA49414  12.551   4.202  10.278 -0.0199  0.2562  0.1215
33154ION     NA49415  18.153   5.246  14.362 -0.0088 -0.0620  0.3835
33155ION     NA49416   3.063   3.180  10.177  0.3103  0.0801  0.1655
33156ION     NA49417  17.901  11.013  14.531 -0.0714  0.2790  0.2088
33157ION     NA49418   2.715   4.037  10.219 -0.1322 -0.2805 -0.0417
33158ION     NA49419  17.371   2.066  10.657 -0.2087 -0.2185 -0.2356
33159ION     NA49420  13.081   4.162   9.987 -0.1331  0.0116  0.0247
33160ION     NA49421  11.495  18.254   5.336  0.3645 -0.1381 -0.1158
33161ION     NA49422   8.834  10.081  13.873  0.2754 -0.1395  0.0182
33162ION     NA49423   4.406   7.143  10.301 -0.0723 -0.0504 -0.2307
33163ION     NA49424  10.473   8.575  12.795  0.2102  0.0084 -0.1190
33164ION     NA49425  13.263   1.212   1.114 -0.2895 -0.2379 -0.2132
33165ION     NA49426   0.084  14.880   5.513 -0.0954 -0.3855 -0.0294
33166ION     NA49427  10.639  10.482   1.563  0.0050  0.1040 -0.3878
33167ION     NA49428   8.968  14.925   1.640 -0.3176 -0.1764  0.0714
  18.83030  18.83030  15.64751
